 Entering Gaussian System, Link 0=/opt/software/Gaussian/g16-AVX2-C.01/g16/g16
 Input=charge-conf-669.com
 Output=charge-conf-669.log
 Initial command:
 /opt/software/Gaussian/g16-AVX2-C.01/g16/l1.exe "/mnt/gs18/scratch/users/kengmith/Gau-28385.inp" -scrdir="/mnt/gs18/scratch/users/kengmith/"
 Entering Link 1 = /opt/software/Gaussian/g16-AVX2-C.01/g16/l1.exe PID=     28395.
  
 Copyright (c) 1988-2019, Gaussian, Inc.  All Rights Reserved.
  
 This is part of the Gaussian(R) 16 program.  It is based on
 the Gaussian(R) 09 system (copyright 2009, Gaussian, Inc.),
 the Gaussian(R) 03 system (copyright 2003, Gaussian, Inc.),
 the Gaussian(R) 98 system (copyright 1998, Gaussian, Inc.),
 the Gaussian(R) 94 system (copyright 1995, Gaussian, Inc.),
 the Gaussian 92(TM) system (copyright 1992, Gaussian, Inc.),
 the Gaussian 90(TM) system (copyright 1990, Gaussian, Inc.),
 the Gaussian 88(TM) system (copyright 1988, Gaussian, Inc.),
 the Gaussian 86(TM) system (copyright 1986, Carnegie Mellon
 University), and the Gaussian 82(TM) system (copyright 1983,
 Carnegie Mellon University). Gaussian is a federally registered
 trademark of Gaussian, Inc.
  
 This software contains proprietary and confidential information,
 including trade secrets, belonging to Gaussian, Inc.
  
 This software is provided under written license and may be
 used, copied, transmitted, or stored only in accord with that
 written license.
  
 The following legend is applicable only to US Government
 contracts under FAR:
  
                    RESTRICTED RIGHTS LEGEND
  
 Use, reproduction and disclosure by the US Government is
 subject to restrictions as set forth in subparagraphs (a)
 and (c) of the Commercial Computer Software - Restricted
 Rights clause in FAR 52.227-19.
  
 Gaussian, Inc.
 340 Quinnipiac St., Bldg. 40, Wallingford CT 06492
  
  
 ---------------------------------------------------------------
 Warning -- This program may not be used in any manner that
 competes with the business of Gaussian, Inc. or will provide
 assistance to any competitor of Gaussian, Inc.  The licensee
 of this program is prohibited from giving any competitor of
 Gaussian, Inc. access to this program.  By using this program,
 the user acknowledges that Gaussian, Inc. is engaged in the
 business of creating and licensing software in the field of
 computational chemistry and represents and warrants to the
 licensee that it is not a competitor of Gaussian, Inc. and that
 it will not use this program in any manner prohibited above.
 ---------------------------------------------------------------
  

 Cite this work as:
 Gaussian 16, Revision C.01,
 M. J. Frisch, G. W. Trucks, H. B. Schlegel, G. E. Scuseria, 
 M. A. Robb, J. R. Cheeseman, G. Scalmani, V. Barone, 
 G. A. Petersson, H. Nakatsuji, X. Li, M. Caricato, A. V. Marenich, 
 J. Bloino, B. G. Janesko, R. Gomperts, B. Mennucci, H. P. Hratchian, 
 J. V. Ortiz, A. F. Izmaylov, J. L. Sonnenberg, D. Williams-Young, 
 F. Ding, F. Lipparini, F. Egidi, J. Goings, B. Peng, A. Petrone, 
 T. Henderson, D. Ranasinghe, V. G. Zakrzewski, J. Gao, N. Rega, 
 G. Zheng, W. Liang, M. Hada, M. Ehara, K. Toyota, R. Fukuda, 
 J. Hasegawa, M. Ishida, T. Nakajima, Y. Honda, O. Kitao, H. Nakai, 
 T. Vreven, K. Throssell, J. A. Montgomery, Jr., J. E. Peralta, 
 F. Ogliaro, M. J. Bearpark, J. J. Heyd, E. N. Brothers, K. N. Kudin, 
 V. N. Staroverov, T. A. Keith, R. Kobayashi, J. Normand, 
 K. Raghavachari, A. P. Rendell, J. C. Burant, S. S. Iyengar, 
 J. Tomasi, M. Cossi, J. M. Millam, M. Klene, C. Adamo, R. Cammi, 
 J. W. Ochterski, R. L. Martin, K. Morokuma, O. Farkas, 
 J. B. Foresman, and D. J. Fox, Gaussian, Inc., Wallingford CT, 2019.
 
 ******************************************
 Gaussian 16:  ES64L-G16RevC.01  3-Jul-2019
                11-Jun-2022 
 ******************************************
 %mem=8gb
 %nproc=4
 Will use up to    4 processors via shared memory.
 %chk=conf-669.chk
 ----------------------------------------------------------------------
 # B3LYP/6-31G* empiricaldispersion=gd3 guess=read geom=check nosymm in
 tegral(ultrafinegrid)
 ----------------------------------------------------------------------
 1/29=2,38=1,172=1/1;
 2/12=2,15=1,40=1/2;
 3/5=1,6=6,7=1,11=2,14=-4,25=1,30=1,74=-5,75=-5,116=-2,124=31/1,2,3;
 4/5=1/1;
 5/5=2,38=6/2;
 6/7=2,8=2,9=2,10=2,28=1/1;
 99/5=1,9=1/99;
 ------------------------------------------------------
 Candidate Structure: Conf:669 Charge calc in gas phase
 ------------------------------------------------------
 Structure from the checkpoint file:  "conf-669.chk"
 Charge =  1 Multiplicity = 1
 Redundant internal coordinates found in file.  (old form).
 N,0,-2.0303459644,13.6914834189,-6.7408877923
 C,0,-2.3744730554,13.7428228793,-8.1825368485
 C,0,-3.8030364306,13.1662351454,-8.3137092564
 O,0,-4.5217074171,13.074414958,-7.3200763853
 C,0,-1.3065871696,13.0327562582,-9.039151816
 C,0,0.1176326518,13.4554721864,-8.7236784739
 C,0,0.4783579709,14.8027578926,-8.5787258645
 C,0,1.1154307066,12.4814656548,-8.5840375172
 C,0,1.7951301301,15.1678714965,-8.2914975291
 C,0,2.4385997077,12.8418388189,-8.3177634758
 C,0,2.7823496109,14.1875889402,-8.1608813001
 H,0,-2.9216709774,13.7234323145,-6.2355553673
 H,0,-2.4529835957,14.7924949558,-8.5027200814
 H,0,-1.5081228055,13.2453583271,-10.0988971605
 H,0,-1.4093623797,11.9555586184,-8.8960865911
 H,0,-0.2703909084,15.5825117578,-8.7023174926
 H,0,0.8504914311,11.4322263857,-8.6792333767
 H,0,2.0528497185,16.2183046267,-8.1881158701
 H,0,3.199932776,12.0694820022,-8.240085162
 H,0,3.8131540336,14.4730673301,-7.9672596048
 H,0,-1.4828455992,14.5120205621,-6.4885795656
 N,0,-4.232035652,12.8179333638,-9.5517440299
 C,0,-5.6088927302,12.3559379395,-9.7862294225
 C,0,-5.9600223255,11.1576179566,-8.8809256986
 O,0,-7.0447501003,11.0710889358,-8.3329116421
 C,0,-5.7811995741,12.0228382129,-11.2779513493
 C,0,-7.1571706893,11.4451117598,-11.6635694429
 C,0,-8.3141951275,12.3644423992,-11.2462579803
 C,0,-7.1866766207,11.1642946193,-13.1725514075
 H,0,-3.6229495529,12.9344026533,-10.3495495769
 H,0,-6.3014929102,13.1451189093,-9.4839177843
 H,0,-5.6042098224,12.9423459136,-11.8554172847
 H,0,-4.9990754165,11.306052658,-11.5680890941
 H,0,-7.2790617102,10.4889650679,-11.1360869447
 H,0,-8.1825923294,13.373360033,-11.6597743351
 H,0,-9.2659703107,11.9743717684,-11.6230891904
 H,0,-8.3949042752,12.4368029301,-10.157798563
 H,0,-7.0901278507,12.0952736161,-13.7460039188
 H,0,-6.371856757,10.4959528663,-13.4767807158
 H,0,-8.1326457619,10.6939446106,-13.4614817732
 N,0,-4.9773138042,10.1926089998,-8.7872894411
 C,0,-4.8371345022,9.4696327997,-7.5302462224
 C,0,-3.5440025196,10.003715825,-6.8823939818
 O,0,-2.6902075396,10.5842106186,-7.5685116228
 C,0,-4.8350387541,7.9415253375,-7.7207729289
 C,0,-5.1543436619,7.1881296919,-6.4286820584
 N,0,-5.4330110379,5.8713293964,-6.5813832895
 O,0,-5.1552141104,7.7247715454,-5.3186378376
 H,0,-4.0714255944,10.4841208404,-9.1437655552
 H,0,-5.6905676181,9.7362195408,-6.9009639688
 H,0,-5.588191236,7.7020159382,-8.4798691823
 H,0,-3.8698529798,7.5947552643,-8.1128354854
 H,0,-5.689407845,5.3362414624,-5.7625623338
 H,0,-5.5303343414,5.4384059595,-7.4878827452
 N,0,-3.3968367987,9.8628551528,-5.5558931304
 C,0,-2.3369159046,10.5900574577,-4.8809096132
 C,0,-1.0282016869,10.5321191883,-5.6873207058
 O,0,-0.3807368358,9.4962283539,-5.7597114991
 C,0,-2.0835964826,10.001097504,-3.4799572449
 C,0,-1.0906178537,10.7978060946,-2.5947031204
 C,0,0.3655511383,10.2848519357,-2.5181536768
 N,0,1.1821372961,10.5633999952,-3.7093574348
 C,0,1.9368886863,11.645666502,-3.9187922065
 N,0,2.5286003012,12.2823584559,-2.885228974
 N,0,2.1106085713,12.0844021912,-5.1691853094
 O,0,-0.5056145178,11.6920386277,-6.064560962
 H,0,-1.2010090115,12.4591440786,-6.305674224
 H,0,-4.0660708594,9.2707181437,-5.0612908389
 H,0,-2.639640562,11.641409648,-4.7834725539
 H,0,-1.7487542338,8.9654668895,-3.6053923411
 H,0,-3.0510326283,9.9653081188,-2.9662271519
 H,0,-1.0788189234,11.857617024,-2.8827589305
 H,0,-1.4623956768,10.77120655,-1.5639369982
 H,0,0.8491115397,10.7322311568,-1.6462615883
 H,0,0.3793788767,9.2013262511,-2.3679649285
 H,0,0.9012375932,10.0515210073,-4.5516984932
 H,0,3.0205350336,13.1508780086,-3.0351714902
 H,0,2.7288646472,11.7868204494,-2.0286749592
 H,0,2.8119600527,12.7716461009,-5.4060878851
 H,0,1.3657580762,11.9150298011,-5.8519273612
 Recover connectivity data from disk.
                           ----------------------------
                           !    Current Parameters    !
                           ! (Angstroms and Degrees)  !
 --------------------------                            --------------------------
 ! Name  Definition              Value                                          !
 --------------------------------------------------------------------------------
 ! R1    R(1,2)                  1.483                                          !
 ! R2    R(1,12)                 1.0251                                         !
 ! R3    R(1,21)                 1.0182                                         !
 ! R4    R(2,3)                  1.5461                                         !
 ! R5    R(2,5)                  1.5422                                         !
 ! R6    R(2,13)                 1.1002                                         !
 ! R7    R(3,4)                  1.2297                                         !
 ! R8    R(3,22)                 1.3558                                         !
 ! R9    R(5,6)                  1.5188                                         !
 ! R10   R(5,14)                 1.0995                                         !
 ! R11   R(5,15)                 1.0915                                         !
 ! R12   R(6,7)                  1.4023                                         !
 ! R13   R(6,8)                  1.4014                                         !
 ! R14   R(7,9)                  1.3963                                         !
 ! R15   R(7,16)                 1.0881                                         !
 ! R16   R(8,10)                 1.397                                          !
 ! R17   R(8,17)                 1.0864                                         !
 ! R18   R(9,11)                 1.3974                                         !
 ! R19   R(9,18)                 1.0865                                         !
 ! R20   R(10,11)                1.3978                                         !
 ! R21   R(10,19)                1.0873                                         !
 ! R22   R(11,20)                1.087                                          !
 ! R23   R(22,23)                1.4711                                         !
 ! R24   R(22,30)                1.0105                                         !
 ! R25   R(23,24)                1.5423                                         !
 ! R26   R(23,26)                1.5381                                         !
 ! R27   R(23,31)                1.0927                                         !
 ! R28   R(24,25)                1.2184                                         !
 ! R29   R(24,41)                1.3805                                         !
 ! R30   R(26,27)                1.5414                                         !
 ! R31   R(26,32)                1.1001                                         !
 ! R32   R(26,33)                1.0999                                         !
 ! R33   R(27,28)                1.5356                                         !
 ! R34   R(27,29)                1.5352                                         !
 ! R35   R(27,34)                1.0988                                         !
 ! R36   R(28,35)                1.0983                                         !
 ! R37   R(28,36)                1.0955                                         !
 ! R38   R(28,37)                1.0938                                         !
 ! R39   R(29,38)                1.0977                                         !
 ! R40   R(29,39)                1.0969                                         !
 ! R41   R(29,40)                1.0952                                         !
 ! R42   R(41,42)                1.4569                                         !
 ! R43   R(41,49)                1.0162                                         !
 ! R44   R(42,43)                1.5418                                         !
 ! R45   R(42,45)                1.5399                                         !
 ! R46   R(42,50)                1.0933                                         !
 ! R47   R(43,44)                1.2396                                         !
 ! R48   R(43,55)                1.3421                                         !
 ! R49   R(45,46)                1.5294                                         !
 ! R50   R(45,51)                1.0958                                         !
 ! R51   R(45,52)                1.098                                          !
 ! R52   R(46,47)                1.3546                                         !
 ! R53   R(46,48)                1.233                                          !
 ! R54   R(47,53)                1.0112                                         !
 ! R55   R(47,54)                1.0093                                         !
 ! R56   R(55,56)                1.4518                                         !
 ! R57   R(55,68)                1.0213                                         !
 ! R58   R(56,57)                1.5383                                         !
 ! R59   R(56,59)                1.5407                                         !
 ! R60   R(56,69)                1.0984                                         !
 ! R61   R(57,58)                1.2237                                         !
 ! R62   R(57,66)                1.327                                          !
 ! R63   R(59,60)                1.5506                                         !
 ! R64   R(59,70)                1.0956                                         !
 ! R65   R(59,71)                1.096                                          !
 ! R66   R(60,61)                1.5458                                         !
 ! R67   R(60,72)                1.0983                                         !
 ! R68   R(60,73)                1.0961                                         !
 ! R69   R(61,62)                1.4708                                         !
 ! R70   R(61,74)                1.0928                                         !
 ! R71   R(61,75)                1.094                                          !
 ! R72   R(62,63)                1.336                                          !
 ! R73   R(62,76)                1.0249                                         !
 ! R74   R(63,64)                1.3505                                         !
 ! R75   R(63,65)                1.3365                                         !
 ! R76   R(64,77)                1.0094                                         !
 ! R77   R(64,78)                1.0096                                         !
 ! R78   R(65,79)                1.0101                                         !
 ! R79   R(65,80)                1.0245                                         !
 ! R80   R(66,67)                1.0631                                         !
 ! A1    A(2,1,12)             106.0431                                         !
 ! A2    A(2,1,21)             109.7406                                         !
 ! A3    A(12,1,21)            108.6796                                         !
 ! A4    A(1,2,3)              106.4969                                         !
 ! A5    A(1,2,5)              111.3051                                         !
 ! A6    A(1,2,13)             109.4193                                         !
 ! A7    A(3,2,5)              114.8959                                         !
 ! A8    A(3,2,13)             105.377                                          !
 ! A9    A(5,2,13)             109.0891                                         !
 ! A10   A(2,3,4)              119.9522                                         !
 ! A11   A(2,3,22)             117.7524                                         !
 ! A12   A(4,3,22)             122.2586                                         !
 ! A13   A(2,5,6)              113.9423                                         !
 ! A14   A(2,5,14)             108.6278                                         !
 ! A15   A(2,5,15)             108.4445                                         !
 ! A16   A(6,5,14)             108.559                                          !
 ! A17   A(6,5,15)             109.6184                                         !
 ! A18   A(14,5,15)            107.4518                                         !
 ! A19   A(5,6,7)              122.0141                                         !
 ! A20   A(5,6,8)              119.6665                                         !
 ! A21   A(7,6,8)              118.3161                                         !
 ! A22   A(6,7,9)              121.0035                                         !
 ! A23   A(6,7,16)             119.9854                                         !
 ! A24   A(9,7,16)             119.0069                                         !
 ! A25   A(6,8,10)             120.9373                                         !
 ! A26   A(6,8,17)             119.2698                                         !
 ! A27   A(10,8,17)            119.7919                                         !
 ! A28   A(7,9,11)             120.1346                                         !
 ! A29   A(7,9,18)             119.7396                                         !
 ! A30   A(11,9,18)            120.1162                                         !
 ! A31   A(8,10,11)            120.1778                                         !
 ! A32   A(8,10,19)            119.5767                                         !
 ! A33   A(11,10,19)           120.2442                                         !
 ! A34   A(9,11,10)            119.4177                                         !
 ! A35   A(9,11,20)            120.1575                                         !
 ! A36   A(10,11,20)           120.4017                                         !
 ! A37   A(3,22,23)            121.4925                                         !
 ! A38   A(3,22,30)            120.0421                                         !
 ! A39   A(23,22,30)           118.3273                                         !
 ! A40   A(22,23,24)           111.316                                          !
 ! A41   A(22,23,26)           109.1134                                         !
 ! A42   A(22,23,31)           108.8042                                         !
 ! A43   A(24,23,26)           112.0548                                         !
 ! A44   A(24,23,31)           104.7411                                         !
 ! A45   A(26,23,31)           110.7157                                         !
 ! A46   A(23,24,25)           121.4582                                         !
 ! A47   A(23,24,41)           114.8893                                         !
 ! A48   A(25,24,41)           123.6156                                         !
 ! A49   A(23,26,27)           115.0751                                         !
 ! A50   A(23,26,32)           108.0616                                         !
 ! A51   A(23,26,33)           108.5002                                         !
 ! A52   A(27,26,32)           109.0005                                         !
 ! A53   A(27,26,33)           108.9381                                         !
 ! A54   A(32,26,33)           106.9679                                         !
 ! A55   A(26,27,28)           112.3487                                         !
 ! A56   A(26,27,29)           109.368                                          !
 ! A57   A(26,27,34)           107.7636                                         !
 ! A58   A(28,27,29)           111.2326                                         !
 ! A59   A(28,27,34)           107.8738                                         !
 ! A60   A(29,27,34)           108.0932                                         !
 ! A61   A(27,28,35)           110.9383                                         !
 ! A62   A(27,28,36)           110.364                                          !
 ! A63   A(27,28,37)           111.4459                                         !
 ! A64   A(35,28,36)           107.5595                                         !
 ! A65   A(35,28,37)           108.8281                                         !
 ! A66   A(36,28,37)           107.5627                                         !
 ! A67   A(27,29,38)           110.8963                                         !
 ! A68   A(27,29,39)           111.7034                                         !
 ! A69   A(27,29,40)           110.7603                                         !
 ! A70   A(38,29,39)           107.8507                                         !
 ! A71   A(38,29,40)           107.6007                                         !
 ! A72   A(39,29,40)           107.8645                                         !
 ! A73   A(24,41,42)           118.2888                                         !
 ! A74   A(24,41,49)           114.221                                          !
 ! A75   A(42,41,49)           111.0544                                         !
 ! A76   A(41,42,43)           105.7448                                         !
 ! A77   A(41,42,45)           112.6943                                         !
 ! A78   A(41,42,50)           107.4878                                         !
 ! A79   A(43,42,45)           113.2402                                         !
 ! A80   A(43,42,50)           109.1698                                         !
 ! A81   A(45,42,50)           108.314                                          !
 ! A82   A(42,43,44)           120.4845                                         !
 ! A83   A(42,43,55)           118.0951                                         !
 ! A84   A(44,43,55)           121.3788                                         !
 ! A85   A(42,45,46)           112.5825                                         !
 ! A86   A(42,45,51)           107.5571                                         !
 ! A87   A(42,45,52)           111.025                                          !
 ! A88   A(46,45,51)           109.5162                                         !
 ! A89   A(46,45,52)           109.2458                                         !
 ! A90   A(51,45,52)           106.7257                                         !
 ! A91   A(45,46,47)           115.2505                                         !
 ! A92   A(45,46,48)           123.1173                                         !
 ! A93   A(47,46,48)           121.6311                                         !
 ! A94   A(46,47,53)           118.3773                                         !
 ! A95   A(46,47,54)           122.5518                                         !
 ! A96   A(53,47,54)           118.4155                                         !
 ! A97   A(43,55,56)           119.1442                                         !
 ! A98   A(43,55,68)           117.8822                                         !
 ! A99   A(56,55,68)           122.9302                                         !
 ! A100  A(55,56,57)           111.0086                                         !
 ! A101  A(55,56,59)           110.5675                                         !
 ! A102  A(55,56,69)           108.6305                                         !
 ! A103  A(57,56,59)           108.808                                          !
 ! A104  A(57,56,69)           108.4831                                         !
 ! A105  A(59,56,69)           109.3022                                         !
 ! A106  A(56,57,58)           120.865                                          !
 ! A107  A(56,57,66)           116.8176                                         !
 ! A108  A(58,57,66)           120.9812                                         !
 ! A109  A(56,59,60)           115.341                                          !
 ! A110  A(56,59,70)           107.9078                                         !
 ! A111  A(56,59,71)           107.0724                                         !
 ! A112  A(60,59,70)           110.8129                                         !
 ! A113  A(60,59,71)           108.3273                                         !
 ! A114  A(70,59,71)           107.0123                                         !
 ! A115  A(59,60,61)           117.4533                                         !
 ! A116  A(59,60,72)           110.6668                                         !
 ! A117  A(59,60,73)           107.8909                                         !
 ! A118  A(61,60,72)           108.849                                          !
 ! A119  A(61,60,73)           105.3611                                         !
 ! A120  A(72,60,73)           105.8845                                         !
 ! A121  A(60,61,62)           114.8378                                         !
 ! A122  A(60,61,74)           108.6938                                         !
 ! A123  A(60,61,75)           110.3272                                         !
 ! A124  A(62,61,74)           108.8428                                         !
 ! A125  A(62,61,75)           106.9622                                         !
 ! A126  A(74,61,75)           106.8792                                         !
 ! A127  A(61,62,63)           126.4434                                         !
 ! A128  A(61,62,76)           114.763                                          !
 ! A129  A(63,62,76)           115.5047                                         !
 ! A130  A(62,63,64)           120.6295                                         !
 ! A131  A(62,63,65)           119.0808                                         !
 ! A132  A(64,63,65)           120.2864                                         !
 ! A133  A(63,64,77)           120.3664                                         !
 ! A134  A(63,64,78)           120.319                                          !
 ! A135  A(77,64,78)           116.8518                                         !
 ! A136  A(63,65,79)           122.2103                                         !
 ! A137  A(63,65,80)           118.3407                                         !
 ! A138  A(79,65,80)           117.4506                                         !
 ! A139  A(57,66,67)           115.9518                                         !
 ! D1    D(12,1,2,3)           -25.9732                                         !
 ! D2    D(12,1,2,5)          -151.8996                                         !
 ! D3    D(12,1,2,13)           87.4576                                         !
 ! D4    D(21,1,2,3)          -143.1832                                         !
 ! D5    D(21,1,2,5)            90.8905                                         !
 ! D6    D(21,1,2,13)          -29.7524                                         !
 ! D7    D(1,2,3,4)             17.0616                                         !
 ! D8    D(1,2,3,22)          -165.0936                                         !
 ! D9    D(5,2,3,4)            140.7859                                         !
 ! D10   D(5,2,3,22)           -41.3693                                         !
 ! D11   D(13,2,3,4)           -99.1108                                         !
 ! D12   D(13,2,3,22)           78.734                                          !
 ! D13   D(1,2,5,6)            -49.1158                                         !
 ! D14   D(1,2,5,14)          -170.2582                                         !
 ! D15   D(1,2,5,15)            73.2517                                         !
 ! D16   D(3,2,5,6)           -170.2476                                         !
 ! D17   D(3,2,5,14)            68.61                                           !
 ! D18   D(3,2,5,15)           -47.8801                                         !
 ! D19   D(13,2,5,6)            71.7211                                         !
 ! D20   D(13,2,5,14)          -49.4213                                         !
 ! D21   D(13,2,5,15)         -165.9114                                         !
 ! D22   D(2,3,22,23)         -175.3777                                         !
 ! D23   D(2,3,22,30)            0.279                                          !
 ! D24   D(4,3,22,23)            2.4141                                         !
 ! D25   D(4,3,22,30)          178.0708                                         !
 ! D26   D(2,5,6,7)            -46.1572                                         !
 ! D27   D(2,5,6,8)            134.5221                                         !
 ! D28   D(14,5,6,7)            75.0235                                         !
 ! D29   D(14,5,6,8)          -104.2972                                         !
 ! D30   D(15,5,6,7)          -167.8778                                         !
 ! D31   D(15,5,6,8)            12.8015                                         !
 ! D32   D(5,6,7,9)           -179.855                                          !
 ! D33   D(5,6,7,16)            -0.6121                                         !
 ! D34   D(8,6,7,9)             -0.5254                                         !
 ! D35   D(8,6,7,16)           178.7174                                         !
 ! D36   D(5,6,8,10)           178.8426                                         !
 ! D37   D(5,6,8,17)            -1.5186                                         !
 ! D38   D(7,6,8,10)            -0.5032                                         !
 ! D39   D(7,6,8,17)           179.1356                                         !
 ! D40   D(6,7,9,11)             0.8398                                         !
 ! D41   D(6,7,9,18)           179.7119                                         !
 ! D42   D(16,7,9,11)         -178.4103                                         !
 ! D43   D(16,7,9,18)            0.4617                                         !
 ! D44   D(6,8,10,11)            1.2214                                         !
 ! D45   D(6,8,10,19)         -178.3678                                         !
 ! D46   D(17,8,10,11)        -178.4155                                         !
 ! D47   D(17,8,10,19)           1.9953                                         !
 ! D48   D(7,9,11,10)           -0.119                                          !
 ! D49   D(7,9,11,20)          178.1382                                         !
 ! D50   D(18,9,11,10)        -178.9868                                         !
 ! D51   D(18,9,11,20)          -0.7296                                         !
 ! D52   D(8,10,11,9)           -0.8985                                         !
 ! D53   D(8,10,11,20)        -179.1513                                         !
 ! D54   D(19,10,11,9)         178.688                                          !
 ! D55   D(19,10,11,20)          0.4351                                         !
 ! D56   D(3,22,23,24)         -55.1217                                         !
 ! D57   D(3,22,23,26)        -179.3024                                         !
 ! D58   D(3,22,23,31)          59.8017                                         !
 ! D59   D(30,22,23,24)        129.1494                                         !
 ! D60   D(30,22,23,26)          4.9687                                         !
 ! D61   D(30,22,23,31)       -115.9272                                         !
 ! D62   D(22,23,24,25)        138.3911                                         !
 ! D63   D(22,23,24,41)        -43.7423                                         !
 ! D64   D(26,23,24,25)        -99.1074                                         !
 ! D65   D(26,23,24,41)         78.7591                                         !
 ! D66   D(31,23,24,25)         20.975                                          !
 ! D67   D(31,23,24,41)       -161.1584                                         !
 ! D68   D(22,23,26,27)        176.6143                                         !
 ! D69   D(22,23,26,32)        -61.3349                                         !
 ! D70   D(22,23,26,33)         54.3108                                         !
 ! D71   D(24,23,26,27)         52.8696                                         !
 ! D72   D(24,23,26,32)        174.9204                                         !
 ! D73   D(24,23,26,33)        -69.4338                                         !
 ! D74   D(31,23,26,27)        -63.6647                                         !
 ! D75   D(31,23,26,32)         58.3861                                         !
 ! D76   D(31,23,26,33)        174.0319                                         !
 ! D77   D(23,24,41,42)        147.0966                                         !
 ! D78   D(23,24,41,49)         13.5084                                         !
 ! D79   D(25,24,41,42)        -35.0888                                         !
 ! D80   D(25,24,41,49)       -168.6769                                         !
 ! D81   D(23,26,27,28)         55.8757                                         !
 ! D82   D(23,26,27,29)        179.9022                                         !
 ! D83   D(23,26,27,34)        -62.8209                                         !
 ! D84   D(32,26,27,28)        -65.6675                                         !
 ! D85   D(32,26,27,29)         58.3591                                         !
 ! D86   D(32,26,27,34)        175.6359                                         !
 ! D87   D(33,26,27,28)        177.9434                                         !
 ! D88   D(33,26,27,29)        -58.0301                                         !
 ! D89   D(33,26,27,34)         59.2468                                         !
 ! D90   D(26,27,28,35)         55.2011                                         !
 ! D91   D(26,27,28,36)        174.3176                                         !
 ! D92   D(26,27,28,37)        -66.2356                                         !
 ! D93   D(29,27,28,35)        -67.7835                                         !
 ! D94   D(29,27,28,36)         51.333                                          !
 ! D95   D(29,27,28,37)        170.7798                                         !
 ! D96   D(34,27,28,35)        173.8329                                         !
 ! D97   D(34,27,28,36)        -67.0506                                         !
 ! D98   D(34,27,28,37)         52.3962                                         !
 ! D99   D(26,27,29,38)        -64.1705                                         !
 ! D100  D(26,27,29,39)         56.1684                                         !
 ! D101  D(26,27,29,40)        176.4317                                         !
 ! D102  D(28,27,29,38)         60.5088                                         !
 ! D103  D(28,27,29,39)       -179.1523                                         !
 ! D104  D(28,27,29,40)        -58.8889                                         !
 ! D105  D(34,27,29,38)        178.7603                                         !
 ! D106  D(34,27,29,39)        -60.9008                                         !
 ! D107  D(34,27,29,40)         59.3626                                         !
 ! D108  D(24,41,42,43)       -107.4961                                         !
 ! D109  D(24,41,42,45)        128.2906                                         !
 ! D110  D(24,41,42,50)          9.0252                                         !
 ! D111  D(49,41,42,43)         27.4472                                         !
 ! D112  D(49,41,42,45)        -96.7661                                         !
 ! D113  D(49,41,42,50)        143.9685                                         !
 ! D114  D(41,42,43,44)        -19.6079                                         !
 ! D115  D(41,42,43,55)        158.079                                          !
 ! D116  D(45,42,43,44)        104.2629                                         !
 ! D117  D(45,42,43,55)        -78.0501                                         !
 ! D118  D(50,42,43,44)       -134.9841                                         !
 ! D119  D(50,42,43,55)         42.7029                                         !
 ! D120  D(41,42,45,46)       -160.9446                                         !
 ! D121  D(41,42,45,51)        -40.2086                                         !
 ! D122  D(41,42,45,52)         76.2141                                         !
 ! D123  D(43,42,45,46)         79.0764                                         !
 ! D124  D(43,42,45,51)       -160.1877                                         !
 ! D125  D(43,42,45,52)        -43.765                                          !
 ! D126  D(50,42,45,46)        -42.16                                           !
 ! D127  D(50,42,45,51)         78.5759                                         !
 ! D128  D(50,42,45,52)       -165.0013                                         !
 ! D129  D(42,43,55,56)       -167.3617                                         !
 ! D130  D(42,43,55,68)         10.3159                                         !
 ! D131  D(44,43,55,56)         10.3035                                         !
 ! D132  D(44,43,55,68)       -172.0189                                         !
 ! D133  D(42,45,46,47)        167.2406                                         !
 ! D134  D(42,45,46,48)        -13.1357                                         !
 ! D135  D(51,45,46,47)         47.6347                                         !
 ! D136  D(51,45,46,48)       -132.7416                                         !
 ! D137  D(52,45,46,47)        -68.9264                                         !
 ! D138  D(52,45,46,48)        110.6974                                         !
 ! D139  D(45,46,47,53)       -177.4349                                         !
 ! D140  D(45,46,47,54)         -6.8682                                         !
 ! D141  D(48,46,47,53)          2.9352                                         !
 ! D142  D(48,46,47,54)        173.5019                                         !
 ! D143  D(43,55,56,57)        -43.0827                                         !
 ! D144  D(43,55,56,59)       -163.9444                                         !
 ! D145  D(43,55,56,69)         76.1166                                         !
 ! D146  D(68,55,56,57)        139.3632                                         !
 ! D147  D(68,55,56,59)         18.5015                                         !
 ! D148  D(68,55,56,69)       -101.4376                                         !
 ! D149  D(55,56,57,58)        -71.8845                                         !
 ! D150  D(55,56,57,66)        121.1878                                         !
 ! D151  D(59,56,57,58)         50.0095                                         !
 ! D152  D(59,56,57,66)       -116.9182                                         !
 ! D153  D(69,56,57,58)        168.8278                                         !
 ! D154  D(69,56,57,66)          1.9001                                         !
 ! D155  D(55,56,59,60)       -173.0304                                         !
 ! D156  D(55,56,59,70)         62.4843                                         !
 ! D157  D(55,56,59,71)        -52.4063                                         !
 ! D158  D(57,56,59,60)         64.8079                                         !
 ! D159  D(57,56,59,70)        -59.6775                                         !
 ! D160  D(57,56,59,71)       -174.5681                                         !
 ! D161  D(69,56,59,60)        -53.4954                                         !
 ! D162  D(69,56,59,70)       -177.9808                                         !
 ! D163  D(69,56,59,71)         67.1286                                         !
 ! D164  D(56,57,66,67)        -34.388                                          !
 ! D165  D(58,57,66,67)        158.7005                                         !
 ! D166  D(56,59,60,61)        -99.2889                                         !
 ! D167  D(56,59,60,72)         26.5202                                         !
 ! D168  D(56,59,60,73)        141.9342                                         !
 ! D169  D(70,59,60,61)         23.6668                                         !
 ! D170  D(70,59,60,72)        149.4758                                         !
 ! D171  D(70,59,60,73)        -95.1101                                         !
 ! D172  D(71,59,60,61)        140.773                                          !
 ! D173  D(71,59,60,72)        -93.418                                          !
 ! D174  D(71,59,60,73)         21.9961                                         !
 ! D175  D(59,60,61,62)         75.3856                                         !
 ! D176  D(59,60,61,74)       -162.4515                                         !
 ! D177  D(59,60,61,75)        -45.5648                                         !
 ! D178  D(72,60,61,62)        -51.3138                                         !
 ! D179  D(72,60,61,74)         70.849                                          !
 ! D180  D(72,60,61,75)       -172.2642                                         !
 ! D181  D(73,60,61,62)       -164.4992                                         !
 ! D182  D(73,60,61,74)        -42.3363                                         !
 ! D183  D(73,60,61,75)         74.5504                                         !
 ! D184  D(60,61,62,63)         90.4778                                         !
 ! D185  D(60,61,62,76)        -67.9701                                         !
 ! D186  D(74,61,62,63)        -31.6044                                         !
 ! D187  D(74,61,62,76)        169.9476                                         !
 ! D188  D(75,61,62,63)       -146.7448                                         !
 ! D189  D(75,61,62,76)         54.8072                                         !
 ! D190  D(61,62,63,64)         31.5419                                         !
 ! D191  D(61,62,63,65)       -149.1133                                         !
 ! D192  D(76,62,63,64)       -170.1481                                         !
 ! D193  D(76,62,63,65)          9.1967                                         !
 ! D194  D(62,63,64,77)       -173.8301                                         !
 ! D195  D(62,63,64,78)         24.5317                                         !
 ! D196  D(65,63,64,77)          6.833                                          !
 ! D197  D(65,63,64,78)       -154.8052                                         !
 ! D198  D(62,63,65,79)       -167.2201                                         !
 ! D199  D(62,63,65,80)         29.2794                                         !
 ! D200  D(64,63,65,79)         12.127                                          !
 ! D201  D(64,63,65,80)       -151.3735                                         !
 --------------------------------------------------------------------------------
 Symmetry turned off by external request.
 Stoichiometry    C25H41N8O6(1+)
 Framework group  C1[X(C25H41N8O6)]
 Deg. of freedom   234
 Full point group                 C1      NOp   1
                          Input orientation:                          
 ---------------------------------------------------------------------
 Center     Atomic      Atomic             Coordinates (Angstroms)
 Number     Number       Type             X           Y           Z
 ---------------------------------------------------------------------
      1          7           0       -2.030346   13.691483   -6.740888
      2          6           0       -2.374473   13.742823   -8.182537
      3          6           0       -3.803036   13.166235   -8.313709
      4          8           0       -4.521707   13.074415   -7.320076
      5          6           0       -1.306587   13.032756   -9.039152
      6          6           0        0.117633   13.455472   -8.723678
      7          6           0        0.478358   14.802758   -8.578726
      8          6           0        1.115431   12.481466   -8.584038
      9          6           0        1.795130   15.167871   -8.291498
     10          6           0        2.438600   12.841839   -8.317763
     11          6           0        2.782350   14.187589   -8.160881
     12          1           0       -2.921671   13.723432   -6.235555
     13          1           0       -2.452984   14.792495   -8.502720
     14          1           0       -1.508123   13.245358  -10.098897
     15          1           0       -1.409362   11.955559   -8.896087
     16          1           0       -0.270391   15.582512   -8.702317
     17          1           0        0.850491   11.432226   -8.679233
     18          1           0        2.052850   16.218305   -8.188116
     19          1           0        3.199933   12.069482   -8.240085
     20          1           0        3.813154   14.473067   -7.967260
     21          1           0       -1.482846   14.512021   -6.488580
     22          7           0       -4.232036   12.817933   -9.551744
     23          6           0       -5.608893   12.355938   -9.786229
     24          6           0       -5.960022   11.157618   -8.880926
     25          8           0       -7.044750   11.071089   -8.332912
     26          6           0       -5.781200   12.022838  -11.277951
     27          6           0       -7.157171   11.445112  -11.663569
     28          6           0       -8.314195   12.364442  -11.246258
     29          6           0       -7.186677   11.164295  -13.172551
     30          1           0       -3.622950   12.934403  -10.349550
     31          1           0       -6.301493   13.145119   -9.483918
     32          1           0       -5.604210   12.942346  -11.855417
     33          1           0       -4.999075   11.306053  -11.568089
     34          1           0       -7.279062   10.488965  -11.136087
     35          1           0       -8.182592   13.373360  -11.659774
     36          1           0       -9.265970   11.974372  -11.623089
     37          1           0       -8.394904   12.436803  -10.157799
     38          1           0       -7.090128   12.095274  -13.746004
     39          1           0       -6.371857   10.495953  -13.476781
     40          1           0       -8.132646   10.693945  -13.461482
     41          7           0       -4.977314   10.192609   -8.787289
     42          6           0       -4.837135    9.469633   -7.530246
     43          6           0       -3.544003   10.003716   -6.882394
     44          8           0       -2.690208   10.584211   -7.568512
     45          6           0       -4.835039    7.941525   -7.720773
     46          6           0       -5.154344    7.188130   -6.428682
     47          7           0       -5.433011    5.871329   -6.581383
     48          8           0       -5.155214    7.724772   -5.318638
     49          1           0       -4.071426   10.484121   -9.143766
     50          1           0       -5.690568    9.736220   -6.900964
     51          1           0       -5.588191    7.702016   -8.479869
     52          1           0       -3.869853    7.594755   -8.112835
     53          1           0       -5.689408    5.336241   -5.762562
     54          1           0       -5.530334    5.438406   -7.487883
     55          7           0       -3.396837    9.862855   -5.555893
     56          6           0       -2.336916   10.590057   -4.880910
     57          6           0       -1.028202   10.532119   -5.687321
     58          8           0       -0.380737    9.496228   -5.759711
     59          6           0       -2.083596   10.001098   -3.479957
     60          6           0       -1.090618   10.797806   -2.594703
     61          6           0        0.365551   10.284852   -2.518154
     62          7           0        1.182137   10.563400   -3.709357
     63          6           0        1.936889   11.645667   -3.918792
     64          7           0        2.528600   12.282358   -2.885229
     65          7           0        2.110609   12.084402   -5.169185
     66          8           0       -0.505615   11.692039   -6.064561
     67          1           0       -1.201009   12.459144   -6.305674
     68          1           0       -4.066071    9.270718   -5.061291
     69          1           0       -2.639641   11.641410   -4.783473
     70          1           0       -1.748754    8.965467   -3.605392
     71          1           0       -3.051033    9.965308   -2.966227
     72          1           0       -1.078819   11.857617   -2.882759
     73          1           0       -1.462396   10.771207   -1.563937
     74          1           0        0.849112   10.732231   -1.646262
     75          1           0        0.379379    9.201326   -2.367965
     76          1           0        0.901238   10.051521   -4.551698
     77          1           0        3.020535   13.150878   -3.035171
     78          1           0        2.728865   11.786820   -2.028675
     79          1           0        2.811960   12.771646   -5.406088
     80          1           0        1.365758   11.915030   -5.851927
 ---------------------------------------------------------------------
 Rotational constants (GHZ):           0.1221821           0.0650044           0.0473292
 Standard basis: 6-31G(d) (6D, 7F)
   667 basis functions,  1256 primitive gaussians,   667 cartesian basis functions
   147 alpha electrons      147 beta electrons
       nuclear repulsion energy      4941.7558882501 Hartrees.
 NAtoms=   80 NActive=   80 NUniq=   80 SFac= 1.00D+00 NAtFMM=   60 NAOKFM=T Big=T
 Integral buffers will be    131072 words long.
 Raffenetti 2 integral format.
 Two-electron integral symmetry is turned off.
 Nuclear repulsion after empirical dispersion term =     4941.6419490052 Hartrees.
 One-electron integrals computed using PRISM.
 NBasis=   667 RedAO= T EigKep=  4.61D-04  NBF=   667
 NBsUse=   667 1.00D-06 EigRej= -1.00D+00 NBFU=   667
 Initial guess from the checkpoint file:  "conf-669.chk"
 B after Tr=     0.000000    0.000000    0.000000
         Rot=    1.000000    0.000000    0.000000    0.000000 Ang=   0.00 deg.
 Requested convergence on RMS density matrix=1.00D-08 within 128 cycles.
 Requested convergence on MAX density matrix=1.00D-06.
 Requested convergence on             energy=1.00D-06.
 No special actions if energy rises.
 SCF Done:  E(RB3LYP) =  -1866.74292464     A.U. after    3 cycles
            NFock=  3  Conv=0.10D-08     -V/T= 2.0094

 **********************************************************************

            Population analysis using the SCF Density.

 **********************************************************************

 Alpha  occ. eigenvalues --  -19.26193 -19.22292 -19.21372 -19.21124 -19.20673
 Alpha  occ. eigenvalues --  -19.18670 -14.51098 -14.49220 -14.49147 -14.45575
 Alpha  occ. eigenvalues --  -14.44834 -14.44699 -14.44381 -14.42369 -10.46508
 Alpha  occ. eigenvalues --  -10.41078 -10.38324 -10.38246 -10.37773 -10.35643
 Alpha  occ. eigenvalues --  -10.35003 -10.33394 -10.33374 -10.31627 -10.30997
 Alpha  occ. eigenvalues --  -10.30427 -10.29553 -10.29172 -10.28689 -10.28610
 Alpha  occ. eigenvalues --  -10.28326 -10.28299 -10.28251 -10.28229 -10.27896
 Alpha  occ. eigenvalues --  -10.26628 -10.25292 -10.23089 -10.22403  -1.18073
 Alpha  occ. eigenvalues --   -1.14818  -1.13586  -1.13033  -1.12178  -1.10461
 Alpha  occ. eigenvalues --   -1.09513  -1.04202  -1.03001  -1.01976  -1.01716
 Alpha  occ. eigenvalues --   -1.00860  -0.99431  -0.99155  -0.94706  -0.90776
 Alpha  occ. eigenvalues --   -0.88673  -0.87336  -0.86772  -0.84950  -0.83600
 Alpha  occ. eigenvalues --   -0.83046  -0.80484  -0.79563  -0.77025  -0.75703
 Alpha  occ. eigenvalues --   -0.74670  -0.73810  -0.72394  -0.72019  -0.71955
 Alpha  occ. eigenvalues --   -0.69826  -0.69342  -0.68539  -0.68129  -0.67908
 Alpha  occ. eigenvalues --   -0.66938  -0.66396  -0.64798  -0.64605  -0.63677
 Alpha  occ. eigenvalues --   -0.63463  -0.63047  -0.62417  -0.61745  -0.61279
 Alpha  occ. eigenvalues --   -0.60289  -0.60083  -0.59887  -0.58181  -0.57493
 Alpha  occ. eigenvalues --   -0.57195  -0.56019  -0.55659  -0.55307  -0.54950
 Alpha  occ. eigenvalues --   -0.54708  -0.54657  -0.53903  -0.53420  -0.52741
 Alpha  occ. eigenvalues --   -0.52701  -0.52242  -0.51615  -0.51305  -0.51015
 Alpha  occ. eigenvalues --   -0.50961  -0.50081  -0.49919  -0.49609  -0.49469
 Alpha  occ. eigenvalues --   -0.48907  -0.48275  -0.48045  -0.47625  -0.47193
 Alpha  occ. eigenvalues --   -0.46910  -0.46417  -0.46091  -0.45572  -0.45176
 Alpha  occ. eigenvalues --   -0.44854  -0.44632  -0.44390  -0.44297  -0.43651
 Alpha  occ. eigenvalues --   -0.43275  -0.42913  -0.42775  -0.42159  -0.41891
 Alpha  occ. eigenvalues --   -0.40029  -0.39254  -0.38768  -0.38649  -0.38486
 Alpha  occ. eigenvalues --   -0.38375  -0.36616  -0.36140  -0.35668  -0.35176
 Alpha  occ. eigenvalues --   -0.35072  -0.34777  -0.34531  -0.34261  -0.33468
 Alpha  occ. eigenvalues --   -0.32863  -0.31577
 Alpha virt. eigenvalues --   -0.11651  -0.10098  -0.09579  -0.08947  -0.07957
 Alpha virt. eigenvalues --   -0.06800  -0.06570  -0.05930  -0.05141  -0.03072
 Alpha virt. eigenvalues --   -0.02379  -0.01114  -0.00332  -0.00160   0.00020
 Alpha virt. eigenvalues --    0.00397   0.01553   0.01891   0.02242   0.02755
 Alpha virt. eigenvalues --    0.03469   0.03907   0.04347   0.04921   0.05337
 Alpha virt. eigenvalues --    0.05479   0.05577   0.05758   0.06267   0.06702
 Alpha virt. eigenvalues --    0.06746   0.06955   0.07247   0.07601   0.08046
 Alpha virt. eigenvalues --    0.08163   0.08512   0.08718   0.09467   0.09603
 Alpha virt. eigenvalues --    0.09783   0.09944   0.10448   0.10665   0.11227
 Alpha virt. eigenvalues --    0.11357   0.11565   0.11773   0.12103   0.12273
 Alpha virt. eigenvalues --    0.12958   0.13116   0.13548   0.13841   0.14821
 Alpha virt. eigenvalues --    0.15188   0.15536   0.15691   0.16149   0.16451
 Alpha virt. eigenvalues --    0.16843   0.17568   0.17810   0.18162   0.18286
 Alpha virt. eigenvalues --    0.19152   0.19407   0.19532   0.20998   0.21391
 Alpha virt. eigenvalues --    0.22009   0.22844   0.24112   0.24385   0.24970
 Alpha virt. eigenvalues --    0.25693   0.26292   0.26932   0.27736   0.28220
 Alpha virt. eigenvalues --    0.28564   0.29954   0.30367   0.31627   0.33037
 Alpha virt. eigenvalues --    0.34218   0.34511   0.36327   0.37518   0.37869
 Alpha virt. eigenvalues --    0.39859   0.40339   0.41174   0.41953   0.42752
 Alpha virt. eigenvalues --    0.42860   0.43064   0.44009   0.44472   0.44827
 Alpha virt. eigenvalues --    0.44899   0.45361   0.45574   0.45966   0.46211
 Alpha virt. eigenvalues --    0.46491   0.46539   0.47242   0.47419   0.48056
 Alpha virt. eigenvalues --    0.48383   0.48727   0.48906   0.49524   0.50405
 Alpha virt. eigenvalues --    0.50671   0.50978   0.51200   0.51709   0.51971
 Alpha virt. eigenvalues --    0.52165   0.52693   0.53100   0.53893   0.54006
 Alpha virt. eigenvalues --    0.54668   0.54903   0.55442   0.55850   0.56222
 Alpha virt. eigenvalues --    0.56677   0.56979   0.57366   0.57567   0.58187
 Alpha virt. eigenvalues --    0.58484   0.58791   0.59232   0.59550   0.60146
 Alpha virt. eigenvalues --    0.60400   0.61145   0.61406   0.61850   0.62815
 Alpha virt. eigenvalues --    0.63910   0.64071   0.64787   0.65101   0.66213
 Alpha virt. eigenvalues --    0.66502   0.66774   0.67138   0.67396   0.68020
 Alpha virt. eigenvalues --    0.68866   0.69379   0.70856   0.71392   0.71713
 Alpha virt. eigenvalues --    0.72118   0.72603   0.72645   0.73146   0.73702
 Alpha virt. eigenvalues --    0.74009   0.74517   0.74739   0.75024   0.75607
 Alpha virt. eigenvalues --    0.75791   0.76247   0.76521   0.76620   0.77176
 Alpha virt. eigenvalues --    0.77458   0.77911   0.78259   0.78503   0.78897
 Alpha virt. eigenvalues --    0.79038   0.79390   0.79597   0.79763   0.80263
 Alpha virt. eigenvalues --    0.80477   0.80675   0.81131   0.81289   0.81821
 Alpha virt. eigenvalues --    0.82655   0.83079   0.83603   0.83696   0.84211
 Alpha virt. eigenvalues --    0.84473   0.84730   0.85238   0.85352   0.85923
 Alpha virt. eigenvalues --    0.86474   0.86628   0.87025   0.87405   0.87832
 Alpha virt. eigenvalues --    0.87992   0.88573   0.88854   0.89558   0.90342
 Alpha virt. eigenvalues --    0.90639   0.90924   0.91953   0.92132   0.92368
 Alpha virt. eigenvalues --    0.93188   0.93476   0.93971   0.95053   0.95241
 Alpha virt. eigenvalues --    0.95630   0.96636   0.97484   0.98019   0.98396
 Alpha virt. eigenvalues --    0.98726   0.99497   1.01131   1.01651   1.02373
 Alpha virt. eigenvalues --    1.02937   1.04000   1.04524   1.05202   1.06101
 Alpha virt. eigenvalues --    1.06321   1.06804   1.07123   1.08670   1.09342
 Alpha virt. eigenvalues --    1.09432   1.10352   1.10637   1.12514   1.13403
 Alpha virt. eigenvalues --    1.14417   1.15536   1.16454   1.17085   1.17831
 Alpha virt. eigenvalues --    1.18463   1.18966   1.20279   1.21294   1.21737
 Alpha virt. eigenvalues --    1.22274   1.22543   1.23104   1.24520   1.25320
 Alpha virt. eigenvalues --    1.26204   1.27078   1.27253   1.29316   1.29621
 Alpha virt. eigenvalues --    1.30897   1.31376   1.31710   1.33017   1.33702
 Alpha virt. eigenvalues --    1.34244   1.34621   1.35133   1.36008   1.37143
 Alpha virt. eigenvalues --    1.38035   1.38830   1.39063   1.39324   1.39821
 Alpha virt. eigenvalues --    1.40200   1.40295   1.41019   1.42189   1.42477
 Alpha virt. eigenvalues --    1.42777   1.44810   1.45308   1.46790   1.48187
 Alpha virt. eigenvalues --    1.49721   1.51771   1.52442   1.53675   1.53776
 Alpha virt. eigenvalues --    1.54940   1.55280   1.56744   1.57313   1.57908
 Alpha virt. eigenvalues --    1.58128   1.59330   1.59911   1.60271   1.61886
 Alpha virt. eigenvalues --    1.62831   1.63534   1.65106   1.65660   1.66224
 Alpha virt. eigenvalues --    1.66856   1.67236   1.67994   1.68119   1.69160
 Alpha virt. eigenvalues --    1.69690   1.70241   1.70556   1.70901   1.71525
 Alpha virt. eigenvalues --    1.71986   1.72154   1.73019   1.73736   1.74238
 Alpha virt. eigenvalues --    1.74858   1.75303   1.76057   1.76395   1.76721
 Alpha virt. eigenvalues --    1.77353   1.78327   1.78685   1.79443   1.80613
 Alpha virt. eigenvalues --    1.81041   1.81106   1.81748   1.82312   1.82574
 Alpha virt. eigenvalues --    1.83685   1.84179   1.84487   1.84856   1.85434
 Alpha virt. eigenvalues --    1.86095   1.86597   1.86939   1.88107   1.88947
 Alpha virt. eigenvalues --    1.89780   1.90149   1.90415   1.90754   1.91460
 Alpha virt. eigenvalues --    1.92475   1.93142   1.93202   1.93810   1.94334
 Alpha virt. eigenvalues --    1.94964   1.96041   1.96661   1.96811   1.96981
 Alpha virt. eigenvalues --    1.98044   1.98574   1.99148   1.99609   2.00243
 Alpha virt. eigenvalues --    2.01283   2.01577   2.01860   2.03012   2.04205
 Alpha virt. eigenvalues --    2.04870   2.05232   2.05553   2.05994   2.06625
 Alpha virt. eigenvalues --    2.06809   2.08043   2.08953   2.10874   2.11526
 Alpha virt. eigenvalues --    2.12801   2.13597   2.13806   2.14916   2.15263
 Alpha virt. eigenvalues --    2.16110   2.16679   2.17287   2.18380   2.18696
 Alpha virt. eigenvalues --    2.19279   2.19552   2.21286   2.21382   2.21770
 Alpha virt. eigenvalues --    2.21998   2.22396   2.23535   2.25491   2.26421
 Alpha virt. eigenvalues --    2.26858   2.28186   2.28942   2.29448   2.30810
 Alpha virt. eigenvalues --    2.31457   2.32259   2.34691   2.35372   2.36227
 Alpha virt. eigenvalues --    2.36847   2.37155   2.37958   2.39002   2.39960
 Alpha virt. eigenvalues --    2.41008   2.41828   2.42493   2.44232   2.44509
 Alpha virt. eigenvalues --    2.45212   2.45771   2.46702   2.46814   2.47890
 Alpha virt. eigenvalues --    2.48681   2.49706   2.50426   2.51142   2.52495
 Alpha virt. eigenvalues --    2.52991   2.53653   2.54475   2.54934   2.55420
 Alpha virt. eigenvalues --    2.55931   2.56435   2.56527   2.58051   2.60177
 Alpha virt. eigenvalues --    2.60418   2.61453   2.62220   2.63156   2.63740
 Alpha virt. eigenvalues --    2.65233   2.65658   2.65835   2.66477   2.67027
 Alpha virt. eigenvalues --    2.69013   2.69938   2.71902   2.75204   2.76249
 Alpha virt. eigenvalues --    2.78370   2.80523   2.81089   2.84658   2.85947
 Alpha virt. eigenvalues --    2.87978   2.88668   2.89388   2.92685   2.93339
 Alpha virt. eigenvalues --    2.94668   2.96621   2.97022   2.97153   2.98357
 Alpha virt. eigenvalues --    2.99735   3.02100   3.04704   3.11383   3.13169
 Alpha virt. eigenvalues --    3.31627   3.67776   3.72565   3.78623   3.81611
 Alpha virt. eigenvalues --    3.90074   3.91327   3.95058   3.98071   4.00575
 Alpha virt. eigenvalues --    4.01370   4.03318   4.05232   4.08023   4.08396
 Alpha virt. eigenvalues --    4.10141   4.10902   4.12511   4.16135   4.19055
 Alpha virt. eigenvalues --    4.21240   4.23566   4.24378   4.25053   4.26896
 Alpha virt. eigenvalues --    4.29100   4.31820   4.33222   4.37591   4.39567
 Alpha virt. eigenvalues --    4.43139   4.45234   4.46319   4.53365   4.56309
 Alpha virt. eigenvalues --    4.58361   4.60990   4.62334   4.63978   4.68116
          Condensed to atoms (all electrons):
 Mulliken charges:
               1
     1  N   -0.818642
     2  C   -0.067613
     3  C    0.672339
     4  O   -0.538691
     5  C   -0.390430
     6  C    0.171105
     7  C   -0.199541
     8  C   -0.187284
     9  C   -0.130148
    10  C   -0.160818
    11  C   -0.152170
    12  H    0.366747
    13  H    0.174082
    14  H    0.155114
    15  H    0.214380
    16  H    0.133876
    17  H    0.158572
    18  H    0.150532
    19  H    0.148232
    20  H    0.145009
    21  H    0.336727
    22  N   -0.657189
    23  C   -0.016766
    24  C    0.618235
    25  O   -0.499927
    26  C   -0.307174
    27  C   -0.078838
    28  C   -0.462610
    29  C   -0.445405
    30  H    0.340425
    31  H    0.196669
    32  H    0.146901
    33  H    0.137662
    34  H    0.147368
    35  H    0.135980
    36  H    0.153997
    37  H    0.178455
    38  H    0.145017
    39  H    0.139891
    40  H    0.156960
    41  N   -0.599175
    42  C   -0.070978
    43  C    0.638155
    44  O   -0.571002
    45  C   -0.384212
    46  C    0.628598
    47  N   -0.739761
    48  O   -0.533413
    49  H    0.342984
    50  H    0.216228
    51  H    0.195027
    52  H    0.189893
    53  H    0.359324
    54  H    0.353934
    55  N   -0.630238
    56  C    0.010076
    57  C    0.649839
    58  O   -0.518407
    59  C   -0.319625
    60  C   -0.279314
    61  C   -0.166781
    62  N   -0.607151
    63  C    0.774987
    64  N   -0.750560
    65  N   -0.779988
    66  O   -0.675956
    67  H    0.511292
    68  H    0.392864
    69  H    0.153196
    70  H    0.185489
    71  H    0.173844
    72  H    0.152961
    73  H    0.175954
    74  H    0.160532
    75  H    0.197656
    76  H    0.406491
    77  H    0.372928
    78  H    0.379754
    79  H    0.358486
    80  H    0.435038
 Sum of Mulliken charges =   1.00000
 Mulliken charges with hydrogens summed into heavy atoms:
               1
     1  N   -0.115168
     2  C    0.106469
     3  C    0.672339
     4  O   -0.538691
     5  C   -0.020936
     6  C    0.171105
     7  C   -0.065665
     8  C   -0.028712
     9  C    0.020384
    10  C   -0.012586
    11  C   -0.007161
    22  N   -0.316765
    23  C    0.179903
    24  C    0.618235
    25  O   -0.499927
    26  C   -0.022610
    27  C    0.068531
    28  C    0.005822
    29  C   -0.003536
    41  N   -0.256192
    42  C    0.145250
    43  C    0.638155
    44  O   -0.571002
    45  C    0.000708
    46  C    0.628598
    47  N   -0.026503
    48  O   -0.533413
    55  N   -0.237375
    56  C    0.163272
    57  C    0.649839
    58  O   -0.518407
    59  C    0.039709
    60  C    0.049601
    61  C    0.191408
    62  N   -0.200660
    63  C    0.774987
    64  N    0.002122
    65  N    0.013536
    66  O   -0.164664
 Electronic spatial extent (au):  <R**2>=         219307.3196
 Charge=              1.0000 electrons
 Dipole moment (field-independent basis, Debye):
    X=              0.4903    Y=             55.8924    Z=            -26.9648  Tot=             62.0589
 Quadrupole moment (field-independent basis, Debye-Ang):
   XX=           -192.9951   YY=            481.8286   ZZ=            -11.0871
   XY=             43.3795   XZ=             40.9338   YZ=           -314.8487
 Traceless Quadrupole moment (field-independent basis, Debye-Ang):
   XX=           -285.5772   YY=            389.2464   ZZ=           -103.6692
   XY=             43.3795   XZ=             40.9338   YZ=           -314.8487
 Octapole moment (field-independent basis, Debye-Ang**2):
  XXX=           1819.6691  YYY=           1652.6362  ZZZ=           2948.3772  XYY=           1264.7643
  XXY=          -2333.6541  XXZ=           1357.6451  XZZ=            -58.1778  YZZ=            -57.1877
  YYZ=          -2441.6493  XYZ=            233.5563
 Hexadecapole moment (field-independent basis, Debye-Ang**3):
 XXXX=         -23267.4792 YYYY=         -54301.6757 ZZZZ=         -62143.1338 XXXY=          20163.9370
 XXXZ=         -15445.7321 YYYX=          26843.2518 YYYZ=           1425.0873 ZZZX=          -7818.6330
 ZZZY=          33860.4914 XXYY=         -31449.8002 XXZZ=         -14052.5220 YYZZ=         -11362.9740
 XXYZ=          16862.4751 YYXZ=          -3440.9266 ZZXY=            171.4603
 N-N= 4.941641949005D+03 E-N=-1.420376164330D+04  KE= 1.849277304115D+03
 Unable to Open any file for archive entry.
 1\1\GINC-LAC-303\SP\RB3LYP\6-31G(d)\C25H41N8O6(1+)\KENGMITH\11-Jun-202
 2\0\\# B3LYP/6-31G* empiricaldispersion=gd3 guess=read geom=check nosy
 mm integral(ultrafinegrid)\\Candidate Structure: Conf:669 Charge calc 
 in gas phase\\1,1\N,0,-2.0303459644,13.6914834189,-6.7408877923\C,0,-2
 .3744730554,13.7428228793,-8.1825368485\C,0,-3.8030364306,13.166235145
 4,-8.3137092564\O,0,-4.5217074171,13.074414958,-7.3200763853\C,0,-1.30
 65871696,13.0327562582,-9.039151816\C,0,0.1176326518,13.4554721864,-8.
 7236784739\C,0,0.4783579709,14.8027578926,-8.5787258645\C,0,1.11543070
 66,12.4814656548,-8.5840375172\C,0,1.7951301301,15.1678714965,-8.29149
 75291\C,0,2.4385997077,12.8418388189,-8.3177634758\C,0,2.7823496109,14
 .1875889402,-8.1608813001\H,0,-2.9216709774,13.7234323145,-6.235555367
 3\H,0,-2.4529835957,14.7924949558,-8.5027200814\H,0,-1.5081228055,13.2
 453583271,-10.0988971605\H,0,-1.4093623797,11.9555586184,-8.8960865911
 \H,0,-0.2703909084,15.5825117578,-8.7023174926\H,0,0.8504914311,11.432
 2263857,-8.6792333767\H,0,2.0528497185,16.2183046267,-8.1881158701\H,0
 ,3.199932776,12.0694820022,-8.240085162\H,0,3.8131540336,14.4730673301
 ,-7.9672596048\H,0,-1.4828455992,14.5120205621,-6.4885795656\N,0,-4.23
 2035652,12.8179333638,-9.5517440299\C,0,-5.6088927302,12.3559379395,-9
 .7862294225\C,0,-5.9600223255,11.1576179566,-8.8809256986\O,0,-7.04475
 01003,11.0710889358,-8.3329116421\C,0,-5.7811995741,12.0228382129,-11.
 2779513493\C,0,-7.1571706893,11.4451117598,-11.6635694429\C,0,-8.31419
 51275,12.3644423992,-11.2462579803\C,0,-7.1866766207,11.1642946193,-13
 .1725514075\H,0,-3.6229495529,12.9344026533,-10.3495495769\H,0,-6.3014
 929102,13.1451189093,-9.4839177843\H,0,-5.6042098224,12.9423459136,-11
 .8554172847\H,0,-4.9990754165,11.306052658,-11.5680890941\H,0,-7.27906
 17102,10.4889650679,-11.1360869447\H,0,-8.1825923294,13.373360033,-11.
 6597743351\H,0,-9.2659703107,11.9743717684,-11.6230891904\H,0,-8.39490
 42752,12.4368029301,-10.157798563\H,0,-7.0901278507,12.0952736161,-13.
 7460039188\H,0,-6.371856757,10.4959528663,-13.4767807158\H,0,-8.132645
 7619,10.6939446106,-13.4614817732\N,0,-4.9773138042,10.1926089998,-8.7
 872894411\C,0,-4.8371345022,9.4696327997,-7.5302462224\C,0,-3.54400251
 96,10.003715825,-6.8823939818\O,0,-2.6902075396,10.5842106186,-7.56851
 16228\C,0,-4.8350387541,7.9415253375,-7.7207729289\C,0,-5.1543436619,7
 .1881296919,-6.4286820584\N,0,-5.4330110379,5.8713293964,-6.5813832895
 \O,0,-5.1552141104,7.7247715454,-5.3186378376\H,0,-4.0714255944,10.484
 1208404,-9.1437655552\H,0,-5.6905676181,9.7362195408,-6.9009639688\H,0
 ,-5.588191236,7.7020159382,-8.4798691823\H,0,-3.8698529798,7.594755264
 3,-8.1128354854\H,0,-5.689407845,5.3362414624,-5.7625623338\H,0,-5.530
 3343414,5.4384059595,-7.4878827452\N,0,-3.3968367987,9.8628551528,-5.5
 558931304\C,0,-2.3369159046,10.5900574577,-4.8809096132\C,0,-1.0282016
 869,10.5321191883,-5.6873207058\O,0,-0.3807368358,9.4962283539,-5.7597
 114991\C,0,-2.0835964826,10.001097504,-3.4799572449\C,0,-1.0906178537,
 10.7978060946,-2.5947031204\C,0,0.3655511383,10.2848519357,-2.51815367
 68\N,0,1.1821372961,10.5633999952,-3.7093574348\C,0,1.9368886863,11.64
 5666502,-3.9187922065\N,0,2.5286003012,12.2823584559,-2.885228974\N,0,
 2.1106085713,12.0844021912,-5.1691853094\O,0,-0.5056145178,11.69203862
 77,-6.064560962\H,0,-1.2010090115,12.4591440786,-6.305674224\H,0,-4.06
 60708594,9.2707181437,-5.0612908389\H,0,-2.639640562,11.641409648,-4.7
 834725539\H,0,-1.7487542338,8.9654668895,-3.6053923411\H,0,-3.05103262
 83,9.9653081188,-2.9662271519\H,0,-1.0788189234,11.857617024,-2.882758
 9305\H,0,-1.4623956768,10.77120655,-1.5639369982\H,0,0.8491115397,10.7
 322311568,-1.6462615883\H,0,0.3793788767,9.2013262511,-2.3679649285\H,
 0,0.9012375932,10.0515210073,-4.5516984932\H,0,3.0205350336,13.1508780
 086,-3.0351714902\H,0,2.7288646472,11.7868204494,-2.0286749592\H,0,2.8
 119600527,12.7716461009,-5.4060878851\H,0,1.3657580762,11.9150298011,-
 5.8519273612\\Version=ES64L-G16RevC.01\HF=-1866.7429246\RMSD=1.002e-09
 \Dipole=4.9291321,0.57826,3.0831723\Quadrupole=-212.3196553,289.395193
 2,-77.0755379,32.2515691,30.4332502,-234.0823269\PG=C01 [X(C25H41N8O6)
 ]\\@
 The archive entry for this job was punched.


 WHERE THERE IS MUCH DESIRE TO LEARN, THERE OF NECESSITY WILL BE
 MUCH ARGUING, MUCH WRITING, MANY OPINIONS; FOR OPINION IN GOOD MEN
 IS BUT KNOWLEDGE IN THE MAKING. -- JOHN MILTON.
 Job cpu time:       0 days  0 hours  5 minutes 14.9 seconds.
 Elapsed time:       0 days  0 hours  1 minutes 19.5 seconds.
 File lengths (MBytes):  RWF=    344 Int=      0 D2E=      0 Chk=     56 Scr=     16
 Normal termination of Gaussian 16 at Sat Jun 11 21:07:42 2022.
