 Entering Gaussian System, Link 0=/opt/software/Gaussian/g16-AVX2-C.01/g16/g16
 Input=charge-conf-731.com
 Output=charge-conf-731.log
 Initial command:
 /opt/software/Gaussian/g16-AVX2-C.01/g16/l1.exe "/mnt/gs18/scratch/users/kengmith/Gau-5568.inp" -scrdir="/mnt/gs18/scratch/users/kengmith/"
 Entering Link 1 = /opt/software/Gaussian/g16-AVX2-C.01/g16/l1.exe PID=      5582.
  
 Copyright (c) 1988-2019, Gaussian, Inc.  All Rights Reserved.
  
 This is part of the Gaussian(R) 16 program.  It is based on
 the Gaussian(R) 09 system (copyright 2009, Gaussian, Inc.),
 the Gaussian(R) 03 system (copyright 2003, Gaussian, Inc.),
 the Gaussian(R) 98 system (copyright 1998, Gaussian, Inc.),
 the Gaussian(R) 94 system (copyright 1995, Gaussian, Inc.),
 the Gaussian 92(TM) system (copyright 1992, Gaussian, Inc.),
 the Gaussian 90(TM) system (copyright 1990, Gaussian, Inc.),
 the Gaussian 88(TM) system (copyright 1988, Gaussian, Inc.),
 the Gaussian 86(TM) system (copyright 1986, Carnegie Mellon
 University), and the Gaussian 82(TM) system (copyright 1983,
 Carnegie Mellon University). Gaussian is a federally registered
 trademark of Gaussian, Inc.
  
 This software contains proprietary and confidential information,
 including trade secrets, belonging to Gaussian, Inc.
  
 This software is provided under written license and may be
 used, copied, transmitted, or stored only in accord with that
 written license.
  
 The following legend is applicable only to US Government
 contracts under FAR:
  
                    RESTRICTED RIGHTS LEGEND
  
 Use, reproduction and disclosure by the US Government is
 subject to restrictions as set forth in subparagraphs (a)
 and (c) of the Commercial Computer Software - Restricted
 Rights clause in FAR 52.227-19.
  
 Gaussian, Inc.
 340 Quinnipiac St., Bldg. 40, Wallingford CT 06492
  
  
 ---------------------------------------------------------------
 Warning -- This program may not be used in any manner that
 competes with the business of Gaussian, Inc. or will provide
 assistance to any competitor of Gaussian, Inc.  The licensee
 of this program is prohibited from giving any competitor of
 Gaussian, Inc. access to this program.  By using this program,
 the user acknowledges that Gaussian, Inc. is engaged in the
 business of creating and licensing software in the field of
 computational chemistry and represents and warrants to the
 licensee that it is not a competitor of Gaussian, Inc. and that
 it will not use this program in any manner prohibited above.
 ---------------------------------------------------------------
  

 Cite this work as:
 Gaussian 16, Revision C.01,
 M. J. Frisch, G. W. Trucks, H. B. Schlegel, G. E. Scuseria, 
 M. A. Robb, J. R. Cheeseman, G. Scalmani, V. Barone, 
 G. A. Petersson, H. Nakatsuji, X. Li, M. Caricato, A. V. Marenich, 
 J. Bloino, B. G. Janesko, R. Gomperts, B. Mennucci, H. P. Hratchian, 
 J. V. Ortiz, A. F. Izmaylov, J. L. Sonnenberg, D. Williams-Young, 
 F. Ding, F. Lipparini, F. Egidi, J. Goings, B. Peng, A. Petrone, 
 T. Henderson, D. Ranasinghe, V. G. Zakrzewski, J. Gao, N. Rega, 
 G. Zheng, W. Liang, M. Hada, M. Ehara, K. Toyota, R. Fukuda, 
 J. Hasegawa, M. Ishida, T. Nakajima, Y. Honda, O. Kitao, H. Nakai, 
 T. Vreven, K. Throssell, J. A. Montgomery, Jr., J. E. Peralta, 
 F. Ogliaro, M. J. Bearpark, J. J. Heyd, E. N. Brothers, K. N. Kudin, 
 V. N. Staroverov, T. A. Keith, R. Kobayashi, J. Normand, 
 K. Raghavachari, A. P. Rendell, J. C. Burant, S. S. Iyengar, 
 J. Tomasi, M. Cossi, J. M. Millam, M. Klene, C. Adamo, R. Cammi, 
 J. W. Ochterski, R. L. Martin, K. Morokuma, O. Farkas, 
 J. B. Foresman, and D. J. Fox, Gaussian, Inc., Wallingford CT, 2019.
 
 ******************************************
 Gaussian 16:  ES64L-G16RevC.01  3-Jul-2019
                11-Jun-2022 
 ******************************************
 %mem=8gb
 %nproc=4
 Will use up to    4 processors via shared memory.
 %chk=conf-731.chk
 ----------------------------------------------------------------------
 # B3LYP/6-31G* empiricaldispersion=gd3 guess=read geom=check nosymm in
 tegral(ultrafinegrid)
 ----------------------------------------------------------------------
 1/29=2,38=1,172=1/1;
 2/12=2,15=1,40=1/2;
 3/5=1,6=6,7=1,11=2,14=-4,25=1,30=1,74=-5,75=-5,116=-2,124=31/1,2,3;
 4/5=1/1;
 5/5=2,38=6/2;
 6/7=2,8=2,9=2,10=2,28=1/1;
 99/5=1,9=1/99;
 ------------------------------------------------------
 Candidate Structure: Conf:731 Charge calc in gas phase
 ------------------------------------------------------
 Structure from the checkpoint file:  "conf-731.chk"
 Charge =  1 Multiplicity = 1
 Redundant internal coordinates found in file.  (old form).
 N,0,-2.0320184338,11.4952630536,-10.3271549012
 C,0,-2.9280307049,10.4947473385,-9.7828079722
 C,0,-4.0080199093,11.0893741404,-8.8565520334
 O,0,-3.9846213694,12.2726116764,-8.4745606927
 C,0,-2.1269626743,9.3932665552,-9.0360106559
 C,0,-1.0496119613,8.7708894648,-9.891903376
 C,0,-1.35750074,7.7643747273,-10.8143043433
 C,0,0.2773834389,9.2029874441,-9.7840403221
 C,0,-0.3640245916,7.2028679054,-11.6167327716
 C,0,1.2746469435,8.6434686447,-10.5831848279
 C,0,0.9566801218,7.6419932156,-11.5027107736
 H,0,-1.3835130576,11.8197090193,-9.6121636944
 H,0,-3.4577073559,10.0190151254,-10.6223156718
 H,0,-2.827015645,8.6212893771,-8.6920379183
 H,0,-1.6908504558,9.8389030907,-8.1388078266
 H,0,-2.3843333742,7.4136617522,-10.9032317393
 H,0,0.5229858129,9.9853277544,-9.0691286407
 H,0,-0.6188055361,6.4198937934,-12.3257985435
 H,0,2.3015675744,8.9870356914,-10.4879987406
 H,0,1.7327884789,7.2035113532,-12.1238006922
 H,0,-2.5578832712,12.300331579,-10.6591601576
 N,0,-5.0228342379,10.2800946818,-8.4755353435
 C,0,-6.1762119582,10.7736420628,-7.7136935197
 C,0,-5.798079175,11.2746253916,-6.3066563092
 O,0,-6.4048195013,12.2029404425,-5.7988399071
 C,0,-7.262834367,9.6910083681,-7.6119621512
 C,0,-7.8503994747,9.2014380336,-8.9518770907
 C,0,-8.9119307739,8.1251783355,-8.6807155465
 C,0,-8.432728635,10.3500536135,-9.7866850292
 H,0,-5.0774650194,9.3550665384,-8.8814239898
 H,0,-6.5709816042,11.6620430271,-8.2129015835
 H,0,-6.8591168961,8.8365657978,-7.0505120765
 H,0,-8.0700260177,10.1127091638,-7.0007883966
 H,0,-7.0483560103,8.7279089111,-9.541482802
 H,0,-9.7523372678,8.54516966,-8.1142071665
 H,0,-9.3095337731,7.7218818651,-9.6182117368
 H,0,-8.5005526099,7.2903181928,-8.1011651215
 H,0,-9.2037427136,10.8882544507,-9.2212692004
 H,0,-7.6674638608,11.074940632,-10.0857248745
 H,0,-8.8963072142,9.9657919443,-10.7015927942
 N,0,-4.8093063859,10.5646680961,-5.6607782026
 C,0,-4.0485326764,11.2233886179,-4.6083408725
 C,0,-2.653015874,11.4979547628,-5.1997211666
 O,0,-2.2399593556,10.840158441,-6.1609581283
 C,0,-4.0092081851,10.4065816464,-3.3055866573
 C,0,-3.5973659477,11.2547745612,-2.1006940366
 N,0,-3.7200313238,10.6454141338,-0.8968112262
 O,0,-3.1765834336,12.4088774317,-2.2035036529
 H,0,-4.2315244326,9.9851245693,-6.2620182767
 H,0,-4.5444712232,12.1752616897,-4.4018871917
 H,0,-5.0123392799,9.9985054288,-3.1363729815
 H,0,-3.3314649637,9.5476860425,-3.3979470945
 H,0,-3.5118041121,11.1798697033,-0.0639788685
 H,0,-4.1542539882,9.7404854008,-0.7891782757
 N,0,-1.9471225268,12.5333329122,-4.704689335
 C,0,-0.7882933292,13.0407723808,-5.431851048
 C,0,-1.083305707,12.8925824046,-6.9393955673
 O,0,-0.3349534788,12.3595588017,-7.747581282
 C,0,0.5621349702,12.4266033155,-5.0119644621
 C,0,1.7659088875,13.3898335848,-5.0716943566
 C,0,2.3215762223,13.7501064841,-6.459256947
 N,0,1.3803780116,14.4936083759,-7.3209864603
 C,0,0.9155136686,15.7237525964,-7.1066558559
 N,0,1.6557318261,16.6262280083,-6.4392157748
 N,0,-0.3014429435,16.0664459842,-7.5599481751
 O,0,-2.1745486318,13.584037439,-7.2786484964
 H,0,-2.728404002,13.1088792452,-7.9936741731
 H,0,-2.2841012337,12.9678820464,-3.8468123103
 H,0,-0.7747493032,14.1218399816,-5.2359454911
 H,0,0.7481467806,11.5282337792,-5.6092861913
 H,0,0.4558681687,12.104631351,-3.9712423132
 H,0,1.5224119802,14.3160768961,-4.5319340535
 H,0,2.5986158054,12.9320428921,-4.5238508749
 H,0,3.2517749145,14.3200068172,-6.3592455606
 H,0,2.5672617613,12.8464040421,-7.0210803377
 H,0,0.8180634065,13.8958322101,-7.9221844308
 H,0,1.2677037374,17.5118985765,-6.1487852257
 H,0,2.650769134,16.4962141933,-6.3276002916
 H,0,-0.5813936724,17.0351797544,-7.6239852462
 H,0,-1.0148997449,15.3602400868,-7.7349668337
 Recover connectivity data from disk.
                           ----------------------------
                           !    Current Parameters    !
                           ! (Angstroms and Degrees)  !
 --------------------------                            --------------------------
 ! Name  Definition              Value                                          !
 --------------------------------------------------------------------------------
 ! R1    R(1,2)                  1.4492                                         !
 ! R2    R(1,12)                 1.0184                                         !
 ! R3    R(1,21)                 1.0173                                         !
 ! R4    R(2,3)                  1.542                                          !
 ! R5    R(2,5)                  1.5533                                         !
 ! R6    R(2,13)                 1.1008                                         !
 ! R7    R(3,4)                  1.2436                                         !
 ! R8    R(3,22)                 1.3528                                         !
 ! R9    R(5,6)                  1.5102                                         !
 ! R10   R(5,14)                 1.0974                                         !
 ! R11   R(5,15)                 1.0926                                         !
 ! R12   R(6,7)                  1.3995                                         !
 ! R13   R(6,8)                  1.3997                                         !
 ! R14   R(7,9)                  1.3951                                         !
 ! R15   R(7,16)                 1.0887                                         !
 ! R16   R(8,10)                 1.3951                                         !
 ! R17   R(8,17)                 1.0879                                         !
 ! R18   R(9,11)                 1.3965                                         !
 ! R19   R(9,18)                 1.0866                                         !
 ! R20   R(10,11)                1.3963                                         !
 ! R21   R(10,19)                1.087                                          !
 ! R22   R(11,20)                1.0864                                         !
 ! R23   R(22,23)                1.4677                                         !
 ! R24   R(22,30)                1.0116                                         !
 ! R25   R(23,24)                1.5407                                         !
 ! R26   R(23,26)                1.5373                                         !
 ! R27   R(23,31)                1.0928                                         !
 ! R28   R(24,25)                1.2197                                         !
 ! R29   R(24,41)                1.378                                          !
 ! R30   R(26,27)                1.5428                                         !
 ! R31   R(26,32)                1.0992                                         !
 ! R32   R(26,33)                1.0968                                         !
 ! R33   R(27,28)                1.5358                                         !
 ! R34   R(27,29)                1.5347                                         !
 ! R35   R(27,34)                1.1023                                         !
 ! R36   R(28,35)                1.0971                                         !
 ! R37   R(28,36)                1.0953                                         !
 ! R38   R(28,37)                1.0964                                         !
 ! R39   R(29,38)                1.0972                                         !
 ! R40   R(29,39)                1.0957                                         !
 ! R41   R(29,40)                1.0953                                         !
 ! R42   R(41,42)                1.4561                                         !
 ! R43   R(41,49)                1.0155                                         !
 ! R44   R(42,43)                1.5403                                         !
 ! R45   R(42,45)                1.5381                                         !
 ! R46   R(42,50)                1.093                                          !
 ! R47   R(43,44)                1.2358                                         !
 ! R48   R(43,55)                1.3473                                         !
 ! R49   R(45,46)                1.53                                           !
 ! R50   R(45,51)                1.0961                                         !
 ! R51   R(45,52)                1.098                                          !
 ! R52   R(46,47)                1.3549                                         !
 ! R53   R(46,48)                1.2327                                         !
 ! R54   R(47,53)                1.0112                                         !
 ! R55   R(47,54)                1.0095                                         !
 ! R56   R(55,56)                1.4592                                         !
 ! R57   R(55,68)                1.019                                          !
 ! R58   R(56,57)                1.5433                                         !
 ! R59   R(56,59)                1.5418                                         !
 ! R60   R(56,69)                1.0988                                         !
 ! R61   R(57,58)                1.2236                                         !
 ! R62   R(57,66)                1.3357                                         !
 ! R63   R(59,60)                1.5429                                         !
 ! R64   R(59,70)                1.0947                                         !
 ! R65   R(59,71)                1.0946                                         !
 ! R66   R(60,61)                1.5375                                         !
 ! R67   R(60,72)                1.0993                                         !
 ! R68   R(60,73)                1.0969                                         !
 ! R69   R(61,62)                1.4769                                         !
 ! R70   R(61,74)                1.0955                                         !
 ! R71   R(61,75)                1.0921                                         !
 ! R72   R(62,63)                1.3324                                         !
 ! R73   R(62,76)                1.0173                                         !
 ! R74   R(63,64)                1.3446                                         !
 ! R75   R(63,65)                1.3431                                         !
 ! R76   R(64,77)                1.0096                                         !
 ! R77   R(64,78)                1.0097                                         !
 ! R78   R(65,79)                1.0104                                         !
 ! R79   R(65,80)                1.019                                          !
 ! R80   R(66,67)                1.0217                                         !
 ! A1    A(2,1,12)             110.4853                                         !
 ! A2    A(2,1,21)             110.4472                                         !
 ! A3    A(12,1,21)            107.83                                           !
 ! A4    A(1,2,3)              113.1052                                         !
 ! A5    A(1,2,5)              110.5673                                         !
 ! A6    A(1,2,13)             108.0243                                         !
 ! A7    A(3,2,5)              110.2337                                         !
 ! A8    A(3,2,13)             106.7236                                         !
 ! A9    A(5,2,13)             107.9609                                         !
 ! A10   A(2,3,4)              122.5628                                         !
 ! A11   A(2,3,22)             117.6386                                         !
 ! A12   A(4,3,22)             119.7891                                         !
 ! A13   A(2,5,6)              112.8104                                         !
 ! A14   A(2,5,14)             108.696                                          !
 ! A15   A(2,5,15)             108.1453                                         !
 ! A16   A(6,5,14)             110.0485                                         !
 ! A17   A(6,5,15)             110.4102                                         !
 ! A18   A(14,5,15)            106.5082                                         !
 ! A19   A(5,6,7)              120.8628                                         !
 ! A20   A(5,6,8)              120.3599                                         !
 ! A21   A(7,6,8)              118.7743                                         !
 ! A22   A(6,7,9)              120.7905                                         !
 ! A23   A(6,7,16)             119.5378                                         !
 ! A24   A(9,7,16)             119.6713                                         !
 ! A25   A(6,8,10)             120.647                                          !
 ! A26   A(6,8,17)             119.122                                          !
 ! A27   A(10,8,17)            120.2308                                         !
 ! A28   A(7,9,11)             119.9985                                         !
 ! A29   A(7,9,18)             119.8934                                         !
 ! A30   A(11,9,18)            120.1072                                         !
 ! A31   A(8,10,11)            120.1403                                         !
 ! A32   A(8,10,19)            119.8935                                         !
 ! A33   A(11,10,19)           119.966                                          !
 ! A34   A(9,11,10)            119.6491                                         !
 ! A35   A(9,11,20)            120.1334                                         !
 ! A36   A(10,11,20)           120.2171                                         !
 ! A37   A(3,22,23)            122.3124                                         !
 ! A38   A(3,22,30)            118.3289                                         !
 ! A39   A(23,22,30)           118.2484                                         !
 ! A40   A(22,23,24)           112.9861                                         !
 ! A41   A(22,23,26)           110.6703                                         !
 ! A42   A(22,23,31)           108.6699                                         !
 ! A43   A(24,23,26)           110.0018                                         !
 ! A44   A(24,23,31)           103.9745                                         !
 ! A45   A(26,23,31)           110.3285                                         !
 ! A46   A(23,24,25)           120.3716                                         !
 ! A47   A(23,24,41)           115.8888                                         !
 ! A48   A(25,24,41)           123.6353                                         !
 ! A49   A(23,26,27)           115.7981                                         !
 ! A50   A(23,26,32)           108.7611                                         !
 ! A51   A(23,26,33)           106.6375                                         !
 ! A52   A(27,26,32)           109.6827                                         !
 ! A53   A(27,26,33)           109.0069                                         !
 ! A54   A(32,26,33)           106.5319                                         !
 ! A55   A(26,27,28)           109.4062                                         !
 ! A56   A(26,27,29)           112.2983                                         !
 ! A57   A(26,27,34)           108.8896                                         !
 ! A58   A(28,27,29)           110.9931                                         !
 ! A59   A(28,27,34)           107.2357                                         !
 ! A60   A(29,27,34)           107.8564                                         !
 ! A61   A(27,28,35)           110.6322                                         !
 ! A62   A(27,28,36)           110.9665                                         !
 ! A63   A(27,28,37)           111.5676                                         !
 ! A64   A(35,28,36)           107.7501                                         !
 ! A65   A(35,28,37)           107.8166                                         !
 ! A66   A(36,28,37)           107.9552                                         !
 ! A67   A(27,29,38)           110.6983                                         !
 ! A68   A(27,29,39)           112.2465                                         !
 ! A69   A(27,29,40)           110.6343                                         !
 ! A70   A(38,29,39)           107.8741                                         !
 ! A71   A(38,29,40)           107.7664                                         !
 ! A72   A(39,29,40)           107.4422                                         !
 ! A73   A(24,41,42)           118.7237                                         !
 ! A74   A(24,41,49)           115.1374                                         !
 ! A75   A(42,41,49)           112.8823                                         !
 ! A76   A(41,42,43)           106.0509                                         !
 ! A77   A(41,42,45)           112.6614                                         !
 ! A78   A(41,42,50)           107.0632                                         !
 ! A79   A(43,42,45)           113.3704                                         !
 ! A80   A(43,42,50)           109.1698                                         !
 ! A81   A(45,42,50)           108.3058                                         !
 ! A82   A(42,43,44)           120.4349                                         !
 ! A83   A(42,43,55)           118.0718                                         !
 ! A84   A(44,43,55)           121.3115                                         !
 ! A85   A(42,45,46)           112.3022                                         !
 ! A86   A(42,45,51)           107.7617                                         !
 ! A87   A(42,45,52)           111.0963                                         !
 ! A88   A(46,45,51)           109.3399                                         !
 ! A89   A(46,45,52)           109.4969                                         !
 ! A90   A(51,45,52)           106.6583                                         !
 ! A91   A(45,46,47)           115.2173                                         !
 ! A92   A(45,46,48)           123.0408                                         !
 ! A93   A(47,46,48)           121.7411                                         !
 ! A94   A(46,47,53)           118.3884                                         !
 ! A95   A(46,47,54)           122.4701                                         !
 ! A96   A(53,47,54)           118.3295                                         !
 ! A97   A(43,55,56)           120.0146                                         !
 ! A98   A(43,55,68)           117.6307                                         !
 ! A99   A(56,55,68)           122.268                                          !
 ! A100  A(55,56,57)           107.5536                                         !
 ! A101  A(55,56,59)           114.9201                                         !
 ! A102  A(55,56,69)           105.254                                          !
 ! A103  A(57,56,59)           113.2792                                         !
 ! A104  A(57,56,69)           105.724                                          !
 ! A105  A(59,56,69)           109.4253                                         !
 ! A106  A(56,57,58)           124.7574                                         !
 ! A107  A(56,57,66)           110.7679                                         !
 ! A108  A(58,57,66)           123.8766                                         !
 ! A109  A(56,59,60)           115.0962                                         !
 ! A110  A(56,59,70)           109.094                                          !
 ! A111  A(56,59,71)           106.9226                                         !
 ! A112  A(60,59,70)           111.0161                                         !
 ! A113  A(60,59,71)           107.2297                                         !
 ! A114  A(70,59,71)           107.0913                                         !
 ! A115  A(59,60,61)           117.5943                                         !
 ! A116  A(59,60,72)           109.5231                                         !
 ! A117  A(59,60,73)           108.205                                          !
 ! A118  A(61,60,72)           109.0096                                         !
 ! A119  A(61,60,73)           105.9134                                         !
 ! A120  A(72,60,73)           105.9363                                         !
 ! A121  A(60,61,62)           114.4701                                         !
 ! A122  A(60,61,74)           110.267                                          !
 ! A123  A(60,61,75)           110.5901                                         !
 ! A124  A(62,61,74)           109.421                                          !
 ! A125  A(62,61,75)           105.057                                          !
 ! A126  A(74,61,75)           106.6442                                         !
 ! A127  A(61,62,63)           126.3894                                         !
 ! A128  A(61,62,76)           113.6561                                         !
 ! A129  A(63,62,76)           116.4049                                         !
 ! A130  A(62,63,64)           120.4952                                         !
 ! A131  A(62,63,65)           119.8286                                         !
 ! A132  A(64,63,65)           119.6762                                         !
 ! A133  A(63,64,77)           121.333                                          !
 ! A134  A(63,64,78)           120.7295                                         !
 ! A135  A(77,64,78)           117.3817                                         !
 ! A136  A(63,65,79)           121.1357                                         !
 ! A137  A(63,65,80)           121.033                                          !
 ! A138  A(79,65,80)           117.3598                                         !
 ! A139  A(57,66,67)           112.3276                                         !
 ! D1    D(12,1,2,3)            74.1091                                         !
 ! D2    D(12,1,2,5)           -50.0641                                         !
 ! D3    D(12,1,2,13)         -167.9981                                         !
 ! D4    D(21,1,2,3)           -45.1087                                         !
 ! D5    D(21,1,2,5)          -169.2819                                         !
 ! D6    D(21,1,2,13)           72.7841                                         !
 ! D7    D(1,2,3,4)             -9.5963                                         !
 ! D8    D(1,2,3,22)           169.2764                                         !
 ! D9    D(5,2,3,4)            114.7591                                         !
 ! D10   D(5,2,3,22)           -66.3683                                         !
 ! D11   D(13,2,3,4)          -128.2459                                         !
 ! D12   D(13,2,3,22)           50.6267                                         !
 ! D13   D(1,2,5,6)            -54.1351                                         !
 ! D14   D(1,2,5,14)          -176.4751                                         !
 ! D15   D(1,2,5,15)            68.2739                                         !
 ! D16   D(3,2,5,6)           -179.9386                                         !
 ! D17   D(3,2,5,14)            57.7213                                         !
 ! D18   D(3,2,5,15)           -57.5296                                         !
 ! D19   D(13,2,5,6)            63.8377                                         !
 ! D20   D(13,2,5,14)          -58.5024                                         !
 ! D21   D(13,2,5,15)         -173.7533                                         !
 ! D22   D(2,3,22,23)         -173.4589                                         !
 ! D23   D(2,3,22,30)           -5.7247                                         !
 ! D24   D(4,3,22,23)            5.4462                                         !
 ! D25   D(4,3,22,30)          173.1805                                         !
 ! D26   D(2,5,6,7)            -81.3346                                         !
 ! D27   D(2,5,6,8)             98.0308                                         !
 ! D28   D(14,5,6,7)            40.2431                                         !
 ! D29   D(14,5,6,8)          -140.3915                                         !
 ! D30   D(15,5,6,7)           157.5357                                         !
 ! D31   D(15,5,6,8)           -23.0989                                         !
 ! D32   D(5,6,7,9)            179.1458                                         !
 ! D33   D(5,6,7,16)            -1.0794                                         !
 ! D34   D(8,6,7,9)             -0.2295                                         !
 ! D35   D(8,6,7,16)           179.5454                                         !
 ! D36   D(5,6,8,10)          -179.2239                                         !
 ! D37   D(5,6,8,17)             0.599                                          !
 ! D38   D(7,6,8,10)             0.1547                                         !
 ! D39   D(7,6,8,17)           179.9775                                         !
 ! D40   D(6,7,9,11)             0.1545                                         !
 ! D41   D(6,7,9,18)           179.8                                            !
 ! D42   D(16,7,9,11)         -179.6201                                         !
 ! D43   D(16,7,9,18)            0.0254                                         !
 ! D44   D(6,8,10,11)           -0.005                                          !
 ! D45   D(6,8,10,19)         -179.8906                                         !
 ! D46   D(17,8,10,11)        -179.8259                                         !
 ! D47   D(17,8,10,19)           0.2885                                         !
 ! D48   D(7,9,11,10)           -0.001                                          !
 ! D49   D(7,9,11,20)          179.7615                                         !
 ! D50   D(18,9,11,10)        -179.6458                                         !
 ! D51   D(18,9,11,20)           0.1168                                         !
 ! D52   D(8,10,11,9)           -0.0729                                         !
 ! D53   D(8,10,11,20)        -179.8353                                         !
 ! D54   D(19,10,11,9)         179.8125                                         !
 ! D55   D(19,10,11,20)          0.0502                                         !
 ! D56   D(3,22,23,24)         -64.8905                                         !
 ! D57   D(3,22,23,26)         171.2505                                         !
 ! D58   D(3,22,23,31)          49.958                                          !
 ! D59   D(30,22,23,24)        127.3659                                         !
 ! D60   D(30,22,23,26)          3.5069                                         !
 ! D61   D(30,22,23,31)       -117.7856                                         !
 ! D62   D(22,23,24,25)        146.9131                                         !
 ! D63   D(22,23,24,41)        -36.667                                          !
 ! D64   D(26,23,24,25)        -88.8612                                         !
 ! D65   D(26,23,24,41)         87.5588                                         !
 ! D66   D(31,23,24,25)         29.2746                                         !
 ! D67   D(31,23,24,41)       -154.3055                                         !
 ! D68   D(22,23,26,27)        -60.7308                                         !
 ! D69   D(22,23,26,32)         63.2749                                         !
 ! D70   D(22,23,26,33)        177.8036                                         !
 ! D71   D(24,23,26,27)        173.7132                                         !
 ! D72   D(24,23,26,32)        -62.2811                                         !
 ! D73   D(24,23,26,33)         52.2477                                         !
 ! D74   D(31,23,26,27)         59.5764                                         !
 ! D75   D(31,23,26,32)       -176.4179                                         !
 ! D76   D(31,23,26,33)        -61.8892                                         !
 ! D77   D(23,24,41,42)        156.8764                                         !
 ! D78   D(23,24,41,49)         18.5507                                         !
 ! D79   D(25,24,41,42)        -26.8336                                         !
 ! D80   D(25,24,41,49)       -165.1594                                         !
 ! D81   D(23,26,27,28)        179.8084                                         !
 ! D82   D(23,26,27,29)        -56.4807                                         !
 ! D83   D(23,26,27,34)         62.8996                                         !
 ! D84   D(32,26,27,28)         56.2833                                         !
 ! D85   D(32,26,27,29)        179.9942                                         !
 ! D86   D(32,26,27,34)        -60.6255                                         !
 ! D87   D(33,26,27,28)        -60.0026                                         !
 ! D88   D(33,26,27,29)         63.7083                                         !
 ! D89   D(33,26,27,34)       -176.9115                                         !
 ! D90   D(26,27,28,35)         63.3962                                         !
 ! D91   D(26,27,28,36)       -177.0569                                         !
 ! D92   D(26,27,28,37)        -56.6291                                         !
 ! D93   D(29,27,28,35)        -61.0799                                         !
 ! D94   D(29,27,28,36)         58.4671                                         !
 ! D95   D(29,27,28,37)        178.8948                                         !
 ! D96   D(34,27,28,35)       -178.6555                                         !
 ! D97   D(34,27,28,36)        -59.1086                                         !
 ! D98   D(34,27,28,37)         61.3192                                         !
 ! D99   D(26,27,29,38)        -57.133                                          !
 ! D100  D(26,27,29,39)         63.4669                                         !
 ! D101  D(26,27,29,40)       -176.528                                          !
 ! D102  D(28,27,29,38)         65.6878                                         !
 ! D103  D(28,27,29,39)       -173.7122                                         !
 ! D104  D(28,27,29,40)        -53.7072                                         !
 ! D105  D(34,27,29,38)       -177.1154                                         !
 ! D106  D(34,27,29,39)        -56.5155                                         !
 ! D107  D(34,27,29,40)         63.4896                                         !
 ! D108  D(24,41,42,43)       -106.9304                                         !
 ! D109  D(24,41,42,45)        128.499                                          !
 ! D110  D(24,41,42,50)          9.5397                                         !
 ! D111  D(49,41,42,43)         32.2758                                         !
 ! D112  D(49,41,42,45)        -92.2947                                         !
 ! D113  D(49,41,42,50)        148.7459                                         !
 ! D114  D(41,42,43,44)        -21.9758                                         !
 ! D115  D(41,42,43,55)        153.188                                          !
 ! D116  D(45,42,43,44)        102.154                                          !
 ! D117  D(45,42,43,55)        -82.6821                                         !
 ! D118  D(50,42,43,44)       -137.0173                                         !
 ! D119  D(50,42,43,55)         38.1466                                         !
 ! D120  D(41,42,45,46)       -162.5356                                         !
 ! D121  D(41,42,45,51)        -42.0545                                         !
 ! D122  D(41,42,45,52)         74.4467                                         !
 ! D123  D(43,42,45,46)         77.0121                                         !
 ! D124  D(43,42,45,51)       -162.5068                                         !
 ! D125  D(43,42,45,52)        -46.0057                                         !
 ! D126  D(50,42,45,46)        -44.3031                                         !
 ! D127  D(50,42,45,51)         76.1781                                         !
 ! D128  D(50,42,45,52)       -167.3208                                         !
 ! D129  D(42,43,55,56)       -164.8403                                         !
 ! D130  D(42,43,55,68)         11.8519                                         !
 ! D131  D(44,43,55,56)         10.2791                                         !
 ! D132  D(44,43,55,68)       -173.0288                                         !
 ! D133  D(42,45,46,47)        171.3076                                         !
 ! D134  D(42,45,46,48)         -9.0155                                         !
 ! D135  D(51,45,46,47)         51.743                                          !
 ! D136  D(51,45,46,48)       -128.5801                                         !
 ! D137  D(52,45,46,47)        -64.7797                                         !
 ! D138  D(52,45,46,48)        114.8971                                         !
 ! D139  D(45,46,47,53)       -176.5353                                         !
 ! D140  D(45,46,47,54)         -7.0345                                         !
 ! D141  D(48,46,47,53)          3.7832                                         !
 ! D142  D(48,46,47,54)        173.2841                                         !
 ! D143  D(43,55,56,57)         34.0894                                         !
 ! D144  D(43,55,56,59)        -93.0703                                         !
 ! D145  D(43,55,56,69)        146.4778                                         !
 ! D146  D(68,55,56,57)       -142.4445                                         !
 ! D147  D(68,55,56,59)         90.3958                                         !
 ! D148  D(68,55,56,69)        -30.0561                                         !
 ! D149  D(55,56,57,58)       -128.8548                                         !
 ! D150  D(55,56,57,66)         59.7448                                         !
 ! D151  D(59,56,57,58)         -0.7432                                         !
 ! D152  D(59,56,57,66)       -172.1436                                         !
 ! D153  D(69,56,57,58)        119.0754                                         !
 ! D154  D(69,56,57,66)        -52.325                                          !
 ! D155  D(55,56,59,60)       -145.5592                                         !
 ! D156  D(55,56,59,70)         88.906                                          !
 ! D157  D(55,56,59,71)        -26.5872                                         !
 ! D158  D(57,56,59,60)         90.2516                                         !
 ! D159  D(57,56,59,70)        -35.2832                                         !
 ! D160  D(57,56,59,71)       -150.7764                                         !
 ! D161  D(69,56,59,60)        -27.4297                                         !
 ! D162  D(69,56,59,70)       -152.9645                                         !
 ! D163  D(69,56,59,71)         91.5423                                         !
 ! D164  D(56,57,66,67)       -143.7202                                         !
 ! D165  D(58,57,66,67)         44.7889                                         !
 ! D166  D(56,59,60,61)        -74.1626                                         !
 ! D167  D(56,59,60,72)         50.9563                                         !
 ! D168  D(56,59,60,73)        165.9981                                         !
 ! D169  D(70,59,60,61)         50.3714                                         !
 ! D170  D(70,59,60,72)        175.4902                                         !
 ! D171  D(70,59,60,73)        -69.4679                                         !
 ! D172  D(71,59,60,61)        167.0364                                         !
 ! D173  D(71,59,60,72)        -67.8447                                         !
 ! D174  D(71,59,60,73)         47.1971                                         !
 ! D175  D(59,60,61,62)         64.1108                                         !
 ! D176  D(59,60,61,74)       -172.0076                                         !
 ! D177  D(59,60,61,75)        -54.3046                                         !
 ! D178  D(72,60,61,62)        -61.262                                          !
 ! D179  D(72,60,61,74)         62.6195                                         !
 ! D180  D(72,60,61,75)       -179.6774                                         !
 ! D181  D(73,60,61,62)       -174.8529                                         !
 ! D182  D(73,60,61,74)        -50.9713                                         !
 ! D183  D(73,60,61,75)         66.7317                                         !
 ! D184  D(60,61,62,63)         65.7725                                         !
 ! D185  D(60,61,62,76)        -92.0396                                         !
 ! D186  D(74,61,62,63)        -58.5599                                         !
 ! D187  D(74,61,62,76)        143.628                                          !
 ! D188  D(75,61,62,63)       -172.724                                          !
 ! D189  D(75,61,62,76)         29.4638                                         !
 ! D190  D(61,62,63,64)         29.5134                                         !
 ! D191  D(61,62,63,65)       -150.4814                                         !
 ! D192  D(76,62,63,64)       -173.205                                          !
 ! D193  D(76,62,63,65)          6.8002                                         !
 ! D194  D(62,63,64,77)       -170.7264                                         !
 ! D195  D(62,63,64,78)         18.0477                                         !
 ! D196  D(65,63,64,77)          9.2684                                         !
 ! D197  D(65,63,64,78)       -161.9575                                         !
 ! D198  D(62,63,65,79)       -164.1898                                         !
 ! D199  D(62,63,65,80)         23.8971                                         !
 ! D200  D(64,63,65,79)         15.8153                                         !
 ! D201  D(64,63,65,80)       -156.0977                                         !
 --------------------------------------------------------------------------------
 Symmetry turned off by external request.
 Stoichiometry    C25H41N8O6(1+)
 Framework group  C1[X(C25H41N8O6)]
 Deg. of freedom   234
 Full point group                 C1      NOp   1
                          Input orientation:                          
 ---------------------------------------------------------------------
 Center     Atomic      Atomic             Coordinates (Angstroms)
 Number     Number       Type             X           Y           Z
 ---------------------------------------------------------------------
      1          7           0       -2.032018   11.495263  -10.327155
      2          6           0       -2.928031   10.494747   -9.782808
      3          6           0       -4.008020   11.089374   -8.856552
      4          8           0       -3.984621   12.272612   -8.474561
      5          6           0       -2.126963    9.393267   -9.036011
      6          6           0       -1.049612    8.770889   -9.891903
      7          6           0       -1.357501    7.764375  -10.814304
      8          6           0        0.277383    9.202987   -9.784040
      9          6           0       -0.364025    7.202868  -11.616733
     10          6           0        1.274647    8.643469  -10.583185
     11          6           0        0.956680    7.641993  -11.502711
     12          1           0       -1.383513   11.819709   -9.612164
     13          1           0       -3.457707   10.019015  -10.622316
     14          1           0       -2.827016    8.621289   -8.692038
     15          1           0       -1.690850    9.838903   -8.138808
     16          1           0       -2.384333    7.413662  -10.903232
     17          1           0        0.522986    9.985328   -9.069129
     18          1           0       -0.618806    6.419894  -12.325799
     19          1           0        2.301568    8.987036  -10.487999
     20          1           0        1.732788    7.203511  -12.123801
     21          1           0       -2.557883   12.300332  -10.659160
     22          7           0       -5.022834   10.280095   -8.475535
     23          6           0       -6.176212   10.773642   -7.713694
     24          6           0       -5.798079   11.274625   -6.306656
     25          8           0       -6.404820   12.202940   -5.798840
     26          6           0       -7.262834    9.691008   -7.611962
     27          6           0       -7.850399    9.201438   -8.951877
     28          6           0       -8.911931    8.125178   -8.680716
     29          6           0       -8.432729   10.350054   -9.786685
     30          1           0       -5.077465    9.355067   -8.881424
     31          1           0       -6.570982   11.662043   -8.212902
     32          1           0       -6.859117    8.836566   -7.050512
     33          1           0       -8.070026   10.112709   -7.000788
     34          1           0       -7.048356    8.727909   -9.541483
     35          1           0       -9.752337    8.545170   -8.114207
     36          1           0       -9.309534    7.721882   -9.618212
     37          1           0       -8.500553    7.290318   -8.101165
     38          1           0       -9.203743   10.888254   -9.221269
     39          1           0       -7.667464   11.074941  -10.085725
     40          1           0       -8.896307    9.965792  -10.701593
     41          7           0       -4.809306   10.564668   -5.660778
     42          6           0       -4.048533   11.223389   -4.608341
     43          6           0       -2.653016   11.497955   -5.199721
     44          8           0       -2.239959   10.840158   -6.160958
     45          6           0       -4.009208   10.406582   -3.305587
     46          6           0       -3.597366   11.254775   -2.100694
     47          7           0       -3.720031   10.645414   -0.896811
     48          8           0       -3.176583   12.408877   -2.203504
     49          1           0       -4.231524    9.985125   -6.262018
     50          1           0       -4.544471   12.175262   -4.401887
     51          1           0       -5.012339    9.998505   -3.136373
     52          1           0       -3.331465    9.547686   -3.397947
     53          1           0       -3.511804   11.179870   -0.063979
     54          1           0       -4.154254    9.740485   -0.789178
     55          7           0       -1.947123   12.533333   -4.704689
     56          6           0       -0.788293   13.040772   -5.431851
     57          6           0       -1.083306   12.892582   -6.939396
     58          8           0       -0.334953   12.359559   -7.747581
     59          6           0        0.562135   12.426603   -5.011964
     60          6           0        1.765909   13.389834   -5.071694
     61          6           0        2.321576   13.750106   -6.459257
     62          7           0        1.380378   14.493608   -7.320986
     63          6           0        0.915514   15.723753   -7.106656
     64          7           0        1.655732   16.626228   -6.439216
     65          7           0       -0.301443   16.066446   -7.559948
     66          8           0       -2.174549   13.584037   -7.278648
     67          1           0       -2.728404   13.108879   -7.993674
     68          1           0       -2.284101   12.967882   -3.846812
     69          1           0       -0.774749   14.121840   -5.235945
     70          1           0        0.748147   11.528234   -5.609286
     71          1           0        0.455868   12.104631   -3.971242
     72          1           0        1.522412   14.316077   -4.531934
     73          1           0        2.598616   12.932043   -4.523851
     74          1           0        3.251775   14.320007   -6.359246
     75          1           0        2.567262   12.846404   -7.021080
     76          1           0        0.818063   13.895832   -7.922184
     77          1           0        1.267704   17.511899   -6.148785
     78          1           0        2.650769   16.496214   -6.327600
     79          1           0       -0.581394   17.035180   -7.623985
     80          1           0       -1.014900   15.360240   -7.734967
 ---------------------------------------------------------------------
 Rotational constants (GHZ):           0.0896484           0.0712460           0.0502933
 Standard basis: 6-31G(d) (6D, 7F)
   667 basis functions,  1256 primitive gaussians,   667 cartesian basis functions
   147 alpha electrons      147 beta electrons
       nuclear repulsion energy      4881.8611425587 Hartrees.
 NAtoms=   80 NActive=   80 NUniq=   80 SFac= 1.00D+00 NAtFMM=   60 NAOKFM=T Big=T
 Integral buffers will be    131072 words long.
 Raffenetti 2 integral format.
 Two-electron integral symmetry is turned off.
 Nuclear repulsion after empirical dispersion term =     4881.7522471468 Hartrees.
 One-electron integrals computed using PRISM.
 NBasis=   667 RedAO= T EigKep=  4.57D-04  NBF=   667
 NBsUse=   667 1.00D-06 EigRej= -1.00D+00 NBFU=   667
 Initial guess from the checkpoint file:  "conf-731.chk"
 B after Tr=     0.000000    0.000000    0.000000
         Rot=    1.000000    0.000000    0.000000    0.000000 Ang=   0.00 deg.
 Requested convergence on RMS density matrix=1.00D-08 within 128 cycles.
 Requested convergence on MAX density matrix=1.00D-06.
 Requested convergence on             energy=1.00D-06.
 No special actions if energy rises.
 SCF Done:  E(RB3LYP) =  -1866.72441792     A.U. after    3 cycles
            NFock=  3  Conv=0.83D-09     -V/T= 2.0095

 **********************************************************************

            Population analysis using the SCF Density.

 **********************************************************************

 Alpha  occ. eigenvalues --  -19.27980 -19.25181 -19.22300 -19.21901 -19.21280
 Alpha  occ. eigenvalues --  -19.18924 -14.53035 -14.52143 -14.51455 -14.45768
 Alpha  occ. eigenvalues --  -14.45558 -14.44957 -14.43118 -14.38204 -10.48813
 Alpha  occ. eigenvalues --  -10.43511 -10.38853 -10.38409 -10.38025 -10.36074
 Alpha  occ. eigenvalues --  -10.36060 -10.34979 -10.32144 -10.31195 -10.31088
 Alpha  occ. eigenvalues --  -10.30346 -10.29515 -10.29243 -10.26674 -10.26618
 Alpha  occ. eigenvalues --  -10.25943 -10.25096 -10.24220 -10.24211 -10.24139
 Alpha  occ. eigenvalues --  -10.24096 -10.24001 -10.23987 -10.23868  -1.20345
 Alpha  occ. eigenvalues --   -1.17143  -1.14042  -1.13631  -1.12782  -1.11697
 Alpha  occ. eigenvalues --   -1.10821  -1.06234  -1.05418  -1.02502  -1.02077
 Alpha  occ. eigenvalues --   -0.99921  -0.99740  -0.96263  -0.91681  -0.90651
 Alpha  occ. eigenvalues --   -0.88875  -0.87768  -0.86011  -0.84129  -0.82583
 Alpha  occ. eigenvalues --   -0.81826  -0.79578  -0.78678  -0.77915  -0.76646
 Alpha  occ. eigenvalues --   -0.74956  -0.74692  -0.74068  -0.72942  -0.72047
 Alpha  occ. eigenvalues --   -0.70426  -0.69686  -0.68192  -0.67560  -0.66713
 Alpha  occ. eigenvalues --   -0.66587  -0.65794  -0.65764  -0.65398  -0.64385
 Alpha  occ. eigenvalues --   -0.63619  -0.63601  -0.62724  -0.61789  -0.61110
 Alpha  occ. eigenvalues --   -0.59883  -0.59030  -0.58496  -0.57951  -0.57338
 Alpha  occ. eigenvalues --   -0.57160  -0.56518  -0.56206  -0.56061  -0.55760
 Alpha  occ. eigenvalues --   -0.55210  -0.54447  -0.53607  -0.53284  -0.52647
 Alpha  occ. eigenvalues --   -0.52151  -0.51838  -0.51609  -0.51116  -0.50812
 Alpha  occ. eigenvalues --   -0.50569  -0.49948  -0.49699  -0.49302  -0.48710
 Alpha  occ. eigenvalues --   -0.48396  -0.47898  -0.47242  -0.47202  -0.46690
 Alpha  occ. eigenvalues --   -0.46464  -0.46137  -0.45678  -0.45620  -0.45426
 Alpha  occ. eigenvalues --   -0.45191  -0.44915  -0.44435  -0.44144  -0.43875
 Alpha  occ. eigenvalues --   -0.43025  -0.42404  -0.41828  -0.40650  -0.40558
 Alpha  occ. eigenvalues --   -0.39936  -0.39840  -0.39673  -0.39581  -0.39175
 Alpha  occ. eigenvalues --   -0.38908  -0.36834  -0.36345  -0.36044  -0.35605
 Alpha  occ. eigenvalues --   -0.35454  -0.35362  -0.33349  -0.31984  -0.31145
 Alpha  occ. eigenvalues --   -0.30049  -0.29333
 Alpha virt. eigenvalues --   -0.13534  -0.11929  -0.08722  -0.07909  -0.07732
 Alpha virt. eigenvalues --   -0.06623  -0.05334  -0.05289  -0.05242  -0.05061
 Alpha virt. eigenvalues --   -0.02664  -0.02088  -0.01520  -0.00956  -0.00340
 Alpha virt. eigenvalues --   -0.00058   0.02242   0.02451   0.02531   0.02866
 Alpha virt. eigenvalues --    0.03110   0.03798   0.04194   0.04676   0.04971
 Alpha virt. eigenvalues --    0.05262   0.05698   0.05900   0.06199   0.06642
 Alpha virt. eigenvalues --    0.06920   0.07262   0.07671   0.08008   0.08287
 Alpha virt. eigenvalues --    0.08734   0.09003   0.09435   0.09720   0.09816
 Alpha virt. eigenvalues --    0.10211   0.10316   0.10477   0.10888   0.11028
 Alpha virt. eigenvalues --    0.11221   0.11723   0.12070   0.12185   0.12376
 Alpha virt. eigenvalues --    0.12971   0.13253   0.13640   0.14093   0.14480
 Alpha virt. eigenvalues --    0.14586   0.14914   0.15159   0.16087   0.16322
 Alpha virt. eigenvalues --    0.16450   0.17192   0.18250   0.18335   0.19106
 Alpha virt. eigenvalues --    0.19422   0.19928   0.20151   0.21048   0.21785
 Alpha virt. eigenvalues --    0.22820   0.23144   0.23759   0.24471   0.25340
 Alpha virt. eigenvalues --    0.25650   0.26455   0.27161   0.28038   0.28732
 Alpha virt. eigenvalues --    0.29569   0.30078   0.30560   0.30677   0.32564
 Alpha virt. eigenvalues --    0.33262   0.34343   0.35681   0.37469   0.39309
 Alpha virt. eigenvalues --    0.40219   0.40515   0.40930   0.41506   0.41681
 Alpha virt. eigenvalues --    0.42680   0.43255   0.44287   0.44782   0.44949
 Alpha virt. eigenvalues --    0.45004   0.45675   0.46142   0.46449   0.46893
 Alpha virt. eigenvalues --    0.47494   0.47631   0.48057   0.48625   0.49072
 Alpha virt. eigenvalues --    0.49487   0.49848   0.50022   0.50618   0.51071
 Alpha virt. eigenvalues --    0.51625   0.51813   0.51965   0.53114   0.53361
 Alpha virt. eigenvalues --    0.53586   0.54019   0.54070   0.54251   0.54347
 Alpha virt. eigenvalues --    0.54419   0.55069   0.55835   0.56077   0.56199
 Alpha virt. eigenvalues --    0.56296   0.56658   0.56703   0.57540   0.58253
 Alpha virt. eigenvalues --    0.58912   0.59339   0.59789   0.60154   0.60657
 Alpha virt. eigenvalues --    0.61069   0.61724   0.62002   0.62292   0.62715
 Alpha virt. eigenvalues --    0.62757   0.63523   0.63743   0.64314   0.64726
 Alpha virt. eigenvalues --    0.64887   0.65066   0.65516   0.66367   0.66960
 Alpha virt. eigenvalues --    0.67835   0.68247   0.68741   0.69662   0.70337
 Alpha virt. eigenvalues --    0.71067   0.71295   0.71942   0.72427   0.72850
 Alpha virt. eigenvalues --    0.73340   0.73829   0.74012   0.75107   0.75239
 Alpha virt. eigenvalues --    0.75549   0.75670   0.76226   0.76760   0.77448
 Alpha virt. eigenvalues --    0.78036   0.78293   0.78407   0.78510   0.78772
 Alpha virt. eigenvalues --    0.78948   0.79402   0.79828   0.79943   0.80096
 Alpha virt. eigenvalues --    0.80333   0.80679   0.81153   0.81435   0.82236
 Alpha virt. eigenvalues --    0.82456   0.82970   0.83526   0.83764   0.83882
 Alpha virt. eigenvalues --    0.84414   0.84527   0.84848   0.85364   0.85591
 Alpha virt. eigenvalues --    0.85802   0.86340   0.86467   0.86921   0.87263
 Alpha virt. eigenvalues --    0.87711   0.88056   0.88517   0.89000   0.89063
 Alpha virt. eigenvalues --    0.89958   0.90337   0.90663   0.91406   0.91639
 Alpha virt. eigenvalues --    0.92281   0.93260   0.93491   0.94031   0.94714
 Alpha virt. eigenvalues --    0.95379   0.95709   0.96506   0.97305   0.98001
 Alpha virt. eigenvalues --    0.99076   0.99875   1.01118   1.01233   1.02503
 Alpha virt. eigenvalues --    1.03527   1.03663   1.05138   1.05749   1.06243
 Alpha virt. eigenvalues --    1.06670   1.07226   1.07871   1.09151   1.09782
 Alpha virt. eigenvalues --    1.10651   1.11175   1.12860   1.13014   1.13294
 Alpha virt. eigenvalues --    1.13647   1.14701   1.15630   1.15967   1.17581
 Alpha virt. eigenvalues --    1.18621   1.18940   1.20387   1.20805   1.21621
 Alpha virt. eigenvalues --    1.23067   1.23268   1.23656   1.24047   1.25116
 Alpha virt. eigenvalues --    1.25354   1.26049   1.27878   1.29410   1.29689
 Alpha virt. eigenvalues --    1.30403   1.30993   1.32243   1.32907   1.34516
 Alpha virt. eigenvalues --    1.35532   1.35854   1.36071   1.37255   1.38178
 Alpha virt. eigenvalues --    1.38521   1.39254   1.39372   1.40224   1.40930
 Alpha virt. eigenvalues --    1.42073   1.42721   1.43122   1.43430   1.44128
 Alpha virt. eigenvalues --    1.44463   1.45707   1.46092   1.46327   1.47044
 Alpha virt. eigenvalues --    1.48163   1.49673   1.49952   1.50112   1.51506
 Alpha virt. eigenvalues --    1.52450   1.53052   1.54316   1.55315   1.55932
 Alpha virt. eigenvalues --    1.56815   1.58263   1.59462   1.60157   1.60496
 Alpha virt. eigenvalues --    1.61952   1.62998   1.63309   1.63791   1.64738
 Alpha virt. eigenvalues --    1.65495   1.65887   1.67183   1.67741   1.68170
 Alpha virt. eigenvalues --    1.68438   1.69979   1.70660   1.70949   1.71776
 Alpha virt. eigenvalues --    1.72567   1.73235   1.73621   1.73658   1.74519
 Alpha virt. eigenvalues --    1.75030   1.75683   1.75924   1.76211   1.76635
 Alpha virt. eigenvalues --    1.76846   1.77373   1.77735   1.78076   1.79096
 Alpha virt. eigenvalues --    1.80170   1.80942   1.81823   1.82293   1.82814
 Alpha virt. eigenvalues --    1.83503   1.84051   1.84970   1.85302   1.86192
 Alpha virt. eigenvalues --    1.86359   1.86877   1.87676   1.87958   1.88352
 Alpha virt. eigenvalues --    1.88558   1.89009   1.90448   1.90840   1.91321
 Alpha virt. eigenvalues --    1.91921   1.92259   1.92684   1.92933   1.93396
 Alpha virt. eigenvalues --    1.93954   1.94346   1.94835   1.95801   1.96446
 Alpha virt. eigenvalues --    1.97139   1.98105   1.98872   2.00103   2.00491
 Alpha virt. eigenvalues --    2.01152   2.01620   2.02554   2.02940   2.04067
 Alpha virt. eigenvalues --    2.04409   2.04570   2.05486   2.05868   2.08275
 Alpha virt. eigenvalues --    2.08670   2.09221   2.09459   2.10559   2.10678
 Alpha virt. eigenvalues --    2.11853   2.12185   2.13004   2.13607   2.14628
 Alpha virt. eigenvalues --    2.15161   2.15730   2.16732   2.17190   2.17680
 Alpha virt. eigenvalues --    2.18304   2.19601   2.20198   2.21307   2.22944
 Alpha virt. eigenvalues --    2.23132   2.24047   2.24646   2.25276   2.25926
 Alpha virt. eigenvalues --    2.26080   2.26573   2.28898   2.29848   2.31130
 Alpha virt. eigenvalues --    2.32679   2.32760   2.33251   2.33975   2.34858
 Alpha virt. eigenvalues --    2.35389   2.35728   2.36771   2.38439   2.38819
 Alpha virt. eigenvalues --    2.39079   2.40796   2.41384   2.41845   2.42878
 Alpha virt. eigenvalues --    2.43386   2.44476   2.45086   2.45889   2.47665
 Alpha virt. eigenvalues --    2.47894   2.48521   2.48701   2.49447   2.51365
 Alpha virt. eigenvalues --    2.52397   2.52624   2.53780   2.53836   2.55231
 Alpha virt. eigenvalues --    2.56459   2.57239   2.57956   2.58477   2.59735
 Alpha virt. eigenvalues --    2.60843   2.61101   2.61882   2.63411   2.64867
 Alpha virt. eigenvalues --    2.66259   2.66794   2.68009   2.69398   2.69520
 Alpha virt. eigenvalues --    2.70669   2.71559   2.72738   2.75192   2.76387
 Alpha virt. eigenvalues --    2.76976   2.80858   2.82165   2.83333   2.86649
 Alpha virt. eigenvalues --    2.86803   2.87854   2.89606   2.92356   2.94227
 Alpha virt. eigenvalues --    2.94689   2.95577   2.97820   2.98933   2.99935
 Alpha virt. eigenvalues --    3.00450   3.03078   3.04518   3.10263   3.10711
 Alpha virt. eigenvalues --    3.36073   3.65926   3.72014   3.73210   3.79093
 Alpha virt. eigenvalues --    3.84548   3.90562   3.91446   3.96518   3.98721
 Alpha virt. eigenvalues --    4.02479   4.03838   4.04749   4.06759   4.07596
 Alpha virt. eigenvalues --    4.08262   4.09777   4.11501   4.13405   4.13904
 Alpha virt. eigenvalues --    4.15851   4.22199   4.25263   4.27424   4.28188
 Alpha virt. eigenvalues --    4.29580   4.31821   4.34765   4.37371   4.38792
 Alpha virt. eigenvalues --    4.41107   4.44376   4.45216   4.47723   4.50506
 Alpha virt. eigenvalues --    4.54400   4.55781   4.61676   4.65495   4.66061
          Condensed to atoms (all electrons):
 Mulliken charges:
               1
     1  N   -0.722650
     2  C   -0.067830
     3  C    0.636119
     4  O   -0.579245
     5  C   -0.414707
     6  C    0.214759
     7  C   -0.180684
     8  C   -0.178095
     9  C   -0.127252
    10  C   -0.130526
    11  C   -0.127770
    12  H    0.325788
    13  H    0.160235
    14  H    0.133795
    15  H    0.204650
    16  H    0.112766
    17  H    0.124163
    18  H    0.137662
    19  H    0.125159
    20  H    0.137251
    21  H    0.301101
    22  N   -0.631214
    23  C   -0.021776
    24  C    0.604619
    25  O   -0.501282
    26  C   -0.304615
    27  C   -0.082063
    28  C   -0.443388
    29  C   -0.450519
    30  H    0.347273
    31  H    0.194797
    32  H    0.142472
    33  H    0.177225
    34  H    0.112027
    35  H    0.154148
    36  H    0.157227
    37  H    0.145353
    38  H    0.156817
    39  H    0.145751
    40  H    0.158624
    41  N   -0.604074
    42  C   -0.065503
    43  C    0.616605
    44  O   -0.543791
    45  C   -0.386629
    46  C    0.624655
    47  N   -0.739826
    48  O   -0.533837
    49  H    0.348121
    50  H    0.215844
    51  H    0.197658
    52  H    0.187181
    53  H    0.359372
    54  H    0.354787
    55  N   -0.612473
    56  C    0.018227
    57  C    0.584994
    58  O   -0.507291
    59  C   -0.275378
    60  C   -0.289677
    61  C   -0.167783
    62  N   -0.595370
    63  C    0.785857
    64  N   -0.751559
    65  N   -0.772864
    66  O   -0.610406
    67  H    0.462882
    68  H    0.385683
    69  H    0.151369
    70  H    0.191166
    71  H    0.172863
    72  H    0.148365
    73  H    0.179670
    74  H    0.169294
    75  H    0.209038
    76  H    0.393455
    77  H    0.382290
    78  H    0.388049
    79  H    0.376862
    80  H    0.406010
 Sum of Mulliken charges =   1.00000
 Mulliken charges with hydrogens summed into heavy atoms:
               1
     1  N   -0.095761
     2  C    0.092405
     3  C    0.636119
     4  O   -0.579245
     5  C   -0.076262
     6  C    0.214759
     7  C   -0.067918
     8  C   -0.053932
     9  C    0.010410
    10  C   -0.005367
    11  C    0.009482
    22  N   -0.283941
    23  C    0.173022
    24  C    0.604619
    25  O   -0.501282
    26  C    0.015082
    27  C    0.029964
    28  C    0.013341
    29  C    0.010673
    41  N   -0.255953
    42  C    0.150341
    43  C    0.616605
    44  O   -0.543791
    45  C   -0.001789
    46  C    0.624655
    47  N   -0.025667
    48  O   -0.533837
    55  N   -0.226791
    56  C    0.169596
    57  C    0.584994
    58  O   -0.507291
    59  C    0.088651
    60  C    0.038357
    61  C    0.210549
    62  N   -0.201916
    63  C    0.785857
    64  N    0.018780
    65  N    0.010008
    66  O   -0.147524
 Electronic spatial extent (au):  <R**2>=         219599.7840
 Charge=              1.0000 electrons
 Dipole moment (field-independent basis, Debye):
    X=             -2.6792    Y=             64.8679    Z=            -28.1437  Tot=             70.7608
 Quadrupole moment (field-independent basis, Debye-Ang):
   XX=           -170.5884   YY=            722.2880   ZZ=            -22.4415
   XY=             24.5465   XZ=             19.3717   YZ=           -393.1618
 Traceless Quadrupole moment (field-independent basis, Debye-Ang):
   XX=           -347.0078   YY=            545.8686   ZZ=           -198.8609
   XY=             24.5465   XZ=             19.3717   YZ=           -393.1618
 Octapole moment (field-independent basis, Debye-Ang**2):
  XXX=           1532.3570  YYY=           7057.7892  ZZZ=           3414.0514  XYY=           1525.0227
  XXY=          -2104.2821  XXZ=           1203.7686  XZZ=            247.2987  YZZ=            170.6707
  YYZ=          -4331.0763  XYZ=            -99.9193
 Hexadecapole moment (field-independent basis, Debye-Ang**3):
 XXXX=         -20156.6428 YYYY=          57442.0093 ZZZZ=         -69397.4491 XXXY=          16944.1582
 XXXZ=         -10293.6566 YYYX=          37070.2409 YYYZ=         -41730.6639 ZZZX=          -8464.1902
 ZZZY=          35065.8701 XXYY=         -30257.3448 XXZZ=         -12784.9680 YYZZ=          -2826.4669
 XXYZ=          14221.4857 YYXZ=          -9038.7554 ZZXY=           4331.8101
 N-N= 4.881752247147D+03 E-N=-1.408416401646D+04  KE= 1.849241132615D+03
 Unable to Open any file for archive entry.
 1\1\GINC-LAC-305\SP\RB3LYP\6-31G(d)\C25H41N8O6(1+)\KENGMITH\11-Jun-202
 2\0\\# B3LYP/6-31G* empiricaldispersion=gd3 guess=read geom=check nosy
 mm integral(ultrafinegrid)\\Candidate Structure: Conf:731 Charge calc 
 in gas phase\\1,1\N,0,-2.0320184338,11.4952630536,-10.3271549012\C,0,-
 2.9280307049,10.4947473385,-9.7828079722\C,0,-4.0080199093,11.08937414
 04,-8.8565520334\O,0,-3.9846213694,12.2726116764,-8.4745606927\C,0,-2.
 1269626743,9.3932665552,-9.0360106559\C,0,-1.0496119613,8.7708894648,-
 9.891903376\C,0,-1.35750074,7.7643747273,-10.8143043433\C,0,0.27738343
 89,9.2029874441,-9.7840403221\C,0,-0.3640245916,7.2028679054,-11.61673
 27716\C,0,1.2746469435,8.6434686447,-10.5831848279\C,0,0.9566801218,7.
 6419932156,-11.5027107736\H,0,-1.3835130576,11.8197090193,-9.612163694
 4\H,0,-3.4577073559,10.0190151254,-10.6223156718\H,0,-2.827015645,8.62
 12893771,-8.6920379183\H,0,-1.6908504558,9.8389030907,-8.1388078266\H,
 0,-2.3843333742,7.4136617522,-10.9032317393\H,0,0.5229858129,9.9853277
 544,-9.0691286407\H,0,-0.6188055361,6.4198937934,-12.3257985435\H,0,2.
 3015675744,8.9870356914,-10.4879987406\H,0,1.7327884789,7.2035113532,-
 12.1238006922\H,0,-2.5578832712,12.300331579,-10.6591601576\N,0,-5.022
 8342379,10.2800946818,-8.4755353435\C,0,-6.1762119582,10.7736420628,-7
 .7136935197\C,0,-5.798079175,11.2746253916,-6.3066563092\O,0,-6.404819
 5013,12.2029404425,-5.7988399071\C,0,-7.262834367,9.6910083681,-7.6119
 621512\C,0,-7.8503994747,9.2014380336,-8.9518770907\C,0,-8.9119307739,
 8.1251783355,-8.6807155465\C,0,-8.432728635,10.3500536135,-9.786685029
 2\H,0,-5.0774650194,9.3550665384,-8.8814239898\H,0,-6.5709816042,11.66
 20430271,-8.2129015835\H,0,-6.8591168961,8.8365657978,-7.0505120765\H,
 0,-8.0700260177,10.1127091638,-7.0007883966\H,0,-7.0483560103,8.727908
 9111,-9.541482802\H,0,-9.7523372678,8.54516966,-8.1142071665\H,0,-9.30
 95337731,7.7218818651,-9.6182117368\H,0,-8.5005526099,7.2903181928,-8.
 1011651215\H,0,-9.2037427136,10.8882544507,-9.2212692004\H,0,-7.667463
 8608,11.074940632,-10.0857248745\H,0,-8.8963072142,9.9657919443,-10.70
 15927942\N,0,-4.8093063859,10.5646680961,-5.6607782026\C,0,-4.04853267
 64,11.2233886179,-4.6083408725\C,0,-2.653015874,11.4979547628,-5.19972
 11666\O,0,-2.2399593556,10.840158441,-6.1609581283\C,0,-4.0092081851,1
 0.4065816464,-3.3055866573\C,0,-3.5973659477,11.2547745612,-2.10069403
 66\N,0,-3.7200313238,10.6454141338,-0.8968112262\O,0,-3.1765834336,12.
 4088774317,-2.2035036529\H,0,-4.2315244326,9.9851245693,-6.2620182767\
 H,0,-4.5444712232,12.1752616897,-4.4018871917\H,0,-5.0123392799,9.9985
 054288,-3.1363729815\H,0,-3.3314649637,9.5476860425,-3.3979470945\H,0,
 -3.5118041121,11.1798697033,-0.0639788685\H,0,-4.1542539882,9.74048540
 08,-0.7891782757\N,0,-1.9471225268,12.5333329122,-4.704689335\C,0,-0.7
 882933292,13.0407723808,-5.431851048\C,0,-1.083305707,12.8925824046,-6
 .9393955673\O,0,-0.3349534788,12.3595588017,-7.747581282\C,0,0.5621349
 702,12.4266033155,-5.0119644621\C,0,1.7659088875,13.3898335848,-5.0716
 943566\C,0,2.3215762223,13.7501064841,-6.459256947\N,0,1.3803780116,14
 .4936083759,-7.3209864603\C,0,0.9155136686,15.7237525964,-7.1066558559
 \N,0,1.6557318261,16.6262280083,-6.4392157748\N,0,-0.3014429435,16.066
 4459842,-7.5599481751\O,0,-2.1745486318,13.584037439,-7.2786484964\H,0
 ,-2.728404002,13.1088792452,-7.9936741731\H,0,-2.2841012337,12.9678820
 464,-3.8468123103\H,0,-0.7747493032,14.1218399816,-5.2359454911\H,0,0.
 7481467806,11.5282337792,-5.6092861913\H,0,0.4558681687,12.104631351,-
 3.9712423132\H,0,1.5224119802,14.3160768961,-4.5319340535\H,0,2.598615
 8054,12.9320428921,-4.5238508749\H,0,3.2517749145,14.3200068172,-6.359
 2455606\H,0,2.5672617613,12.8464040421,-7.0210803377\H,0,0.8180634065,
 13.8958322101,-7.9221844308\H,0,1.2677037374,17.5118985765,-6.14878522
 57\H,0,2.650769134,16.4962141933,-6.3276002916\H,0,-0.5813936724,17.03
 51797544,-7.6239852462\H,0,-1.0148997449,15.3602400868,-7.7349668337\\
 Version=ES64L-G16RevC.01\HF=-1866.7244179\RMSD=8.285e-10\Dipole=3.7499
 334,4.0127142,2.4822418\Quadrupole=-257.9917679,405.8399398,-147.84817
 19,18.2497098,14.4023653,-292.3061765\PG=C01 [X(C25H41N8O6)]\\@
 The archive entry for this job was punched.


 ACTORS ARE SO FORTUNATE.  THEY CAN CHOOSE WHETHER
 THEY WILL APPEAR IN A TRAGEDY OR IN COMEDY,
 WHETHER THEY WILL SUFFER OF MAKE MERRY,
 LAUGH OR SHED TEARS.  BUT IN REAL LIFE IT IS DIFFERENT.
 MOST MEN AND WOMEN ARE FORCED TO PERFORM
 PARTS FOR WHICH THEY HAVE NO QUALIFICATIONS.
 THE WORLD IS A STAGE, BUT THE PLAY IS BADLY CAST.

                                   -- OSCAR WILDE
 Job cpu time:       0 days  0 hours  4 minutes 58.5 seconds.
 Elapsed time:       0 days  0 hours  1 minutes 15.6 seconds.
 File lengths (MBytes):  RWF=    344 Int=      0 D2E=      0 Chk=     56 Scr=     16
 Normal termination of Gaussian 16 at Sat Jun 11 21:07:39 2022.
