 Entering Gaussian System, Link 0=/opt/software/Gaussian/g16-AVX2-C.01/g16/g16
 Input=charge-conf-472.com
 Output=charge-conf-472.log
 Initial command:
 /opt/software/Gaussian/g16-AVX2-C.01/g16/l1.exe "/mnt/gs18/scratch/users/kengmith/Gau-17463.inp" -scrdir="/mnt/gs18/scratch/users/kengmith/"
 Entering Link 1 = /opt/software/Gaussian/g16-AVX2-C.01/g16/l1.exe PID=     17473.
  
 Copyright (c) 1988-2019, Gaussian, Inc.  All Rights Reserved.
  
 This is part of the Gaussian(R) 16 program.  It is based on
 the Gaussian(R) 09 system (copyright 2009, Gaussian, Inc.),
 the Gaussian(R) 03 system (copyright 2003, Gaussian, Inc.),
 the Gaussian(R) 98 system (copyright 1998, Gaussian, Inc.),
 the Gaussian(R) 94 system (copyright 1995, Gaussian, Inc.),
 the Gaussian 92(TM) system (copyright 1992, Gaussian, Inc.),
 the Gaussian 90(TM) system (copyright 1990, Gaussian, Inc.),
 the Gaussian 88(TM) system (copyright 1988, Gaussian, Inc.),
 the Gaussian 86(TM) system (copyright 1986, Carnegie Mellon
 University), and the Gaussian 82(TM) system (copyright 1983,
 Carnegie Mellon University). Gaussian is a federally registered
 trademark of Gaussian, Inc.
  
 This software contains proprietary and confidential information,
 including trade secrets, belonging to Gaussian, Inc.
  
 This software is provided under written license and may be
 used, copied, transmitted, or stored only in accord with that
 written license.
  
 The following legend is applicable only to US Government
 contracts under FAR:
  
                    RESTRICTED RIGHTS LEGEND
  
 Use, reproduction and disclosure by the US Government is
 subject to restrictions as set forth in subparagraphs (a)
 and (c) of the Commercial Computer Software - Restricted
 Rights clause in FAR 52.227-19.
  
 Gaussian, Inc.
 340 Quinnipiac St., Bldg. 40, Wallingford CT 06492
  
  
 ---------------------------------------------------------------
 Warning -- This program may not be used in any manner that
 competes with the business of Gaussian, Inc. or will provide
 assistance to any competitor of Gaussian, Inc.  The licensee
 of this program is prohibited from giving any competitor of
 Gaussian, Inc. access to this program.  By using this program,
 the user acknowledges that Gaussian, Inc. is engaged in the
 business of creating and licensing software in the field of
 computational chemistry and represents and warrants to the
 licensee that it is not a competitor of Gaussian, Inc. and that
 it will not use this program in any manner prohibited above.
 ---------------------------------------------------------------
  

 Cite this work as:
 Gaussian 16, Revision C.01,
 M. J. Frisch, G. W. Trucks, H. B. Schlegel, G. E. Scuseria, 
 M. A. Robb, J. R. Cheeseman, G. Scalmani, V. Barone, 
 G. A. Petersson, H. Nakatsuji, X. Li, M. Caricato, A. V. Marenich, 
 J. Bloino, B. G. Janesko, R. Gomperts, B. Mennucci, H. P. Hratchian, 
 J. V. Ortiz, A. F. Izmaylov, J. L. Sonnenberg, D. Williams-Young, 
 F. Ding, F. Lipparini, F. Egidi, J. Goings, B. Peng, A. Petrone, 
 T. Henderson, D. Ranasinghe, V. G. Zakrzewski, J. Gao, N. Rega, 
 G. Zheng, W. Liang, M. Hada, M. Ehara, K. Toyota, R. Fukuda, 
 J. Hasegawa, M. Ishida, T. Nakajima, Y. Honda, O. Kitao, H. Nakai, 
 T. Vreven, K. Throssell, J. A. Montgomery, Jr., J. E. Peralta, 
 F. Ogliaro, M. J. Bearpark, J. J. Heyd, E. N. Brothers, K. N. Kudin, 
 V. N. Staroverov, T. A. Keith, R. Kobayashi, J. Normand, 
 K. Raghavachari, A. P. Rendell, J. C. Burant, S. S. Iyengar, 
 J. Tomasi, M. Cossi, J. M. Millam, M. Klene, C. Adamo, R. Cammi, 
 J. W. Ochterski, R. L. Martin, K. Morokuma, O. Farkas, 
 J. B. Foresman, and D. J. Fox, Gaussian, Inc., Wallingford CT, 2019.
 
 ******************************************
 Gaussian 16:  ES64L-G16RevC.01  3-Jul-2019
                11-Jun-2022 
 ******************************************
 %mem=8gb
 %nproc=4
 Will use up to    4 processors via shared memory.
 %chk=conf-472.chk
 ----------------------------------------------------------------------
 # B3LYP/6-31G* empiricaldispersion=gd3 guess=read geom=check nosymm in
 tegral(ultrafinegrid)
 ----------------------------------------------------------------------
 1/29=2,38=1,172=1/1;
 2/12=2,15=1,40=1/2;
 3/5=1,6=6,7=1,11=2,14=-4,25=1,30=1,74=-5,75=-5,116=-2,124=31/1,2,3;
 4/5=1/1;
 5/5=2,38=6/2;
 6/7=2,8=2,9=2,10=2,28=1/1;
 99/5=1,9=1/99;
 ------------------------------------------------------
 Candidate Structure: Conf:472 Charge calc in gas phase
 ------------------------------------------------------
 Structure from the checkpoint file:  "conf-472.chk"
 Charge =  1 Multiplicity = 1
 Redundant internal coordinates found in file.  (old form).
 N,0,-1.5398511386,8.8862506679,-7.298539735
 C,0,-2.7110508777,8.7740728879,-8.1882541206
 C,0,-2.3574751355,9.539572519,-9.5007834985
 O,0,-1.1856499849,9.5789307772,-9.8689351755
 C,0,-3.9881296021,9.2902715648,-7.4932588409
 C,0,-4.4807960321,8.5254148325,-6.2744647183
 C,0,-3.6270804111,8.1022942645,-5.2389510709
 C,0,-5.8572091036,8.2860527149,-6.1333319116
 C,0,-4.1401982518,7.4542289454,-4.1106173889
 C,0,-6.3720104064,7.6468683976,-5.0022976267
 C,0,-5.5126918036,7.2265000113,-3.9830094494
 H,0,-1.4040072268,9.8874833075,-7.1600265598
 H,0,-2.8436287302,7.7153812949,-8.4453069869
 H,0,-4.8096060164,9.288349001,-8.2197398098
 H,0,-3.8158708556,10.338010156,-7.2159351584
 H,0,-2.5626748575,8.272170448,-5.3410778552
 H,0,-6.5381366909,8.5988731574,-6.9218618204
 H,0,-3.4596295793,7.1252357328,-3.3298902899
 H,0,-7.4401498588,7.4589717581,-4.9293815974
 H,0,-5.9061851008,6.7138467746,-3.1096209118
 H,0,-0.7336061931,8.5979879228,-7.8555734842
 N,0,-3.310985323,10.2506276115,-10.1705696138
 C,0,-2.9101703641,11.1847127327,-11.2298923791
 C,0,-1.8434516058,12.1635960658,-10.6946927427
 O,0,-0.9135786843,12.5656869969,-11.3848118469
 C,0,-4.1501151987,11.9165133406,-11.7704898219
 C,0,-3.8654798525,12.9961237215,-12.8333493284
 C,0,-3.0850738603,12.4414753749,-14.0337616825
 C,0,-5.1889347439,13.6342071012,-13.2784860816
 H,0,-4.2812034491,10.2166712684,-9.8954067443
 H,0,-2.4089210172,10.6301754266,-12.025996075
 H,0,-4.8269934108,11.1624656669,-12.197249901
 H,0,-4.6789451388,12.3805303334,-10.9244803262
 H,0,-3.2509136428,13.7771086987,-12.364292156
 H,0,-2.9871694117,13.2063954586,-14.811899631
 H,0,-2.07647072,12.1312773193,-13.7458607363
 H,0,-3.6052863163,11.5821846178,-14.4772458551
 H,0,-5.0087705695,14.4478689573,-13.9891766711
 H,0,-5.8314832069,12.8958290539,-13.7751049326
 H,0,-5.7460996178,14.0472060133,-12.4285552039
 N,0,-2.0272431183,12.5710087082,-9.3991310166
 C,0,-0.8570970217,12.9603200819,-8.6383616039
 C,0,-1.1285651761,12.6417271479,-7.1645340572
 O,0,-2.1036203556,11.9461139688,-6.8319171314
 C,0,-0.4220699847,14.4238232147,-8.9125950534
 C,0,1.0953296302,14.4911416683,-8.8420577114
 N,0,1.7268855798,14.4302949338,-10.0341754114
 O,0,1.6891111602,14.5237102761,-7.7577242494
 H,0,-2.7124909255,12.0661871537,-8.8487519981
 H,0,-0.0292748,12.2993626691,-8.9401946434
 H,0,-0.7894914004,14.6979421702,-9.9017717872
 H,0,-0.8462002591,15.1134523447,-8.1775556924
 H,0,2.7326358349,14.3175997267,-10.0382136281
 H,0,1.2120452533,14.1742394875,-10.8683857966
 N,0,-0.2333696346,13.0779171705,-6.260806608
 C,0,-0.3908668152,12.7007665356,-4.8595297821
 C,0,-0.6409221534,11.1832999935,-4.7517611953
 O,0,-1.4773070181,10.6454045034,-4.0412494984
 C,0,-1.498342073,13.5289540808,-4.178947408
 C,0,-1.6051018815,13.3587033755,-2.6434528943
 C,0,-3.0509378864,13.1527704777,-2.1703506264
 N,0,-3.5752419431,11.9128577195,-2.7567390991
 C,0,-4.8541628364,11.5832857223,-2.881821249
 N,0,-5.8075828769,12.2570545993,-2.2093576452
 N,0,-5.2145041747,10.5942946541,-3.7140604772
 O,0,0.2178107526,10.4791228311,-5.4883683894
 H,0,-0.0583030652,9.5387292432,-5.4506334891
 H,0,0.5703822966,13.6424527157,-6.5729087871
 H,0,0.5744144609,12.8871024798,-4.373506848
 H,0,-2.4396315963,13.2615795891,-4.6688501624
 H,0,-1.3054606438,14.577397516,-4.4244705616
 H,0,-1.0068790555,12.5084752801,-2.297695876
 H,0,-1.2087933968,14.2404346275,-2.1304617815
 H,0,-3.0826839728,13.0952484782,-1.0746737585
 H,0,-3.6793631524,13.9946549468,-2.4890336252
 H,0,-2.8756532234,11.3230757936,-3.2264006882
 H,0,-6.7856027939,12.1186828501,-2.4153611846
 H,0,-5.5712636095,12.8948186693,-1.4647872244
 H,0,-6.0683994919,10.0724704043,-3.5697512128
 H,0,-4.5066178715,10.0847067661,-4.2367321484
 Recover connectivity data from disk.
                           ----------------------------
                           !    Current Parameters    !
                           ! (Angstroms and Degrees)  !
 --------------------------                            --------------------------
 ! Name  Definition              Value                                          !
 --------------------------------------------------------------------------------
 ! R1    R(1,2)                  1.4751                                         !
 ! R2    R(1,12)                 1.0199                                         !
 ! R3    R(1,21)                 1.0215                                         !
 ! R4    R(2,3)                  1.56                                           !
 ! R5    R(2,5)                  1.5429                                         !
 ! R6    R(2,13)                 1.0975                                         !
 ! R7    R(3,4)                  1.2289                                         !
 ! R8    R(3,22)                 1.3651                                         !
 ! R9    R(5,6)                  1.5209                                         !
 ! R10   R(5,14)                 1.0966                                         !
 ! R11   R(5,15)                 1.0974                                         !
 ! R12   R(6,7)                  1.4072                                         !
 ! R13   R(6,8)                  1.4042                                         !
 ! R14   R(7,9)                  1.3987                                         !
 ! R15   R(7,16)                 1.0827                                         !
 ! R16   R(8,10)                 1.3974                                         !
 ! R17   R(8,17)                 1.0878                                         !
 ! R18   R(9,11)                 1.3971                                         !
 ! R19   R(9,18)                 1.0867                                         !
 ! R20   R(10,11)                1.3979                                         !
 ! R21   R(10,19)                1.087                                          !
 ! R22   R(11,20)                1.0865                                         !
 ! R23   R(22,23)                1.4681                                         !
 ! R24   R(22,30)                1.0091                                         !
 ! R25   R(23,24)                1.5435                                         !
 ! R26   R(23,26)                1.5379                                         !
 ! R27   R(23,31)                1.092                                          !
 ! R28   R(24,25)                1.2258                                         !
 ! R29   R(24,41)                1.3705                                         !
 ! R30   R(26,27)                1.5415                                         !
 ! R31   R(26,32)                1.0995                                         !
 ! R32   R(26,33)                1.1003                                         !
 ! R33   R(27,28)                1.5355                                         !
 ! R34   R(27,29)                1.5352                                         !
 ! R35   R(27,34)                1.0989                                         !
 ! R36   R(28,35)                1.0955                                         !
 ! R37   R(28,36)                1.0938                                         !
 ! R38   R(28,37)                1.098                                          !
 ! R39   R(29,38)                1.0953                                         !
 ! R40   R(29,39)                1.0976                                         !
 ! R41   R(29,40)                1.097                                          !
 ! R42   R(41,42)                1.449                                          !
 ! R43   R(41,49)                1.0136                                         !
 ! R44   R(42,43)                1.5321                                         !
 ! R45   R(42,45)                1.5512                                         !
 ! R46   R(42,50)                1.1015                                         !
 ! R47   R(43,44)                1.2431                                         !
 ! R48   R(43,55)                1.3448                                         !
 ! R49   R(45,46)                1.5205                                         !
 ! R50   R(45,51)                1.0902                                         !
 ! R51   R(45,52)                1.0935                                         !
 ! R52   R(46,47)                1.3504                                         !
 ! R53   R(46,48)                1.2367                                         !
 ! R54   R(47,53)                1.0121                                         !
 ! R55   R(47,54)                1.0132                                         !
 ! R56   R(55,56)                1.4597                                         !
 ! R57   R(55,68)                1.0306                                         !
 ! R58   R(56,57)                1.5417                                         !
 ! R59   R(56,59)                1.5413                                         !
 ! R60   R(56,69)                1.0967                                         !
 ! R61   R(57,58)                1.2222                                         !
 ! R62   R(57,66)                1.3326                                         !
 ! R63   R(59,60)                1.5486                                         !
 ! R64   R(59,70)                1.0943                                         !
 ! R65   R(59,71)                1.0939                                         !
 ! R66   R(60,61)                1.5351                                         !
 ! R67   R(60,72)                1.0956                                         !
 ! R68   R(60,73)                1.0944                                         !
 ! R69   R(61,62)                1.4684                                         !
 ! R70   R(61,74)                1.0976                                         !
 ! R71   R(61,75)                1.0978                                         !
 ! R72   R(62,63)                1.3266                                         !
 ! R73   R(62,76)                1.0285                                         !
 ! R74   R(63,64)                1.3473                                         !
 ! R75   R(63,65)                1.3419                                         !
 ! R76   R(64,77)                1.009                                          !
 ! R77   R(64,78)                1.0085                                         !
 ! R78   R(65,79)                1.0111                                         !
 ! R79   R(65,80)                1.0168                                         !
 ! R80   R(66,67)                0.9808                                         !
 ! A1    A(2,1,12)             105.2088                                         !
 ! A2    A(2,1,21)             106.0402                                         !
 ! A3    A(12,1,21)            104.2397                                         !
 ! A4    A(1,2,3)              106.8696                                         !
 ! A5    A(1,2,5)              111.1044                                         !
 ! A6    A(1,2,13)             108.0921                                         !
 ! A7    A(3,2,5)              113.7296                                         !
 ! A8    A(3,2,13)             107.6779                                         !
 ! A9    A(5,2,13)             109.1632                                         !
 ! A10   A(2,3,4)              118.9385                                         !
 ! A11   A(2,3,22)             120.6705                                         !
 ! A12   A(4,3,22)             120.1578                                         !
 ! A13   A(2,5,6)              117.442                                          !
 ! A14   A(2,5,14)             108.7263                                         !
 ! A15   A(2,5,15)             107.6578                                         !
 ! A16   A(6,5,14)             106.6986                                         !
 ! A17   A(6,5,15)             109.1756                                         !
 ! A18   A(14,5,15)            106.6583                                         !
 ! A19   A(5,6,7)              122.9831                                         !
 ! A20   A(5,6,8)              118.9332                                         !
 ! A21   A(7,6,8)              117.9999                                         !
 ! A22   A(6,7,9)              120.6893                                         !
 ! A23   A(6,7,16)             118.6751                                         !
 ! A24   A(9,7,16)             120.6263                                         !
 ! A25   A(6,8,10)             121.3607                                         !
 ! A26   A(6,8,17)             119.4532                                         !
 ! A27   A(10,8,17)            119.1852                                         !
 ! A28   A(7,9,11)             120.6367                                         !
 ! A29   A(7,9,18)             119.3455                                         !
 ! A30   A(11,9,18)            120.0177                                         !
 ! A31   A(8,10,11)            120.0826                                         !
 ! A32   A(8,10,19)            119.6936                                         !
 ! A33   A(11,10,19)           120.2101                                         !
 ! A34   A(9,11,10)            119.2278                                         !
 ! A35   A(9,11,20)            120.4061                                         !
 ! A36   A(10,11,20)           120.3582                                         !
 ! A37   A(3,22,23)            119.6539                                         !
 ! A38   A(3,22,30)            121.3521                                         !
 ! A39   A(23,22,30)           118.73                                           !
 ! A40   A(22,23,24)           109.9978                                         !
 ! A41   A(22,23,26)           109.6497                                         !
 ! A42   A(22,23,31)           109.1624                                         !
 ! A43   A(24,23,26)           112.1663                                         !
 ! A44   A(24,23,31)           104.9276                                         !
 ! A45   A(26,23,31)           110.8206                                         !
 ! A46   A(23,24,25)           122.4835                                         !
 ! A47   A(23,24,41)           115.0635                                         !
 ! A48   A(25,24,41)           122.4408                                         !
 ! A49   A(23,26,27)           115.2613                                         !
 ! A50   A(23,26,32)           107.8453                                         !
 ! A51   A(23,26,33)           108.5353                                         !
 ! A52   A(27,26,32)           109.0486                                         !
 ! A53   A(27,26,33)           108.8765                                         !
 ! A54   A(32,26,33)           106.964                                          !
 ! A55   A(26,27,28)           112.3274                                         !
 ! A56   A(26,27,29)           109.3803                                         !
 ! A57   A(26,27,34)           107.8602                                         !
 ! A58   A(28,27,29)           111.1989                                         !
 ! A59   A(28,27,34)           107.8286                                         !
 ! A60   A(29,27,34)           108.0885                                         !
 ! A61   A(27,28,35)           110.3956                                         !
 ! A62   A(27,28,36)           111.428                                          !
 ! A63   A(27,28,37)           110.9558                                         !
 ! A64   A(35,28,36)           107.6116                                         !
 ! A65   A(35,28,37)           107.5699                                         !
 ! A66   A(36,28,37)           108.7379                                         !
 ! A67   A(27,29,38)           110.8004                                         !
 ! A68   A(27,29,39)           110.8706                                         !
 ! A69   A(27,29,40)           111.6959                                         !
 ! A70   A(38,29,39)           107.606                                          !
 ! A71   A(38,29,40)           107.8546                                         !
 ! A72   A(39,29,40)           107.8483                                         !
 ! A73   A(24,41,42)           117.8981                                         !
 ! A74   A(24,41,49)           117.1245                                         !
 ! A75   A(42,41,49)           113.2465                                         !
 ! A76   A(41,42,43)           107.8245                                         !
 ! A77   A(41,42,45)           112.7766                                         !
 ! A78   A(41,42,50)           107.5675                                         !
 ! A79   A(43,42,45)           114.5782                                         !
 ! A80   A(43,42,50)           105.7825                                         !
 ! A81   A(45,42,50)           107.8737                                         !
 ! A82   A(42,43,44)           120.8466                                         !
 ! A83   A(42,43,55)           117.4564                                         !
 ! A84   A(44,43,55)           121.591                                          !
 ! A85   A(42,45,46)           108.2662                                         !
 ! A86   A(42,45,51)           107.6439                                         !
 ! A87   A(42,45,52)           111.5547                                         !
 ! A88   A(46,45,51)           111.5477                                         !
 ! A89   A(46,45,52)           109.145                                          !
 ! A90   A(51,45,52)           108.699                                          !
 ! A91   A(45,46,47)           115.0719                                         !
 ! A92   A(45,46,48)           121.3985                                         !
 ! A93   A(47,46,48)           123.4113                                         !
 ! A94   A(46,47,53)           118.2482                                         !
 ! A95   A(46,47,54)           120.0379                                         !
 ! A96   A(53,47,54)           118.2651                                         !
 ! A97   A(43,55,56)           119.309                                          !
 ! A98   A(43,55,68)           119.5597                                         !
 ! A99   A(56,55,68)           121.0916                                         !
 ! A100  A(55,56,57)           109.8115                                         !
 ! A101  A(55,56,59)           111.2596                                         !
 ! A102  A(55,56,69)           106.6531                                         !
 ! A103  A(57,56,59)           112.4252                                         !
 ! A104  A(57,56,69)           106.2017                                         !
 ! A105  A(59,56,69)           110.2096                                         !
 ! A106  A(56,57,58)           125.7911                                         !
 ! A107  A(56,57,66)           112.1451                                         !
 ! A108  A(58,57,66)           121.9897                                         !
 ! A109  A(56,59,60)           115.3593                                         !
 ! A110  A(56,59,70)           106.8036                                         !
 ! A111  A(56,59,71)           106.8093                                         !
 ! A112  A(60,59,70)           110.9611                                         !
 ! A113  A(60,59,71)           109.8806                                         !
 ! A114  A(70,59,71)           106.58                                           !
 ! A115  A(59,60,61)           112.6594                                         !
 ! A116  A(59,60,72)           111.1369                                         !
 ! A117  A(59,60,73)           110.5634                                         !
 ! A118  A(61,60,72)           108.2342                                         !
 ! A119  A(61,60,73)           107.7391                                         !
 ! A120  A(72,60,73)           106.2356                                         !
 ! A121  A(60,61,62)           109.0561                                         !
 ! A122  A(60,61,74)           109.9925                                         !
 ! A123  A(60,61,75)           110.2911                                         !
 ! A124  A(62,61,74)           110.1238                                         !
 ! A125  A(62,61,75)           109.1007                                         !
 ! A126  A(74,61,75)           108.2639                                         !
 ! A127  A(61,62,63)           126.2748                                         !
 ! A128  A(61,62,76)           115.068                                          !
 ! A129  A(63,62,76)           118.0489                                         !
 ! A130  A(62,63,64)           120.7251                                         !
 ! A131  A(62,63,65)           120.0308                                         !
 ! A132  A(64,63,65)           119.2168                                         !
 ! A133  A(63,64,77)           121.0268                                         !
 ! A134  A(63,64,78)           121.2622                                         !
 ! A135  A(77,64,78)           117.6849                                         !
 ! A136  A(63,65,79)           121.2426                                         !
 ! A137  A(63,65,80)           120.0804                                         !
 ! A138  A(79,65,80)           113.7444                                         !
 ! A139  A(57,66,67)           107.6959                                         !
 ! D1    D(12,1,2,3)            59.1325                                         !
 ! D2    D(12,1,2,5)           -65.4636                                         !
 ! D3    D(12,1,2,13)          174.7839                                         !
 ! D4    D(21,1,2,3)           -50.9512                                         !
 ! D5    D(21,1,2,5)          -175.5474                                         !
 ! D6    D(21,1,2,13)           64.7002                                         !
 ! D7    D(1,2,3,4)             30.814                                          !
 ! D8    D(1,2,3,22)          -143.6476                                         !
 ! D9    D(5,2,3,4)            153.7915                                         !
 ! D10   D(5,2,3,22)           -20.6701                                         !
 ! D11   D(13,2,3,4)           -85.1141                                         !
 ! D12   D(13,2,3,22)          100.4244                                         !
 ! D13   D(1,2,5,6)            -64.6989                                         !
 ! D14   D(1,2,5,14)           174.1096                                         !
 ! D15   D(1,2,5,15)            58.9231                                         !
 ! D16   D(3,2,5,6)            174.6741                                         !
 ! D17   D(3,2,5,14)            53.4827                                         !
 ! D18   D(3,2,5,15)           -61.7038                                         !
 ! D19   D(13,2,5,6)            54.4136                                         !
 ! D20   D(13,2,5,14)          -66.7778                                         !
 ! D21   D(13,2,5,15)          178.0357                                         !
 ! D22   D(2,3,22,23)          167.1617                                         !
 ! D23   D(2,3,22,30)           -6.8608                                         !
 ! D24   D(4,3,22,23)           -7.2324                                         !
 ! D25   D(4,3,22,30)          178.7451                                         !
 ! D26   D(2,5,6,7)             45.4579                                         !
 ! D27   D(2,5,6,8)           -137.9393                                         !
 ! D28   D(14,5,6,7)           167.6974                                         !
 ! D29   D(14,5,6,8)           -15.6999                                         !
 ! D30   D(15,5,6,7)           -77.3929                                         !
 ! D31   D(15,5,6,8)            99.2098                                         !
 ! D32   D(5,6,7,9)            177.1111                                         !
 ! D33   D(5,6,7,16)            -3.9904                                         !
 ! D34   D(8,6,7,9)              0.4785                                         !
 ! D35   D(8,6,7,16)           179.377                                          !
 ! D36   D(5,6,8,10)          -176.81                                           !
 ! D37   D(5,6,8,17)             3.5289                                         !
 ! D38   D(7,6,8,10)            -0.0373                                         !
 ! D39   D(7,6,8,17)          -179.6984                                         !
 ! D40   D(6,7,9,11)            -0.6684                                         !
 ! D41   D(6,7,9,18)           179.2115                                         !
 ! D42   D(16,7,9,11)         -179.5453                                         !
 ! D43   D(16,7,9,18)            0.3345                                         !
 ! D44   D(6,8,10,11)           -0.2218                                         !
 ! D45   D(6,8,10,19)         -178.8817                                         !
 ! D46   D(17,8,10,11)         179.4402                                         !
 ! D47   D(17,8,10,19)           0.7802                                         !
 ! D48   D(7,9,11,10)            0.3996                                         !
 ! D49   D(7,9,11,20)          179.3824                                         !
 ! D50   D(18,9,11,10)        -179.4795                                         !
 ! D51   D(18,9,11,20)          -0.4966                                         !
 ! D52   D(8,10,11,9)            0.0412                                         !
 ! D53   D(8,10,11,20)        -178.9422                                         !
 ! D54   D(19,10,11,9)         178.6941                                         !
 ! D55   D(19,10,11,20)         -0.2892                                         !
 ! D56   D(3,22,23,24)         -52.9775                                         !
 ! D57   D(3,22,23,26)        -176.7761                                         !
 ! D58   D(3,22,23,31)          61.6471                                         !
 ! D59   D(30,22,23,24)        121.2017                                         !
 ! D60   D(30,22,23,26)         -2.5969                                         !
 ! D61   D(30,22,23,31)       -124.1737                                         !
 ! D62   D(22,23,24,25)        143.6422                                         !
 ! D63   D(22,23,24,41)        -37.5958                                         !
 ! D64   D(26,23,24,25)        -94.0364                                         !
 ! D65   D(26,23,24,41)         84.7256                                         !
 ! D66   D(31,23,24,25)         26.3499                                         !
 ! D67   D(31,23,24,41)       -154.8881                                         !
 ! D68   D(22,23,26,27)        176.3997                                         !
 ! D69   D(22,23,26,32)        -61.5249                                         !
 ! D70   D(22,23,26,33)         54.0204                                         !
 ! D71   D(24,23,26,27)         53.8807                                         !
 ! D72   D(24,23,26,32)        175.956                                          !
 ! D73   D(24,23,26,33)        -68.4986                                         !
 ! D74   D(31,23,26,27)        -63.0245                                         !
 ! D75   D(31,23,26,32)         59.0508                                         !
 ! D76   D(31,23,26,33)        174.5962                                         !
 ! D77   D(23,24,41,42)        152.8437                                         !
 ! D78   D(23,24,41,49)         12.2208                                         !
 ! D79   D(25,24,41,42)        -28.3938                                         !
 ! D80   D(25,24,41,49)       -169.0167                                         !
 ! D81   D(23,26,27,28)         55.9033                                         !
 ! D82   D(23,26,27,29)        179.8806                                         !
 ! D83   D(23,26,27,34)        -62.7872                                         !
 ! D84   D(32,26,27,28)        -65.5234                                         !
 ! D85   D(32,26,27,29)         58.4539                                         !
 ! D86   D(32,26,27,34)        175.7861                                         !
 ! D87   D(33,26,27,28)        178.0998                                         !
 ! D88   D(33,26,27,29)        -57.923                                          !
 ! D89   D(33,26,27,34)         59.4092                                         !
 ! D90   D(26,27,28,35)        174.3654                                         !
 ! D91   D(26,27,28,36)        -66.1171                                         !
 ! D92   D(26,27,28,37)         55.2044                                         !
 ! D93   D(29,27,28,35)         51.4053                                         !
 ! D94   D(29,27,28,36)        170.9228                                         !
 ! D95   D(29,27,28,37)        -67.7558                                         !
 ! D96   D(34,27,28,35)        -66.9255                                         !
 ! D97   D(34,27,28,36)         52.592                                          !
 ! D98   D(34,27,28,37)        173.9135                                         !
 ! D99   D(26,27,29,38)        176.5209                                         !
 ! D100  D(26,27,29,39)        -64.0653                                         !
 ! D101  D(26,27,29,40)         56.2478                                         !
 ! D102  D(28,27,29,38)        -58.8416                                         !
 ! D103  D(28,27,29,39)         60.5723                                         !
 ! D104  D(28,27,29,40)       -179.1147                                         !
 ! D105  D(34,27,29,38)         59.3324                                         !
 ! D106  D(34,27,29,39)        178.7463                                         !
 ! D107  D(34,27,29,40)        -60.9407                                         !
 ! D108  D(24,41,42,43)       -149.9248                                         !
 ! D109  D(24,41,42,45)         82.5677                                         !
 ! D110  D(24,41,42,50)        -36.2545                                         !
 ! D111  D(49,41,42,43)         -7.8432                                         !
 ! D112  D(49,41,42,45)       -135.3507                                         !
 ! D113  D(49,41,42,50)        105.8271                                         !
 ! D114  D(41,42,43,44)         11.733                                          !
 ! D115  D(41,42,43,55)       -171.9511                                         !
 ! D116  D(45,42,43,44)        138.1914                                         !
 ! D117  D(45,42,43,55)        -45.4927                                         !
 ! D118  D(50,42,43,44)       -103.1236                                         !
 ! D119  D(50,42,43,55)         73.1923                                         !
 ! D120  D(41,42,45,46)       -145.4116                                         !
 ! D121  D(41,42,45,51)        -24.6919                                         !
 ! D122  D(41,42,45,52)         94.4751                                         !
 ! D123  D(43,42,45,46)         90.7321                                         !
 ! D124  D(43,42,45,51)       -148.5482                                         !
 ! D125  D(43,42,45,52)        -29.3812                                         !
 ! D126  D(50,42,45,46)        -26.7679                                         !
 ! D127  D(50,42,45,51)         93.9518                                         !
 ! D128  D(50,42,45,52)       -146.8812                                         !
 ! D129  D(42,43,55,56)       -174.8271                                         !
 ! D130  D(42,43,55,68)          2.908                                          !
 ! D131  D(44,43,55,56)          1.4596                                         !
 ! D132  D(44,43,55,68)        179.1947                                         !
 ! D133  D(42,45,46,47)         97.474                                          !
 ! D134  D(42,45,46,48)        -78.7015                                         !
 ! D135  D(51,45,46,47)        -20.7877                                         !
 ! D136  D(51,45,46,48)        163.0368                                         !
 ! D137  D(52,45,46,47)       -140.9169                                         !
 ! D138  D(52,45,46,48)         42.9076                                         !
 ! D139  D(45,46,47,53)       -170.1125                                         !
 ! D140  D(45,46,47,54)        -11.4197                                         !
 ! D141  D(48,46,47,53)          5.9766                                         !
 ! D142  D(48,46,47,54)        164.6695                                         !
 ! D143  D(43,55,56,57)         48.2599                                         !
 ! D144  D(43,55,56,59)        -76.857                                          !
 ! D145  D(43,55,56,69)        162.9251                                         !
 ! D146  D(68,55,56,57)       -129.4394                                         !
 ! D147  D(68,55,56,59)        105.4436                                         !
 ! D148  D(68,55,56,69)        -14.7742                                         !
 ! D149  D(55,56,57,58)       -135.836                                          !
 ! D150  D(55,56,57,66)         47.2606                                         !
 ! D151  D(59,56,57,58)        -11.3917                                         !
 ! D152  D(59,56,57,66)        171.7049                                         !
 ! D153  D(69,56,57,58)        109.2109                                         !
 ! D154  D(69,56,57,66)        -67.6925                                         !
 ! D155  D(55,56,59,60)       -171.2886                                         !
 ! D156  D(55,56,59,70)         64.8856                                         !
 ! D157  D(55,56,59,71)        -48.8561                                         !
 ! D158  D(57,56,59,60)         65.0701                                         !
 ! D159  D(57,56,59,70)        -58.7557                                         !
 ! D160  D(57,56,59,71)       -172.4974                                         !
 ! D161  D(69,56,59,60)        -53.1958                                         !
 ! D162  D(69,56,59,70)       -177.0216                                         !
 ! D163  D(69,56,59,71)         69.2366                                         !
 ! D164  D(56,57,66,67)       -173.9443                                         !
 ! D165  D(58,57,66,67)          9.0172                                         !
 ! D166  D(56,59,60,61)       -133.6634                                         !
 ! D167  D(56,59,60,72)        -11.9997                                         !
 ! D168  D(56,59,60,73)        105.7227                                         !
 ! D169  D(70,59,60,61)        -12.0516                                         !
 ! D170  D(70,59,60,72)        109.612                                          !
 ! D171  D(70,59,60,73)       -132.6656                                         !
 ! D172  D(71,59,60,61)        105.5596                                         !
 ! D173  D(71,59,60,72)       -132.7768                                         !
 ! D174  D(71,59,60,73)        -15.0544                                         !
 ! D175  D(59,60,61,62)         62.3855                                         !
 ! D176  D(59,60,61,74)       -176.7497                                         !
 ! D177  D(59,60,61,75)        -57.4044                                         !
 ! D178  D(72,60,61,62)        -60.9098                                         !
 ! D179  D(72,60,61,74)         59.955                                          !
 ! D180  D(72,60,61,75)        179.3003                                         !
 ! D181  D(73,60,61,62)       -175.3944                                         !
 ! D182  D(73,60,61,74)        -54.5297                                         !
 ! D183  D(73,60,61,75)         64.8156                                         !
 ! D184  D(60,61,62,63)       -160.6715                                         !
 ! D185  D(60,61,62,76)         10.1537                                         !
 ! D186  D(74,61,62,63)         78.5442                                         !
 ! D187  D(74,61,62,76)       -110.6307                                         !
 ! D188  D(75,61,62,63)        -40.1481                                         !
 ! D189  D(75,61,62,76)        130.677                                          !
 ! D190  D(61,62,63,64)        -14.4113                                         !
 ! D191  D(61,62,63,65)        163.6741                                         !
 ! D192  D(76,62,63,64)        175.0076                                         !
 ! D193  D(76,62,63,65)         -6.9071                                         !
 ! D194  D(62,63,64,77)        169.5451                                         !
 ! D195  D(62,63,64,78)        -12.3581                                         !
 ! D196  D(65,63,64,77)         -8.5557                                         !
 ! D197  D(65,63,64,78)        169.5411                                         !
 ! D198  D(62,63,65,79)        154.7303                                         !
 ! D199  D(62,63,65,80)          1.1404                                         !
 ! D200  D(64,63,65,79)        -27.1555                                         !
 ! D201  D(64,63,65,80)        179.2546                                         !
 --------------------------------------------------------------------------------
 Symmetry turned off by external request.
 Stoichiometry    C25H41N8O6(1+)
 Framework group  C1[X(C25H41N8O6)]
 Deg. of freedom   234
 Full point group                 C1      NOp   1
                          Input orientation:                          
 ---------------------------------------------------------------------
 Center     Atomic      Atomic             Coordinates (Angstroms)
 Number     Number       Type             X           Y           Z
 ---------------------------------------------------------------------
      1          7           0       -1.539851    8.886251   -7.298540
      2          6           0       -2.711051    8.774073   -8.188254
      3          6           0       -2.357475    9.539573   -9.500783
      4          8           0       -1.185650    9.578931   -9.868935
      5          6           0       -3.988130    9.290272   -7.493259
      6          6           0       -4.480796    8.525415   -6.274465
      7          6           0       -3.627080    8.102294   -5.238951
      8          6           0       -5.857209    8.286053   -6.133332
      9          6           0       -4.140198    7.454229   -4.110617
     10          6           0       -6.372010    7.646868   -5.002298
     11          6           0       -5.512692    7.226500   -3.983009
     12          1           0       -1.404007    9.887483   -7.160027
     13          1           0       -2.843629    7.715381   -8.445307
     14          1           0       -4.809606    9.288349   -8.219740
     15          1           0       -3.815871   10.338010   -7.215935
     16          1           0       -2.562675    8.272170   -5.341078
     17          1           0       -6.538137    8.598873   -6.921862
     18          1           0       -3.459630    7.125236   -3.329890
     19          1           0       -7.440150    7.458972   -4.929382
     20          1           0       -5.906185    6.713847   -3.109621
     21          1           0       -0.733606    8.597988   -7.855573
     22          7           0       -3.310985   10.250628  -10.170570
     23          6           0       -2.910170   11.184713  -11.229892
     24          6           0       -1.843452   12.163596  -10.694693
     25          8           0       -0.913579   12.565687  -11.384812
     26          6           0       -4.150115   11.916513  -11.770490
     27          6           0       -3.865480   12.996124  -12.833349
     28          6           0       -3.085074   12.441475  -14.033762
     29          6           0       -5.188935   13.634207  -13.278486
     30          1           0       -4.281203   10.216671   -9.895407
     31          1           0       -2.408921   10.630175  -12.025996
     32          1           0       -4.826993   11.162466  -12.197250
     33          1           0       -4.678945   12.380530  -10.924480
     34          1           0       -3.250914   13.777109  -12.364292
     35          1           0       -2.987169   13.206395  -14.811900
     36          1           0       -2.076471   12.131277  -13.745861
     37          1           0       -3.605286   11.582185  -14.477246
     38          1           0       -5.008771   14.447869  -13.989177
     39          1           0       -5.831483   12.895829  -13.775105
     40          1           0       -5.746100   14.047206  -12.428555
     41          7           0       -2.027243   12.571009   -9.399131
     42          6           0       -0.857097   12.960320   -8.638362
     43          6           0       -1.128565   12.641727   -7.164534
     44          8           0       -2.103620   11.946114   -6.831917
     45          6           0       -0.422070   14.423823   -8.912595
     46          6           0        1.095330   14.491142   -8.842058
     47          7           0        1.726886   14.430295  -10.034175
     48          8           0        1.689111   14.523710   -7.757724
     49          1           0       -2.712491   12.066187   -8.848752
     50          1           0       -0.029275   12.299363   -8.940195
     51          1           0       -0.789491   14.697942   -9.901772
     52          1           0       -0.846200   15.113452   -8.177556
     53          1           0        2.732636   14.317600  -10.038214
     54          1           0        1.212045   14.174239  -10.868386
     55          7           0       -0.233370   13.077917   -6.260807
     56          6           0       -0.390867   12.700767   -4.859530
     57          6           0       -0.640922   11.183300   -4.751761
     58          8           0       -1.477307   10.645405   -4.041249
     59          6           0       -1.498342   13.528954   -4.178947
     60          6           0       -1.605102   13.358703   -2.643453
     61          6           0       -3.050938   13.152770   -2.170351
     62          7           0       -3.575242   11.912858   -2.756739
     63          6           0       -4.854163   11.583286   -2.881821
     64          7           0       -5.807583   12.257055   -2.209358
     65          7           0       -5.214504   10.594295   -3.714060
     66          8           0        0.217811   10.479123   -5.488368
     67          1           0       -0.058303    9.538729   -5.450633
     68          1           0        0.570382   13.642453   -6.572909
     69          1           0        0.574414   12.887102   -4.373507
     70          1           0       -2.439632   13.261580   -4.668850
     71          1           0       -1.305461   14.577398   -4.424471
     72          1           0       -1.006879   12.508475   -2.297696
     73          1           0       -1.208793   14.240435   -2.130462
     74          1           0       -3.082684   13.095248   -1.074674
     75          1           0       -3.679363   13.994655   -2.489034
     76          1           0       -2.875653   11.323076   -3.226401
     77          1           0       -6.785603   12.118683   -2.415361
     78          1           0       -5.571264   12.894819   -1.464787
     79          1           0       -6.068399   10.072470   -3.569751
     80          1           0       -4.506618   10.084707   -4.236732
 ---------------------------------------------------------------------
 Rotational constants (GHZ):           0.1135421           0.0670237           0.0519371
 Standard basis: 6-31G(d) (6D, 7F)
   667 basis functions,  1256 primitive gaussians,   667 cartesian basis functions
   147 alpha electrons      147 beta electrons
       nuclear repulsion energy      4942.1606121328 Hartrees.
 NAtoms=   80 NActive=   80 NUniq=   80 SFac= 1.00D+00 NAtFMM=   60 NAOKFM=T Big=T
 Integral buffers will be    131072 words long.
 Raffenetti 2 integral format.
 Two-electron integral symmetry is turned off.
 Nuclear repulsion after empirical dispersion term =     4942.0464349203 Hartrees.
 One-electron integrals computed using PRISM.
 NBasis=   667 RedAO= T EigKep=  4.58D-04  NBF=   667
 NBsUse=   667 1.00D-06 EigRej= -1.00D+00 NBFU=   667
 Initial guess from the checkpoint file:  "conf-472.chk"
 B after Tr=     0.000000    0.000000    0.000000
         Rot=    1.000000    0.000000    0.000000    0.000000 Ang=   0.00 deg.
 Requested convergence on RMS density matrix=1.00D-08 within 128 cycles.
 Requested convergence on MAX density matrix=1.00D-06.
 Requested convergence on             energy=1.00D-06.
 No special actions if energy rises.
 SCF Done:  E(RB3LYP) =  -1866.74021153     A.U. after    2 cycles
            NFock=  2  Conv=0.92D-08     -V/T= 2.0094

 **********************************************************************

            Population analysis using the SCF Density.

 **********************************************************************

 Alpha  occ. eigenvalues --  -19.30744 -19.26370 -19.23402 -19.20617 -19.20059
 Alpha  occ. eigenvalues --  -19.19988 -14.51577 -14.49863 -14.49783 -14.46486
 Alpha  occ. eigenvalues --  -14.45129 -14.44138 -14.43636 -14.40010 -10.47031
 Alpha  occ. eigenvalues --  -10.44430 -10.39920 -10.37969 -10.37005 -10.36776
 Alpha  occ. eigenvalues --  -10.35752 -10.35704 -10.33448 -10.31493 -10.31281
 Alpha  occ. eigenvalues --  -10.30993 -10.30142 -10.29400 -10.28729 -10.28562
 Alpha  occ. eigenvalues --  -10.28487 -10.28386 -10.28352 -10.28273 -10.27428
 Alpha  occ. eigenvalues --  -10.26996 -10.25788 -10.23581 -10.22884  -1.22488
 Alpha  occ. eigenvalues --   -1.15596  -1.15174  -1.13316  -1.12563  -1.12066
 Alpha  occ. eigenvalues --   -1.11391  -1.04910  -1.03750  -1.03473  -1.01802
 Alpha  occ. eigenvalues --   -1.00252  -0.99085  -0.97673  -0.94691  -0.91928
 Alpha  occ. eigenvalues --   -0.88836  -0.88100  -0.86941  -0.85756  -0.83583
 Alpha  occ. eigenvalues --   -0.82648  -0.80799  -0.80082  -0.78090  -0.77373
 Alpha  occ. eigenvalues --   -0.74449  -0.74275  -0.73687  -0.73179  -0.72359
 Alpha  occ. eigenvalues --   -0.71062  -0.69623  -0.69266  -0.68263  -0.67991
 Alpha  occ. eigenvalues --   -0.67306  -0.66863  -0.66074  -0.65031  -0.64651
 Alpha  occ. eigenvalues --   -0.63379  -0.62716  -0.62191  -0.61860  -0.61241
 Alpha  occ. eigenvalues --   -0.60733  -0.60000  -0.59837  -0.59316  -0.58204
 Alpha  occ. eigenvalues --   -0.57778  -0.56771  -0.56365  -0.55901  -0.55528
 Alpha  occ. eigenvalues --   -0.55374  -0.54742  -0.54273  -0.53971  -0.53662
 Alpha  occ. eigenvalues --   -0.53523  -0.53000  -0.52329  -0.52046  -0.51209
 Alpha  occ. eigenvalues --   -0.50920  -0.50848  -0.50260  -0.50086  -0.49773
 Alpha  occ. eigenvalues --   -0.49504  -0.48868  -0.48459  -0.48182  -0.48112
 Alpha  occ. eigenvalues --   -0.47150  -0.46710  -0.46453  -0.46124  -0.45890
 Alpha  occ. eigenvalues --   -0.45763  -0.45624  -0.44973  -0.44340  -0.43765
 Alpha  occ. eigenvalues --   -0.43561  -0.43425  -0.43179  -0.42746  -0.42504
 Alpha  occ. eigenvalues --   -0.42149  -0.40388  -0.39702  -0.39685  -0.39174
 Alpha  occ. eigenvalues --   -0.38943  -0.37483  -0.36726  -0.36000  -0.35647
 Alpha  occ. eigenvalues --   -0.34731  -0.34661  -0.34375  -0.33915  -0.33804
 Alpha  occ. eigenvalues --   -0.32734  -0.32425
 Alpha virt. eigenvalues --   -0.11371  -0.11155  -0.09978  -0.09700  -0.08873
 Alpha virt. eigenvalues --   -0.07296  -0.06803  -0.06423  -0.05566  -0.03125
 Alpha virt. eigenvalues --   -0.02342  -0.01826  -0.01191  -0.00798   0.00094
 Alpha virt. eigenvalues --    0.00890   0.00939   0.01393   0.01540   0.02224
 Alpha virt. eigenvalues --    0.02399   0.03101   0.03652   0.04075   0.04435
 Alpha virt. eigenvalues --    0.04690   0.05156   0.05368   0.05705   0.06014
 Alpha virt. eigenvalues --    0.06261   0.06574   0.07214   0.07359   0.07580
 Alpha virt. eigenvalues --    0.07870   0.07994   0.08452   0.08854   0.08961
 Alpha virt. eigenvalues --    0.09086   0.09567   0.09781   0.10850   0.10907
 Alpha virt. eigenvalues --    0.11503   0.11663   0.11892   0.11961   0.12253
 Alpha virt. eigenvalues --    0.12369   0.12559   0.13114   0.13444   0.14173
 Alpha virt. eigenvalues --    0.14454   0.14507   0.15374   0.15754   0.16129
 Alpha virt. eigenvalues --    0.16603   0.17153   0.17769   0.18124   0.18586
 Alpha virt. eigenvalues --    0.18709   0.19036   0.19284   0.19784   0.20818
 Alpha virt. eigenvalues --    0.21407   0.21826   0.22940   0.23514   0.24129
 Alpha virt. eigenvalues --    0.24448   0.24939   0.26168   0.26870   0.27573
 Alpha virt. eigenvalues --    0.28838   0.29512   0.30157   0.31320   0.32461
 Alpha virt. eigenvalues --    0.34279   0.35256   0.36790   0.38338   0.38940
 Alpha virt. eigenvalues --    0.39369   0.40112   0.41260   0.42443   0.42688
 Alpha virt. eigenvalues --    0.42964   0.43343   0.43629   0.43914   0.44559
 Alpha virt. eigenvalues --    0.44746   0.44998   0.45256   0.45592   0.45884
 Alpha virt. eigenvalues --    0.46325   0.46603   0.46943   0.47679   0.48171
 Alpha virt. eigenvalues --    0.48269   0.48610   0.48878   0.49414   0.49849
 Alpha virt. eigenvalues --    0.49988   0.50275   0.51121   0.51365   0.51768
 Alpha virt. eigenvalues --    0.52062   0.52597   0.52801   0.53093   0.53847
 Alpha virt. eigenvalues --    0.53977   0.54803   0.55180   0.55690   0.55872
 Alpha virt. eigenvalues --    0.56668   0.57175   0.57485   0.57606   0.58077
 Alpha virt. eigenvalues --    0.58355   0.58447   0.59056   0.59296   0.60063
 Alpha virt. eigenvalues --    0.60396   0.60495   0.61074   0.61795   0.62542
 Alpha virt. eigenvalues --    0.62804   0.63422   0.63832   0.64812   0.64973
 Alpha virt. eigenvalues --    0.65642   0.65915   0.66272   0.67088   0.67165
 Alpha virt. eigenvalues --    0.68722   0.69339   0.70022   0.70827   0.70834
 Alpha virt. eigenvalues --    0.71283   0.71521   0.71884   0.72026   0.72469
 Alpha virt. eigenvalues --    0.72933   0.73047   0.73604   0.73799   0.74165
 Alpha virt. eigenvalues --    0.74787   0.75020   0.75298   0.75738   0.76037
 Alpha virt. eigenvalues --    0.76234   0.76775   0.77289   0.77444   0.77838
 Alpha virt. eigenvalues --    0.78505   0.78569   0.78740   0.78991   0.79445
 Alpha virt. eigenvalues --    0.80190   0.80580   0.81049   0.81190   0.81506
 Alpha virt. eigenvalues --    0.82159   0.82551   0.83038   0.83239   0.83476
 Alpha virt. eigenvalues --    0.84164   0.84641   0.84942   0.85035   0.85647
 Alpha virt. eigenvalues --    0.85929   0.85979   0.86985   0.87112   0.88231
 Alpha virt. eigenvalues --    0.88822   0.89068   0.89448   0.89719   0.90400
 Alpha virt. eigenvalues --    0.91009   0.91455   0.91789   0.92126   0.93048
 Alpha virt. eigenvalues --    0.93802   0.94136   0.94622   0.95130   0.95733
 Alpha virt. eigenvalues --    0.96213   0.96357   0.97233   0.97508   0.97753
 Alpha virt. eigenvalues --    0.99201   1.00139   1.00514   1.01409   1.02251
 Alpha virt. eigenvalues --    1.02460   1.02693   1.03636   1.04024   1.05411
 Alpha virt. eigenvalues --    1.06071   1.06886   1.07409   1.07691   1.08842
 Alpha virt. eigenvalues --    1.10524   1.10745   1.11957   1.12462   1.13318
 Alpha virt. eigenvalues --    1.14331   1.15542   1.15999   1.16090   1.16940
 Alpha virt. eigenvalues --    1.17608   1.17977   1.18346   1.18803   1.20181
 Alpha virt. eigenvalues --    1.20448   1.22012   1.22859   1.23634   1.24456
 Alpha virt. eigenvalues --    1.25572   1.26665   1.27235   1.28216   1.28789
 Alpha virt. eigenvalues --    1.29817   1.31005   1.31505   1.31939   1.32815
 Alpha virt. eigenvalues --    1.33420   1.33484   1.33842   1.35494   1.36067
 Alpha virt. eigenvalues --    1.36487   1.37943   1.38736   1.38823   1.39288
 Alpha virt. eigenvalues --    1.39979   1.41073   1.41927   1.42450   1.42681
 Alpha virt. eigenvalues --    1.43506   1.44688   1.45122   1.45565   1.46825
 Alpha virt. eigenvalues --    1.47273   1.48907   1.49214   1.50528   1.51006
 Alpha virt. eigenvalues --    1.52300   1.53980   1.54630   1.56140   1.56834
 Alpha virt. eigenvalues --    1.57518   1.58443   1.58792   1.59942   1.61134
 Alpha virt. eigenvalues --    1.61710   1.62367   1.62829   1.63872   1.64760
 Alpha virt. eigenvalues --    1.65143   1.66314   1.66950   1.67524   1.68392
 Alpha virt. eigenvalues --    1.68747   1.69522   1.70051   1.70547   1.71065
 Alpha virt. eigenvalues --    1.71460   1.72237   1.72840   1.73222   1.73779
 Alpha virt. eigenvalues --    1.74204   1.74258   1.75208   1.75719   1.76562
 Alpha virt. eigenvalues --    1.77122   1.77557   1.77818   1.78723   1.79274
 Alpha virt. eigenvalues --    1.79843   1.80998   1.81336   1.81871   1.82218
 Alpha virt. eigenvalues --    1.82552   1.83104   1.83444   1.84269   1.84657
 Alpha virt. eigenvalues --    1.84883   1.85446   1.86460   1.87571   1.87975
 Alpha virt. eigenvalues --    1.88796   1.89164   1.89609   1.90042   1.90740
 Alpha virt. eigenvalues --    1.91805   1.92117   1.93325   1.93835   1.94232
 Alpha virt. eigenvalues --    1.94722   1.95036   1.95703   1.96000   1.96187
 Alpha virt. eigenvalues --    1.97017   1.97357   1.97709   1.98553   1.99306
 Alpha virt. eigenvalues --    2.00531   2.01086   2.01484   2.02002   2.04214
 Alpha virt. eigenvalues --    2.04911   2.05309   2.05507   2.05959   2.06452
 Alpha virt. eigenvalues --    2.07180   2.08247   2.08422   2.08928   2.10442
 Alpha virt. eigenvalues --    2.10690   2.11872   2.12538   2.13291   2.14104
 Alpha virt. eigenvalues --    2.15133   2.16353   2.17676   2.18462   2.18841
 Alpha virt. eigenvalues --    2.19202   2.20161   2.20528   2.20994   2.21907
 Alpha virt. eigenvalues --    2.22212   2.23345   2.24543   2.25349   2.25871
 Alpha virt. eigenvalues --    2.26448   2.26952   2.27143   2.28806   2.29688
 Alpha virt. eigenvalues --    2.30796   2.31747   2.32252   2.32985   2.33594
 Alpha virt. eigenvalues --    2.34527   2.35743   2.37192   2.37809   2.38470
 Alpha virt. eigenvalues --    2.39038   2.41087   2.41775   2.42910   2.44738
 Alpha virt. eigenvalues --    2.45271   2.45508   2.46086   2.46613   2.46925
 Alpha virt. eigenvalues --    2.47464   2.49010   2.49881   2.50327   2.50840
 Alpha virt. eigenvalues --    2.51585   2.51897   2.53471   2.53946   2.54328
 Alpha virt. eigenvalues --    2.55358   2.56080   2.56389   2.56846   2.57956
 Alpha virt. eigenvalues --    2.58780   2.60304   2.61027   2.62839   2.63350
 Alpha virt. eigenvalues --    2.64523   2.65316   2.66322   2.66690   2.67184
 Alpha virt. eigenvalues --    2.67842   2.69478   2.72135   2.73364   2.73792
 Alpha virt. eigenvalues --    2.76008   2.78041   2.79856   2.81077   2.84027
 Alpha virt. eigenvalues --    2.87701   2.88058   2.91429   2.91685   2.94038
 Alpha virt. eigenvalues --    2.94164   2.96413   2.97186   2.97390   2.97737
 Alpha virt. eigenvalues --    2.99502   3.00511   3.06152   3.10239   3.11381
 Alpha virt. eigenvalues --    3.31191   3.67533   3.73719   3.77344   3.81674
 Alpha virt. eigenvalues --    3.87194   3.90463   3.94553   3.96111   3.99524
 Alpha virt. eigenvalues --    4.01947   4.03835   4.04507   4.05420   4.07522
 Alpha virt. eigenvalues --    4.09568   4.10958   4.14280   4.15060   4.17253
 Alpha virt. eigenvalues --    4.18725   4.21621   4.22143   4.23540   4.24226
 Alpha virt. eigenvalues --    4.27406   4.30188   4.31770   4.34474   4.36405
 Alpha virt. eigenvalues --    4.39965   4.42318   4.44413   4.50643   4.53705
 Alpha virt. eigenvalues --    4.56267   4.59272   4.60738   4.64785   4.67061
          Condensed to atoms (all electrons):
 Mulliken charges:
               1
     1  N   -0.764902
     2  C   -0.067647
     3  C    0.595990
     4  O   -0.515475
     5  C   -0.387582
     6  C    0.146455
     7  C   -0.215730
     8  C   -0.189686
     9  C   -0.134449
    10  C   -0.158266
    11  C   -0.146846
    12  H    0.331485
    13  H    0.181368
    14  H    0.136560
    15  H    0.190058
    16  H    0.184194
    17  H    0.137070
    18  H    0.151200
    19  H    0.150852
    20  H    0.151250
    21  H    0.329452
    22  N   -0.658121
    23  C   -0.006786
    24  C    0.630849
    25  O   -0.536587
    26  C   -0.305221
    27  C   -0.076769
    28  C   -0.461287
    29  C   -0.444883
    30  H    0.338789
    31  H    0.202852
    32  H    0.152959
    33  H    0.130796
    34  H    0.139903
    35  H    0.153193
    36  H    0.174515
    37  H    0.140359
    38  H    0.157048
    39  H    0.146790
    40  H    0.137531
    41  N   -0.614838
    42  C   -0.040079
    43  C    0.615454
    44  O   -0.577159
    45  C   -0.371888
    46  C    0.588296
    47  N   -0.719837
    48  O   -0.528678
    49  H    0.347952
    50  H    0.212850
    51  H    0.199764
    52  H    0.176797
    53  H    0.357403
    54  H    0.375930
    55  N   -0.619684
    56  C   -0.042663
    57  C    0.633893
    58  O   -0.514292
    59  C   -0.283623
    60  C   -0.316663
    61  C   -0.156206
    62  N   -0.630335
    63  C    0.798465
    64  N   -0.762328
    65  N   -0.774222
    66  O   -0.549816
    67  H    0.443423
    68  H    0.402401
    69  H    0.201047
    70  H    0.178090
    71  H    0.174500
    72  H    0.176808
    73  H    0.180924
    74  H    0.179923
    75  H    0.176423
    76  H    0.430722
    77  H    0.379090
    78  H    0.384079
    79  H    0.367495
    80  H    0.399301
 Sum of Mulliken charges =   1.00000
 Mulliken charges with hydrogens summed into heavy atoms:
               1
     1  N   -0.103964
     2  C    0.113722
     3  C    0.595990
     4  O   -0.515475
     5  C   -0.060965
     6  C    0.146455
     7  C   -0.031535
     8  C   -0.052615
     9  C    0.016751
    10  C   -0.007414
    11  C    0.004405
    22  N   -0.319332
    23  C    0.196066
    24  C    0.630849
    25  O   -0.536587
    26  C   -0.021465
    27  C    0.063134
    28  C    0.006780
    29  C   -0.003515
    41  N   -0.266886
    42  C    0.172770
    43  C    0.615454
    44  O   -0.577159
    45  C    0.004672
    46  C    0.588296
    47  N    0.013496
    48  O   -0.528678
    55  N   -0.217284
    56  C    0.158384
    57  C    0.633893
    58  O   -0.514292
    59  C    0.068967
    60  C    0.041069
    61  C    0.200140
    62  N   -0.199613
    63  C    0.798465
    64  N    0.000841
    65  N   -0.007426
    66  O   -0.106393
 Electronic spatial extent (au):  <R**2>=         220621.9058
 Charge=              1.0000 electrons
 Dipole moment (field-independent basis, Debye):
    X=            -20.2938    Y=             57.6722    Z=            -21.8161  Tot=             64.9142
 Quadrupole moment (field-independent basis, Debye-Ang):
   XX=           -104.6803   YY=            482.1525   ZZ=            -67.8999
   XY=           -228.6565   XZ=             82.9190   YZ=           -265.6335
 Traceless Quadrupole moment (field-independent basis, Debye-Ang):
   XX=           -207.8711   YY=            378.9617   ZZ=           -171.0906
   XY=           -228.6565   XZ=             82.9190   YZ=           -265.6335
 Octapole moment (field-independent basis, Debye-Ang**2):
  XXX=           1012.5994  YYY=           1126.6292  ZZZ=           3461.6009  XYY=          -2066.9082
  XXY=          -1236.2604  XXZ=           1121.7081  XZZ=              9.5688  YZZ=           -564.9065
  YYZ=          -1655.7335  XYZ=            875.4012
 Hexadecapole moment (field-independent basis, Debye-Ang**3):
 XXXX=         -10488.3141 YYYY=         -70413.0445 ZZZZ=         -72147.8648 XXXY=          10306.3962
 XXXZ=          -9287.1418 YYYX=         -13301.4439 YYYZ=          15671.4793 ZZZX=          -6565.0079
 ZZZY=          37964.1889 XXYY=         -17824.0118 XXZZ=         -13298.7338 YYZZ=         -19003.7033
 XXYZ=          13544.3368 YYXZ=           5414.7068 ZZXY=            220.0914
 N-N= 4.942046434920D+03 E-N=-1.420295643143D+04  KE= 1.849274856843D+03
 Unable to Open any file for archive entry.
 1\1\GINC-LAC-257\SP\RB3LYP\6-31G(d)\C25H41N8O6(1+)\KENGMITH\11-Jun-202
 2\0\\# B3LYP/6-31G* empiricaldispersion=gd3 guess=read geom=check nosy
 mm integral(ultrafinegrid)\\Candidate Structure: Conf:472 Charge calc 
 in gas phase\\1,1\N,0,-1.5398511386,8.8862506679,-7.298539735\C,0,-2.7
 110508777,8.7740728879,-8.1882541206\C,0,-2.3574751355,9.539572519,-9.
 5007834985\O,0,-1.1856499849,9.5789307772,-9.8689351755\C,0,-3.9881296
 021,9.2902715648,-7.4932588409\C,0,-4.4807960321,8.5254148325,-6.27446
 47183\C,0,-3.6270804111,8.1022942645,-5.2389510709\C,0,-5.8572091036,8
 .2860527149,-6.1333319116\C,0,-4.1401982518,7.4542289454,-4.1106173889
 \C,0,-6.3720104064,7.6468683976,-5.0022976267\C,0,-5.5126918036,7.2265
 000113,-3.9830094494\H,0,-1.4040072268,9.8874833075,-7.1600265598\H,0,
 -2.8436287302,7.7153812949,-8.4453069869\H,0,-4.8096060164,9.288349001
 ,-8.2197398098\H,0,-3.8158708556,10.338010156,-7.2159351584\H,0,-2.562
 6748575,8.272170448,-5.3410778552\H,0,-6.5381366909,8.5988731574,-6.92
 18618204\H,0,-3.4596295793,7.1252357328,-3.3298902899\H,0,-7.440149858
 8,7.4589717581,-4.9293815974\H,0,-5.9061851008,6.7138467746,-3.1096209
 118\H,0,-0.7336061931,8.5979879228,-7.8555734842\N,0,-3.310985323,10.2
 506276115,-10.1705696138\C,0,-2.9101703641,11.1847127327,-11.229892379
 1\C,0,-1.8434516058,12.1635960658,-10.6946927427\O,0,-0.9135786843,12.
 5656869969,-11.3848118469\C,0,-4.1501151987,11.9165133406,-11.77048982
 19\C,0,-3.8654798525,12.9961237215,-12.8333493284\C,0,-3.0850738603,12
 .4414753749,-14.0337616825\C,0,-5.1889347439,13.6342071012,-13.2784860
 816\H,0,-4.2812034491,10.2166712684,-9.8954067443\H,0,-2.4089210172,10
 .6301754266,-12.025996075\H,0,-4.8269934108,11.1624656669,-12.19724990
 1\H,0,-4.6789451388,12.3805303334,-10.9244803262\H,0,-3.2509136428,13.
 7771086987,-12.364292156\H,0,-2.9871694117,13.2063954586,-14.811899631
 \H,0,-2.07647072,12.1312773193,-13.7458607363\H,0,-3.6052863163,11.582
 1846178,-14.4772458551\H,0,-5.0087705695,14.4478689573,-13.9891766711\
 H,0,-5.8314832069,12.8958290539,-13.7751049326\H,0,-5.7460996178,14.04
 72060133,-12.4285552039\N,0,-2.0272431183,12.5710087082,-9.3991310166\
 C,0,-0.8570970217,12.9603200819,-8.6383616039\C,0,-1.1285651761,12.641
 7271479,-7.1645340572\O,0,-2.1036203556,11.9461139688,-6.8319171314\C,
 0,-0.4220699847,14.4238232147,-8.9125950534\C,0,1.0953296302,14.491141
 6683,-8.8420577114\N,0,1.7268855798,14.4302949338,-10.0341754114\O,0,1
 .6891111602,14.5237102761,-7.7577242494\H,0,-2.7124909255,12.066187153
 7,-8.8487519981\H,0,-0.0292748,12.2993626691,-8.9401946434\H,0,-0.7894
 914004,14.6979421702,-9.9017717872\H,0,-0.8462002591,15.1134523447,-8.
 1775556924\H,0,2.7326358349,14.3175997267,-10.0382136281\H,0,1.2120452
 533,14.1742394875,-10.8683857966\N,0,-0.2333696346,13.0779171705,-6.26
 0806608\C,0,-0.3908668152,12.7007665356,-4.8595297821\C,0,-0.640922153
 4,11.1832999935,-4.7517611953\O,0,-1.4773070181,10.6454045034,-4.04124
 94984\C,0,-1.498342073,13.5289540808,-4.178947408\C,0,-1.6051018815,13
 .3587033755,-2.6434528943\C,0,-3.0509378864,13.1527704777,-2.170350626
 4\N,0,-3.5752419431,11.9128577195,-2.7567390991\C,0,-4.8541628364,11.5
 832857223,-2.881821249\N,0,-5.8075828769,12.2570545993,-2.2093576452\N
 ,0,-5.2145041747,10.5942946541,-3.7140604772\O,0,0.2178107526,10.47912
 28311,-5.4883683894\H,0,-0.0583030652,9.5387292432,-5.4506334891\H,0,0
 .5703822966,13.6424527157,-6.5729087871\H,0,0.5744144609,12.8871024798
 ,-4.373506848\H,0,-2.4396315963,13.2615795891,-4.6688501624\H,0,-1.305
 4606438,14.577397516,-4.4244705616\H,0,-1.0068790555,12.5084752801,-2.
 297695876\H,0,-1.2087933968,14.2404346275,-2.1304617815\H,0,-3.0826839
 728,13.0952484782,-1.0746737585\H,0,-3.6793631524,13.9946549468,-2.489
 0336252\H,0,-2.8756532234,11.3230757936,-3.2264006882\H,0,-6.785602793
 9,12.1186828501,-2.4153611846\H,0,-5.5712636095,12.8948186693,-1.46478
 72244\H,0,-6.0683994919,10.0724704043,-3.5697512128\H,0,-4.5066178715,
 10.0847067661,-4.2367321484\\Version=ES64L-G16RevC.01\HF=-1866.7402115
 \RMSD=9.161e-09\Dipole=-3.2899388,1.1125259,5.1451292\Quadrupole=-154.
 5470613,281.7487515,-127.2016902,-170.0004862,61.6482341,-197.4920315\
 PG=C01 [X(C25H41N8O6)]\\@
 The archive entry for this job was punched.


 SATCHEL PAIGE'S GUIDE TO LONGEVITY

    1.  AVOID FRIED MEATS, WHICH ANGRY UP THE BLOOD.

    2.  IF YOUR STOMACH DISPUTES YOU, LIE DOWN AND PACIFY IT WITH COOL
        THOUGHTS.

    3.  KEEP THE JUICES FLOWING BY JANGLING AROUND GENTLY AS YOU MOVE.

    4.  GO VERY LIGHT ON THE VICES, SUCH AS CARRYING ON IN SOCIETY.
        THE SOCIAL RUMBLE AIN'T RESTFUL.

    5.  AVOID RUNNING AT ALL TIMES.

    6.  DON'T LOOK BACK.  SOMETHING MAY BE GAINING ON YOU.
 Job cpu time:       0 days  0 hours  3 minutes 50.4 seconds.
 Elapsed time:       0 days  0 hours  0 minutes 58.6 seconds.
 File lengths (MBytes):  RWF=    344 Int=      0 D2E=      0 Chk=     56 Scr=     16
 Normal termination of Gaussian 16 at Sat Jun 11 21:07:22 2022.
