 Entering Gaussian System, Link 0=/opt/software/Gaussian/g16-AVX2-C.01/g16/g16
 Input=charge-conf-538.com
 Output=charge-conf-538.log
 Initial command:
 /opt/software/Gaussian/g16-AVX2-C.01/g16/l1.exe "/mnt/gs18/scratch/users/kengmith/Gau-17564.inp" -scrdir="/mnt/gs18/scratch/users/kengmith/"
 Entering Link 1 = /opt/software/Gaussian/g16-AVX2-C.01/g16/l1.exe PID=     17574.
  
 Copyright (c) 1988-2019, Gaussian, Inc.  All Rights Reserved.
  
 This is part of the Gaussian(R) 16 program.  It is based on
 the Gaussian(R) 09 system (copyright 2009, Gaussian, Inc.),
 the Gaussian(R) 03 system (copyright 2003, Gaussian, Inc.),
 the Gaussian(R) 98 system (copyright 1998, Gaussian, Inc.),
 the Gaussian(R) 94 system (copyright 1995, Gaussian, Inc.),
 the Gaussian 92(TM) system (copyright 1992, Gaussian, Inc.),
 the Gaussian 90(TM) system (copyright 1990, Gaussian, Inc.),
 the Gaussian 88(TM) system (copyright 1988, Gaussian, Inc.),
 the Gaussian 86(TM) system (copyright 1986, Carnegie Mellon
 University), and the Gaussian 82(TM) system (copyright 1983,
 Carnegie Mellon University). Gaussian is a federally registered
 trademark of Gaussian, Inc.
  
 This software contains proprietary and confidential information,
 including trade secrets, belonging to Gaussian, Inc.
  
 This software is provided under written license and may be
 used, copied, transmitted, or stored only in accord with that
 written license.
  
 The following legend is applicable only to US Government
 contracts under FAR:
  
                    RESTRICTED RIGHTS LEGEND
  
 Use, reproduction and disclosure by the US Government is
 subject to restrictions as set forth in subparagraphs (a)
 and (c) of the Commercial Computer Software - Restricted
 Rights clause in FAR 52.227-19.
  
 Gaussian, Inc.
 340 Quinnipiac St., Bldg. 40, Wallingford CT 06492
  
  
 ---------------------------------------------------------------
 Warning -- This program may not be used in any manner that
 competes with the business of Gaussian, Inc. or will provide
 assistance to any competitor of Gaussian, Inc.  The licensee
 of this program is prohibited from giving any competitor of
 Gaussian, Inc. access to this program.  By using this program,
 the user acknowledges that Gaussian, Inc. is engaged in the
 business of creating and licensing software in the field of
 computational chemistry and represents and warrants to the
 licensee that it is not a competitor of Gaussian, Inc. and that
 it will not use this program in any manner prohibited above.
 ---------------------------------------------------------------
  

 Cite this work as:
 Gaussian 16, Revision C.01,
 M. J. Frisch, G. W. Trucks, H. B. Schlegel, G. E. Scuseria, 
 M. A. Robb, J. R. Cheeseman, G. Scalmani, V. Barone, 
 G. A. Petersson, H. Nakatsuji, X. Li, M. Caricato, A. V. Marenich, 
 J. Bloino, B. G. Janesko, R. Gomperts, B. Mennucci, H. P. Hratchian, 
 J. V. Ortiz, A. F. Izmaylov, J. L. Sonnenberg, D. Williams-Young, 
 F. Ding, F. Lipparini, F. Egidi, J. Goings, B. Peng, A. Petrone, 
 T. Henderson, D. Ranasinghe, V. G. Zakrzewski, J. Gao, N. Rega, 
 G. Zheng, W. Liang, M. Hada, M. Ehara, K. Toyota, R. Fukuda, 
 J. Hasegawa, M. Ishida, T. Nakajima, Y. Honda, O. Kitao, H. Nakai, 
 T. Vreven, K. Throssell, J. A. Montgomery, Jr., J. E. Peralta, 
 F. Ogliaro, M. J. Bearpark, J. J. Heyd, E. N. Brothers, K. N. Kudin, 
 V. N. Staroverov, T. A. Keith, R. Kobayashi, J. Normand, 
 K. Raghavachari, A. P. Rendell, J. C. Burant, S. S. Iyengar, 
 J. Tomasi, M. Cossi, J. M. Millam, M. Klene, C. Adamo, R. Cammi, 
 J. W. Ochterski, R. L. Martin, K. Morokuma, O. Farkas, 
 J. B. Foresman, and D. J. Fox, Gaussian, Inc., Wallingford CT, 2019.
 
 ******************************************
 Gaussian 16:  ES64L-G16RevC.01  3-Jul-2019
                11-Jun-2022 
 ******************************************
 %mem=8gb
 %nproc=4
 Will use up to    4 processors via shared memory.
 %chk=conf-538.chk
 ----------------------------------------------------------------------
 # B3LYP/6-31G* empiricaldispersion=gd3 guess=read geom=check nosymm in
 tegral(ultrafinegrid)
 ----------------------------------------------------------------------
 1/29=2,38=1,172=1/1;
 2/12=2,15=1,40=1/2;
 3/5=1,6=6,7=1,11=2,14=-4,25=1,30=1,74=-5,75=-5,116=-2,124=31/1,2,3;
 4/5=1/1;
 5/5=2,38=6/2;
 6/7=2,8=2,9=2,10=2,28=1/1;
 99/5=1,9=1/99;
 ------------------------------------------------------
 Candidate Structure: Conf:538 Charge calc in gas phase
 ------------------------------------------------------
 Structure from the checkpoint file:  "conf-538.chk"
 Charge =  1 Multiplicity = 1
 Redundant internal coordinates found in file.  (old form).
 N,0,-3.9156309091,9.8492534132,-4.9344577384
 C,0,-3.2387473907,9.0948371313,-6.0084385672
 C,0,-1.7210769521,9.3003745297,-5.7943051112
 O,0,-1.3046518438,9.9394022009,-4.8360376619
 C,0,-3.6771709325,9.5955671272,-7.3957440972
 C,0,-5.1438176279,9.4661264235,-7.7642902629
 C,0,-6.0453441035,8.6091528589,-7.1206175441
 C,0,-5.6032421762,10.1979411455,-8.8730371793
 C,0,-7.363769199,8.4785056069,-7.5730713409
 C,0,-6.9058473806,10.0509997367,-9.3445814372
 C,0,-7.7968718412,9.1890677771,-8.6935877904
 H,0,-3.5661736425,9.53964805,-4.0280525254
 H,0,-3.4423975657,8.0149195745,-5.9257683954
 H,0,-3.1054154203,9.0425673773,-8.1528437944
 H,0,-3.3700644109,10.6386069649,-7.5014206137
 H,0,-5.7231461888,8.0062797484,-6.2752562612
 H,0,-4.9159559423,10.8725963262,-9.3781976871
 H,0,-8.0407544855,7.7989690863,-7.0627532026
 H,0,-7.2276969764,10.6071801398,-10.2214146974
 H,0,-8.808509094,9.0573630586,-9.0686474572
 H,0,-4.92065038,9.6939635975,-4.9685548581
 N,0,-0.8883609863,8.7623910154,-6.728775015
 C,0,0.5705072062,8.893175391,-6.6112998344
 C,0,0.9893554563,10.371373605,-6.4910688448
 O,0,1.9157093237,10.7159927184,-5.7711709996
 C,0,1.2361822013,8.2027930546,-7.814448086
 C,0,2.7718561424,8.3198005781,-7.8736233294
 C,0,3.4473471883,7.7932093381,-6.5992380073
 C,0,3.2901206256,7.5889512145,-9.1202964897
 H,0,-1.2569756746,8.1546081627,-7.4476101273
 H,0,0.8972288188,8.4351980257,-5.6740336891
 H,0,0.9612829468,7.1375260661,-7.7909246615
 H,0,0.8090919246,8.624145562,-8.7361335375
 H,0,3.0238543531,9.3845726444,-7.9718027623
 H,0,3.1387726165,6.760290019,-6.3891884713
 H,0,4.5366904864,7.7951374986,-6.7160261413
 H,0,3.2061031407,8.4174075156,-5.734227623
 H,0,2.8237583514,7.9698700095,-10.0371930066
 H,0,4.3742160885,7.7102356279,-9.2191828465
 H,0,3.081145926,6.5130859266,-9.0586935598
 N,0,0.2845691302,11.2487657866,-7.2679568031
 C,0,0.1648070534,12.6303836105,-6.8305086335
 C,0,-1.2907999343,13.0405693325,-7.1215923969
 O,0,-2.0279844476,12.3336992476,-7.8237772422
 C,0,1.2474868553,13.5342199068,-7.4542501367
 C,0,1.4969457559,14.8087806624,-6.6501883046
 N,0,2.6640713625,15.4431098719,-6.9181791641
 O,0,0.696534449,15.2549444322,-5.8244781023
 H,0,-0.5503904603,10.9078296388,-7.7329893636
 H,0,0.3015751993,12.6564396358,-5.7430778303
 H,0,2.1675734417,12.941609602,-7.486295889
 H,0,0.9962961266,13.7987405911,-8.4893570233
 H,0,2.8988272348,16.259959498,-6.3698740351
 H,0,3.3891701677,15.0216033338,-7.4797441207
 N,0,-1.7478093227,14.141132344,-6.4958211757
 C,0,-3.1832598176,14.3537342557,-6.3669361728
 C,0,-3.844796613,13.0147964416,-5.953059617
 O,0,-4.8938966725,12.5907755661,-6.4562815806
 C,0,-3.8155029405,14.980509603,-7.6271538949
 C,0,-5.1955709443,15.6550809711,-7.3884631775
 C,0,-6.2928775217,15.2132439119,-8.3714006217
 N,0,-6.5686311839,13.7864034261,-8.1510791108
 C,0,-7.7370624312,13.2228696473,-7.8779893346
 N,0,-8.8924413137,13.7014585603,-8.3775317856
 N,0,-7.7773813632,12.1393647802,-7.0729210192
 O,0,-3.1978291949,12.3899099693,-5.0164183447
 H,0,-3.5331125097,11.3987007761,-4.9418266282
 H,0,-1.0726752252,14.674539994,-5.9432150513
 H,0,-3.3139222141,15.0357099532,-5.5177665186
 H,0,-3.8636633604,14.2025537062,-8.3967941284
 H,0,-3.1067794295,15.7256257419,-7.9987009118
 H,0,-5.5556308729,15.4483511338,-6.3727510373
 H,0,-5.0961731947,16.7430060852,-7.4643820231
 H,0,-7.2085510645,15.7913622075,-8.2062795946
 H,0,-5.9732553793,15.3702378744,-9.4079723445
 H,0,-5.7721983522,13.2803149403,-7.7315543995
 H,0,-9.7762316197,13.4381790539,-7.9667268216
 H,0,-8.8939719128,14.4283736779,-9.077085514
 H,0,-8.4122754841,11.3859180592,-7.3088266421
 H,0,-6.8857406382,11.8314894618,-6.6913488491
 Recover connectivity data from disk.
                           ----------------------------
                           !    Current Parameters    !
                           ! (Angstroms and Degrees)  !
 --------------------------                            --------------------------
 ! Name  Definition              Value                                          !
 --------------------------------------------------------------------------------
 ! R1    R(1,2)                  1.4767                                         !
 ! R2    R(1,12)                 1.0196                                         !
 ! R3    R(1,21)                 1.0175                                         !
 ! R4    R(2,3)                  1.5464                                         !
 ! R5    R(2,5)                  1.5387                                         !
 ! R6    R(2,13)                 1.1021                                         !
 ! R7    R(3,4)                  1.2248                                         !
 ! R8    R(3,22)                 1.3624                                         !
 ! R9    R(5,6)                  1.5178                                         !
 ! R10   R(5,14)                 1.0981                                         !
 ! R11   R(5,15)                 1.0924                                         !
 ! R12   R(6,7)                  1.4005                                         !
 ! R13   R(6,8)                  1.4057                                         !
 ! R14   R(7,9)                  1.4                                            !
 ! R15   R(7,16)                 1.0872                                         !
 ! R16   R(8,10)                 1.3931                                         !
 ! R17   R(8,17)                 1.0875                                         !
 ! R18   R(9,11)                 1.3957                                         !
 ! R19   R(9,18)                 1.0865                                         !
 ! R20   R(10,11)                1.4002                                         !
 ! R21   R(10,19)                1.0871                                         !
 ! R22   R(11,20)                1.0869                                         !
 ! R23   R(22,23)                1.4694                                         !
 ! R24   R(22,30)                1.0109                                         !
 ! R25   R(23,24)                1.5411                                         !
 ! R26   R(23,26)                1.5386                                         !
 ! R27   R(23,31)                1.0931                                         !
 ! R28   R(24,25)                1.2228                                         !
 ! R29   R(24,41)                1.3675                                         !
 ! R30   R(26,27)                1.5413                                         !
 ! R31   R(26,32)                1.1004                                         !
 ! R32   R(26,33)                1.0997                                         !
 ! R33   R(27,28)                1.5355                                         !
 ! R34   R(27,29)                1.5352                                         !
 ! R35   R(27,34)                1.0986                                         !
 ! R36   R(28,35)                1.0983                                         !
 ! R37   R(28,36)                1.0956                                         !
 ! R38   R(28,37)                1.0936                                         !
 ! R39   R(29,38)                1.0969                                         !
 ! R40   R(29,39)                1.0953                                         !
 ! R41   R(29,40)                1.0977                                         !
 ! R42   R(41,42)                1.4542                                         !
 ! R43   R(41,49)                1.0147                                         !
 ! R44   R(42,43)                1.5401                                         !
 ! R45   R(42,45)                1.5421                                         !
 ! R46   R(42,50)                1.0963                                         !
 ! R47   R(43,44)                1.2394                                         !
 ! R48   R(43,55)                1.346                                          !
 ! R49   R(45,46)                1.5275                                         !
 ! R50   R(45,51)                1.0949                                         !
 ! R51   R(45,52)                1.0975                                         !
 ! R52   R(46,47)                1.3551                                         !
 ! R53   R(46,48)                1.2335                                         !
 ! R54   R(47,53)                1.0114                                         !
 ! R55   R(47,54)                1.0094                                         !
 ! R56   R(55,56)                1.4568                                         !
 ! R57   R(55,68)                1.0226                                         !
 ! R58   R(56,57)                1.5497                                         !
 ! R59   R(56,59)                1.543                                          !
 ! R60   R(56,69)                1.0969                                         !
 ! R61   R(57,58)                1.2384                                         !
 ! R62   R(57,66)                1.2986                                         !
 ! R63   R(59,60)                1.5545                                         !
 ! R64   R(59,70)                1.0954                                         !
 ! R65   R(59,71)                1.0934                                         !
 ! R66   R(60,61)                1.538                                          !
 ! R67   R(60,72)                1.0973                                         !
 ! R68   R(60,73)                1.0951                                         !
 ! R69   R(61,62)                1.4698                                         !
 ! R70   R(61,74)                1.0954                                         !
 ! R71   R(61,75)                1.096                                          !
 ! R72   R(62,63)                1.3257                                         !
 ! R73   R(62,76)                1.0327                                         !
 ! R74   R(63,64)                1.3467                                         !
 ! R75   R(63,65)                1.3505                                         !
 ! R76   R(64,77)                1.0095                                         !
 ! R77   R(64,78)                1.0089                                         !
 ! R78   R(65,79)                1.0131                                         !
 ! R79   R(65,80)                1.0175                                         !
 ! R80   R(66,67)                1.049                                          !
 ! A1    A(2,1,12)             109.5303                                         !
 ! A2    A(2,1,21)             110.5116                                         !
 ! A3    A(12,1,21)            108.7829                                         !
 ! A4    A(1,2,3)              106.3341                                         !
 ! A5    A(1,2,5)              111.0303                                         !
 ! A6    A(1,2,13)             111.183                                          !
 ! A7    A(3,2,5)              111.1757                                         !
 ! A8    A(3,2,13)             107.5303                                         !
 ! A9    A(5,2,13)             109.5038                                         !
 ! A10   A(2,3,4)              120.7552                                         !
 ! A11   A(2,3,22)             116.8974                                         !
 ! A12   A(4,3,22)             122.3357                                         !
 ! A13   A(2,5,6)              117.8082                                         !
 ! A14   A(2,5,14)             108.0217                                         !
 ! A15   A(2,5,15)             108.5317                                         !
 ! A16   A(6,5,14)             107.0235                                         !
 ! A17   A(6,5,15)             109.2439                                         !
 ! A18   A(14,5,15)            105.5303                                         !
 ! A19   A(5,6,7)              124.2364                                         !
 ! A20   A(5,6,8)              117.5778                                         !
 ! A21   A(7,6,8)              118.0787                                         !
 ! A22   A(6,7,9)              120.9817                                         !
 ! A23   A(6,7,16)             120.3927                                         !
 ! A24   A(9,7,16)             118.5972                                         !
 ! A25   A(6,8,10)             121.1764                                         !
 ! A26   A(6,8,17)             118.8684                                         !
 ! A27   A(10,8,17)            119.9422                                         !
 ! A28   A(7,9,11)             120.2764                                         !
 ! A29   A(7,9,18)             119.5607                                         !
 ! A30   A(11,9,18)            120.1413                                         !
 ! A31   A(8,10,11)            120.1699                                         !
 ! A32   A(8,10,19)            119.7283                                         !
 ! A33   A(11,10,19)           120.1018                                         !
 ! A34   A(9,11,10)            119.2861                                         !
 ! A35   A(9,11,20)            120.2747                                         !
 ! A36   A(10,11,20)           120.4258                                         !
 ! A37   A(3,22,23)            121.1212                                         !
 ! A38   A(3,22,30)            120.1497                                         !
 ! A39   A(23,22,30)           118.1878                                         !
 ! A40   A(22,23,24)           111.1889                                         !
 ! A41   A(22,23,26)           109.0921                                         !
 ! A42   A(22,23,31)           109.1471                                         !
 ! A43   A(24,23,26)           111.951                                          !
 ! A44   A(24,23,31)           104.6985                                         !
 ! A45   A(26,23,31)           110.6812                                         !
 ! A46   A(23,24,25)           121.478                                          !
 ! A47   A(23,24,41)           115.5322                                         !
 ! A48   A(25,24,41)           122.9624                                         !
 ! A49   A(23,26,27)           115.2797                                         !
 ! A50   A(23,26,32)           108.0337                                         !
 ! A51   A(23,26,33)           108.3865                                         !
 ! A52   A(27,26,32)           108.8578                                         !
 ! A53   A(27,26,33)           109.0068                                         !
 ! A54   A(32,26,33)           106.9656                                         !
 ! A55   A(26,27,28)           112.3603                                         !
 ! A56   A(26,27,29)           109.3534                                         !
 ! A57   A(26,27,34)           107.7922                                         !
 ! A58   A(28,27,29)           111.2351                                         !
 ! A59   A(28,27,34)           107.7978                                         !
 ! A60   A(29,27,34)           108.1432                                         !
 ! A61   A(27,28,35)           110.9571                                         !
 ! A62   A(27,28,36)           110.386                                          !
 ! A63   A(27,28,37)           111.326                                          !
 ! A64   A(35,28,36)           107.5416                                         !
 ! A65   A(35,28,37)           108.8766                                         !
 ! A66   A(36,28,37)           107.6161                                         !
 ! A67   A(27,29,38)           111.7109                                         !
 ! A68   A(27,29,39)           110.7761                                         !
 ! A69   A(27,29,40)           110.9003                                         !
 ! A70   A(38,29,39)           107.8708                                         !
 ! A71   A(38,29,40)           107.8374                                         !
 ! A72   A(39,29,40)           107.5786                                         !
 ! A73   A(24,41,42)           118.7597                                         !
 ! A74   A(24,41,49)           117.9605                                         !
 ! A75   A(42,41,49)           112.9126                                         !
 ! A76   A(41,42,43)           105.9049                                         !
 ! A77   A(41,42,45)           112.1705                                         !
 ! A78   A(41,42,50)           108.1013                                         !
 ! A79   A(43,42,45)           115.5322                                         !
 ! A80   A(43,42,50)           107.4012                                         !
 ! A81   A(45,42,50)           107.4382                                         !
 ! A82   A(42,43,44)           121.1543                                         !
 ! A83   A(42,43,55)           116.7965                                         !
 ! A84   A(44,43,55)           121.8553                                         !
 ! A85   A(42,45,46)           113.0038                                         !
 ! A86   A(42,45,51)           106.5346                                         !
 ! A87   A(42,45,52)           111.226                                          !
 ! A88   A(46,45,51)           109.2563                                         !
 ! A89   A(46,45,52)           109.4347                                         !
 ! A90   A(51,45,52)           107.1685                                         !
 ! A91   A(45,46,47)           115.2861                                         !
 ! A92   A(45,46,48)           123.2442                                         !
 ! A93   A(47,46,48)           121.4625                                         !
 ! A94   A(46,47,53)           118.0821                                         !
 ! A95   A(46,47,54)           122.2264                                         !
 ! A96   A(53,47,54)           118.1728                                         !
 ! A97   A(43,55,56)           119.6704                                         !
 ! A98   A(43,55,68)           116.9737                                         !
 ! A99   A(56,55,68)           121.7759                                         !
 ! A100  A(55,56,57)           108.5511                                         !
 ! A101  A(55,56,59)           113.0025                                         !
 ! A102  A(55,56,69)           106.0566                                         !
 ! A103  A(57,56,59)           113.2143                                         !
 ! A104  A(57,56,69)           106.2338                                         !
 ! A105  A(59,56,69)           109.3244                                         !
 ! A106  A(56,57,58)           123.293                                          !
 ! A107  A(56,57,66)           113.3099                                         !
 ! A108  A(58,57,66)           123.393                                          !
 ! A109  A(56,59,60)           114.4963                                         !
 ! A110  A(56,59,70)           107.6609                                         !
 ! A111  A(56,59,71)           106.7839                                         !
 ! A112  A(60,59,70)           112.1502                                         !
 ! A113  A(60,59,71)           109.3838                                         !
 ! A114  A(70,59,71)           105.8861                                         !
 ! A115  A(59,60,61)           114.2421                                         !
 ! A116  A(59,60,72)           110.5902                                         !
 ! A117  A(59,60,73)           109.8691                                         !
 ! A118  A(61,60,72)           107.6588                                         !
 ! A119  A(61,60,73)           107.8094                                         !
 ! A120  A(72,60,73)           106.3272                                         !
 ! A121  A(60,61,62)           108.4771                                         !
 ! A122  A(60,61,74)           110.3919                                         !
 ! A123  A(60,61,75)           110.8069                                         !
 ! A124  A(62,61,74)           109.4449                                         !
 ! A125  A(62,61,75)           109.6041                                         !
 ! A126  A(74,61,75)           108.1033                                         !
 ! A127  A(61,62,63)           127.5094                                         !
 ! A128  A(61,62,76)           113.0752                                         !
 ! A129  A(63,62,76)           112.814                                          !
 ! A130  A(62,63,64)           121.9183                                         !
 ! A131  A(62,63,65)           119.3528                                         !
 ! A132  A(64,63,65)           118.7286                                         !
 ! A133  A(63,64,77)           120.495                                          !
 ! A134  A(63,64,78)           120.9704                                         !
 ! A135  A(77,64,78)           117.9532                                         !
 ! A136  A(63,65,79)           118.4618                                         !
 ! A137  A(63,65,80)           116.1129                                         !
 ! A138  A(79,65,80)           114.2946                                         !
 ! A139  A(57,66,67)           110.2875                                         !
 ! D1    D(12,1,2,3)           -55.4338                                         !
 ! D2    D(12,1,2,5)          -176.4955                                         !
 ! D3    D(12,1,2,13)           61.3224                                         !
 ! D4    D(21,1,2,3)          -175.2665                                         !
 ! D5    D(21,1,2,5)            63.6718                                         !
 ! D6    D(21,1,2,13)          -58.5103                                         !
 ! D7    D(1,2,3,4)              3.0055                                         !
 ! D8    D(1,2,3,22)          -175.7834                                         !
 ! D9    D(5,2,3,4)            123.9739                                         !
 ! D10   D(5,2,3,22)           -54.8151                                         !
 ! D11   D(13,2,3,4)          -116.1681                                         !
 ! D12   D(13,2,3,22)           65.043                                          !
 ! D13   D(1,2,5,6)            -61.797                                          !
 ! D14   D(1,2,5,14)           176.8939                                         !
 ! D15   D(1,2,5,15)            62.939                                          !
 ! D16   D(3,2,5,6)           -179.9655                                         !
 ! D17   D(3,2,5,14)            58.7255                                         !
 ! D18   D(3,2,5,15)           -55.2294                                         !
 ! D19   D(13,2,5,6)            61.356                                          !
 ! D20   D(13,2,5,14)          -59.953                                          !
 ! D21   D(13,2,5,15)         -173.9079                                         !
 ! D22   D(2,3,22,23)         -179.5306                                         !
 ! D23   D(2,3,22,30)           -8.1223                                         !
 ! D24   D(4,3,22,23)            1.7012                                         !
 ! D25   D(4,3,22,30)          173.1095                                         !
 ! D26   D(2,5,6,7)            -18.7224                                         !
 ! D27   D(2,5,6,8)            165.1214                                         !
 ! D28   D(14,5,6,7)           103.0997                                         !
 ! D29   D(14,5,6,8)           -73.0565                                         !
 ! D30   D(15,5,6,7)          -143.1047                                         !
 ! D31   D(15,5,6,8)            40.7391                                         !
 ! D32   D(5,6,7,9)           -175.7485                                         !
 ! D33   D(5,6,7,16)             2.2889                                         !
 ! D34   D(8,6,7,9)              0.3899                                         !
 ! D35   D(8,6,7,16)           178.4273                                         !
 ! D36   D(5,6,8,10)           174.6553                                         !
 ! D37   D(5,6,8,17)            -4.0312                                         !
 ! D38   D(7,6,8,10)            -1.7434                                         !
 ! D39   D(7,6,8,17)           179.5702                                         !
 ! D40   D(6,7,9,11)             1.042                                          !
 ! D41   D(6,7,9,18)           179.3524                                         !
 ! D42   D(16,7,9,11)         -177.0299                                         !
 ! D43   D(16,7,9,18)            1.2805                                         !
 ! D44   D(6,8,10,11)            1.668                                          !
 ! D45   D(6,8,10,19)         -178.233                                          !
 ! D46   D(17,8,10,11)        -179.6595                                         !
 ! D47   D(17,8,10,19)           0.4395                                         !
 ! D48   D(7,9,11,10)           -1.1355                                         !
 ! D49   D(7,9,11,20)          177.5392                                         !
 ! D50   D(18,9,11,10)        -179.4361                                         !
 ! D51   D(18,9,11,20)          -0.7614                                         !
 ! D52   D(8,10,11,9)           -0.2008                                         !
 ! D53   D(8,10,11,20)        -178.8735                                         !
 ! D54   D(19,10,11,9)         179.6998                                         !
 ! D55   D(19,10,11,20)          1.0272                                         !
 ! D56   D(3,22,23,24)         -55.4245                                         !
 ! D57   D(3,22,23,26)        -179.3718                                         !
 ! D58   D(3,22,23,31)          59.5782                                         !
 ! D59   D(30,22,23,24)        133.0034                                         !
 ! D60   D(30,22,23,26)          9.056                                          !
 ! D61   D(30,22,23,31)       -111.994                                          !
 ! D62   D(22,23,24,25)        143.0606                                         !
 ! D63   D(22,23,24,41)        -38.7902                                         !
 ! D64   D(26,23,24,25)        -94.6322                                         !
 ! D65   D(26,23,24,41)         83.5171                                         !
 ! D66   D(31,23,24,25)         25.3267                                         !
 ! D67   D(31,23,24,41)       -156.5241                                         !
 ! D68   D(22,23,26,27)        176.8777                                         !
 ! D69   D(22,23,26,32)        -61.1389                                         !
 ! D70   D(22,23,26,33)         54.4301                                         !
 ! D71   D(24,23,26,27)         53.3817                                         !
 ! D72   D(24,23,26,32)        175.3652                                         !
 ! D73   D(24,23,26,33)        -69.0658                                         !
 ! D74   D(31,23,26,27)        -63.0128                                         !
 ! D75   D(31,23,26,32)         58.9706                                         !
 ! D76   D(31,23,26,33)        174.5396                                         !
 ! D77   D(23,24,41,42)        153.0369                                         !
 ! D78   D(23,24,41,49)         10.463                                          !
 ! D79   D(25,24,41,42)        -28.8443                                         !
 ! D80   D(25,24,41,49)       -171.4183                                         !
 ! D81   D(23,26,27,28)         56.0306                                         !
 ! D82   D(23,26,27,29)       -179.9422                                         !
 ! D83   D(23,26,27,34)        -62.5976                                         !
 ! D84   D(32,26,27,28)        -65.5089                                         !
 ! D85   D(32,26,27,29)         58.5184                                         !
 ! D86   D(32,26,27,34)        175.8629                                         !
 ! D87   D(33,26,27,28)        178.1458                                         !
 ! D88   D(33,26,27,29)        -57.8269                                         !
 ! D89   D(33,26,27,34)         59.5176                                         !
 ! D90   D(26,27,28,35)         55.0496                                         !
 ! D91   D(26,27,28,36)        174.1699                                         !
 ! D92   D(26,27,28,37)        -66.3795                                         !
 ! D93   D(29,27,28,35)        -67.9263                                         !
 ! D94   D(29,27,28,36)         51.1939                                         !
 ! D95   D(29,27,28,37)        170.6446                                         !
 ! D96   D(34,27,28,35)        173.6745                                         !
 ! D97   D(34,27,28,36)        -67.2053                                         !
 ! D98   D(34,27,28,37)         52.2454                                         !
 ! D99   D(26,27,29,38)         56.1911                                         !
 ! D100  D(26,27,29,39)        176.4784                                         !
 ! D101  D(26,27,29,40)        -64.1386                                         !
 ! D102  D(28,27,29,38)       -179.1233                                         !
 ! D103  D(28,27,29,39)        -58.8361                                         !
 ! D104  D(28,27,29,40)         60.5469                                         !
 ! D105  D(34,27,29,38)        -60.9322                                         !
 ! D106  D(34,27,29,39)         59.355                                          !
 ! D107  D(34,27,29,40)        178.738                                          !
 ! D108  D(24,41,42,43)       -138.7151                                         !
 ! D109  D(24,41,42,45)         94.4099                                         !
 ! D110  D(24,41,42,50)        -23.8617                                         !
 ! D111  D(49,41,42,43)          5.6387                                         !
 ! D112  D(49,41,42,45)       -121.2363                                         !
 ! D113  D(49,41,42,50)        120.4922                                         !
 ! D114  D(41,42,43,44)        -11.9799                                         !
 ! D115  D(41,42,43,55)        163.05                                           !
 ! D116  D(45,42,43,44)        112.8374                                         !
 ! D117  D(45,42,43,55)        -72.1327                                         !
 ! D118  D(50,42,43,44)       -127.312                                          !
 ! D119  D(50,42,43,55)         47.7179                                         !
 ! D120  D(41,42,45,46)       -157.9758                                         !
 ! D121  D(41,42,45,51)        -37.9905                                         !
 ! D122  D(41,42,45,52)         78.4731                                         !
 ! D123  D(43,42,45,46)         80.5179                                         !
 ! D124  D(43,42,45,51)       -159.4967                                         !
 ! D125  D(43,42,45,52)        -43.0331                                         !
 ! D126  D(50,42,45,46)        -39.3124                                         !
 ! D127  D(50,42,45,51)         80.6729                                         !
 ! D128  D(50,42,45,52)       -162.8635                                         !
 ! D129  D(42,43,55,56)       -160.3217                                         !
 ! D130  D(42,43,55,68)          5.606                                          !
 ! D131  D(44,43,55,56)         14.6706                                         !
 ! D132  D(44,43,55,68)       -179.4016                                         !
 ! D133  D(42,45,46,47)        162.1185                                         !
 ! D134  D(42,45,46,48)        -18.8466                                         !
 ! D135  D(51,45,46,47)         43.706                                          !
 ! D136  D(51,45,46,48)       -137.2591                                         !
 ! D137  D(52,45,46,47)        -73.348                                          !
 ! D138  D(52,45,46,48)        105.687                                          !
 ! D139  D(45,46,47,53)       -176.3052                                         !
 ! D140  D(45,46,47,54)        -10.6277                                         !
 ! D141  D(48,46,47,53)          4.641                                          !
 ! D142  D(48,46,47,54)        170.3185                                         !
 ! D143  D(43,55,56,57)         43.771                                          !
 ! D144  D(43,55,56,59)        -82.6815                                         !
 ! D145  D(43,55,56,69)        157.5643                                         !
 ! D146  D(68,55,56,57)       -121.4613                                         !
 ! D147  D(68,55,56,59)        112.0862                                         !
 ! D148  D(68,55,56,69)         -7.668                                          !
 ! D149  D(55,56,57,58)       -136.4307                                         !
 ! D150  D(55,56,57,66)         44.2925                                         !
 ! D151  D(59,56,57,58)        -10.1008                                         !
 ! D152  D(59,56,57,66)        170.6224                                         !
 ! D153  D(69,56,57,58)        109.8928                                         !
 ! D154  D(69,56,57,66)        -69.3841                                         !
 ! D155  D(55,56,59,60)       -160.5075                                         !
 ! D156  D(55,56,59,70)         74.0493                                         !
 ! D157  D(55,56,59,71)        -39.2837                                         !
 ! D158  D(57,56,59,60)         75.5639                                         !
 ! D159  D(57,56,59,70)        -49.8793                                         !
 ! D160  D(57,56,59,71)       -163.2124                                         !
 ! D161  D(69,56,59,60)        -42.649                                          !
 ! D162  D(69,56,59,70)       -168.0922                                         !
 ! D163  D(69,56,59,71)         78.5747                                         !
 ! D164  D(56,57,66,67)       -165.6615                                         !
 ! D165  D(58,57,66,67)         15.0625                                         !
 ! D166  D(56,59,60,61)       -129.4648                                         !
 ! D167  D(56,59,60,72)         -7.8264                                         !
 ! D168  D(56,59,60,73)        109.2436                                         !
 ! D169  D(70,59,60,61)         -6.41                                           !
 ! D170  D(70,59,60,72)        115.2284                                         !
 ! D171  D(70,59,60,73)       -127.7016                                         !
 ! D172  D(71,59,60,61)        110.7528                                         !
 ! D173  D(71,59,60,72)       -127.6088                                         !
 ! D174  D(71,59,60,73)        -10.5388                                         !
 ! D175  D(59,60,61,62)         65.2692                                         !
 ! D176  D(59,60,61,74)       -174.8184                                         !
 ! D177  D(59,60,61,75)        -55.0896                                         !
 ! D178  D(72,60,61,62)        -57.9688                                         !
 ! D179  D(72,60,61,74)         61.9436                                         !
 ! D180  D(72,60,61,75)       -178.3276                                         !
 ! D181  D(73,60,61,62)       -172.3083                                         !
 ! D182  D(73,60,61,74)        -52.3958                                         !
 ! D183  D(73,60,61,75)         67.3329                                         !
 ! D184  D(60,61,62,63)        124.5175                                         !
 ! D185  D(60,61,62,76)        -24.6108                                         !
 ! D186  D(74,61,62,63)          4.0156                                         !
 ! D187  D(74,61,62,76)       -145.1126                                         !
 ! D188  D(75,61,62,63)       -114.3791                                         !
 ! D189  D(75,61,62,76)         96.4927                                         !
 ! D190  D(61,62,63,64)         33.4856                                         !
 ! D191  D(61,62,63,65)       -146.3166                                         !
 ! D192  D(76,62,63,64)       -177.3202                                         !
 ! D193  D(76,62,63,65)          2.8777                                         !
 ! D194  D(62,63,64,77)       -162.62                                           !
 ! D195  D(62,63,64,78)          8.4579                                         !
 ! D196  D(65,63,64,77)         17.1833                                         !
 ! D197  D(65,63,64,78)       -171.7388                                         !
 ! D198  D(62,63,65,79)       -139.9891                                         !
 ! D199  D(62,63,65,80)          1.9089                                         !
 ! D200  D(64,63,65,79)         40.2024                                         !
 ! D201  D(64,63,65,80)       -177.8996                                         !
 --------------------------------------------------------------------------------
 Symmetry turned off by external request.
 Stoichiometry    C25H41N8O6(1+)
 Framework group  C1[X(C25H41N8O6)]
 Deg. of freedom   234
 Full point group                 C1      NOp   1
                          Input orientation:                          
 ---------------------------------------------------------------------
 Center     Atomic      Atomic             Coordinates (Angstroms)
 Number     Number       Type             X           Y           Z
 ---------------------------------------------------------------------
      1          7           0       -3.915631    9.849253   -4.934458
      2          6           0       -3.238747    9.094837   -6.008439
      3          6           0       -1.721077    9.300375   -5.794305
      4          8           0       -1.304652    9.939402   -4.836038
      5          6           0       -3.677171    9.595567   -7.395744
      6          6           0       -5.143818    9.466126   -7.764290
      7          6           0       -6.045344    8.609153   -7.120618
      8          6           0       -5.603242   10.197941   -8.873037
      9          6           0       -7.363769    8.478506   -7.573071
     10          6           0       -6.905847   10.051000   -9.344581
     11          6           0       -7.796872    9.189068   -8.693588
     12          1           0       -3.566174    9.539648   -4.028053
     13          1           0       -3.442398    8.014920   -5.925768
     14          1           0       -3.105415    9.042567   -8.152844
     15          1           0       -3.370064   10.638607   -7.501421
     16          1           0       -5.723146    8.006280   -6.275256
     17          1           0       -4.915956   10.872596   -9.378198
     18          1           0       -8.040754    7.798969   -7.062753
     19          1           0       -7.227697   10.607180  -10.221415
     20          1           0       -8.808509    9.057363   -9.068647
     21          1           0       -4.920650    9.693964   -4.968555
     22          7           0       -0.888361    8.762391   -6.728775
     23          6           0        0.570507    8.893175   -6.611300
     24          6           0        0.989355   10.371374   -6.491069
     25          8           0        1.915709   10.715993   -5.771171
     26          6           0        1.236182    8.202793   -7.814448
     27          6           0        2.771856    8.319801   -7.873623
     28          6           0        3.447347    7.793209   -6.599238
     29          6           0        3.290121    7.588951   -9.120296
     30          1           0       -1.256976    8.154608   -7.447610
     31          1           0        0.897229    8.435198   -5.674034
     32          1           0        0.961283    7.137526   -7.790925
     33          1           0        0.809092    8.624146   -8.736134
     34          1           0        3.023854    9.384573   -7.971803
     35          1           0        3.138773    6.760290   -6.389188
     36          1           0        4.536690    7.795137   -6.716026
     37          1           0        3.206103    8.417408   -5.734228
     38          1           0        2.823758    7.969870  -10.037193
     39          1           0        4.374216    7.710236   -9.219183
     40          1           0        3.081146    6.513086   -9.058694
     41          7           0        0.284569   11.248766   -7.267957
     42          6           0        0.164807   12.630384   -6.830509
     43          6           0       -1.290800   13.040569   -7.121592
     44          8           0       -2.027984   12.333699   -7.823777
     45          6           0        1.247487   13.534220   -7.454250
     46          6           0        1.496946   14.808781   -6.650188
     47          7           0        2.664071   15.443110   -6.918179
     48          8           0        0.696534   15.254944   -5.824478
     49          1           0       -0.550390   10.907830   -7.732989
     50          1           0        0.301575   12.656440   -5.743078
     51          1           0        2.167573   12.941610   -7.486296
     52          1           0        0.996296   13.798741   -8.489357
     53          1           0        2.898827   16.259959   -6.369874
     54          1           0        3.389170   15.021603   -7.479744
     55          7           0       -1.747809   14.141132   -6.495821
     56          6           0       -3.183260   14.353734   -6.366936
     57          6           0       -3.844797   13.014796   -5.953060
     58          8           0       -4.893897   12.590776   -6.456282
     59          6           0       -3.815503   14.980510   -7.627154
     60          6           0       -5.195571   15.655081   -7.388463
     61          6           0       -6.292878   15.213244   -8.371401
     62          7           0       -6.568631   13.786403   -8.151079
     63          6           0       -7.737062   13.222870   -7.877989
     64          7           0       -8.892441   13.701459   -8.377532
     65          7           0       -7.777381   12.139365   -7.072921
     66          8           0       -3.197829   12.389910   -5.016418
     67          1           0       -3.533113   11.398701   -4.941827
     68          1           0       -1.072675   14.674540   -5.943215
     69          1           0       -3.313922   15.035710   -5.517767
     70          1           0       -3.863663   14.202554   -8.396794
     71          1           0       -3.106779   15.725626   -7.998701
     72          1           0       -5.555631   15.448351   -6.372751
     73          1           0       -5.096173   16.743006   -7.464382
     74          1           0       -7.208551   15.791362   -8.206280
     75          1           0       -5.973255   15.370238   -9.407972
     76          1           0       -5.772198   13.280315   -7.731554
     77          1           0       -9.776232   13.438179   -7.966727
     78          1           0       -8.893972   14.428374   -9.077086
     79          1           0       -8.412275   11.385918   -7.308827
     80          1           0       -6.885741   11.831489   -6.691349
 ---------------------------------------------------------------------
 Rotational constants (GHZ):           0.1274451           0.0641286           0.0479620
 Standard basis: 6-31G(d) (6D, 7F)
   667 basis functions,  1256 primitive gaussians,   667 cartesian basis functions
   147 alpha electrons      147 beta electrons
       nuclear repulsion energy      4952.1829358600 Hartrees.
 NAtoms=   80 NActive=   80 NUniq=   80 SFac= 1.00D+00 NAtFMM=   60 NAOKFM=T Big=T
 Integral buffers will be    131072 words long.
 Raffenetti 2 integral format.
 Two-electron integral symmetry is turned off.
 Nuclear repulsion after empirical dispersion term =     4952.0677603447 Hartrees.
 One-electron integrals computed using PRISM.
 NBasis=   667 RedAO= T EigKep=  4.62D-04  NBF=   667
 NBsUse=   667 1.00D-06 EigRej= -1.00D+00 NBFU=   667
 Initial guess from the checkpoint file:  "conf-538.chk"
 B after Tr=     0.000000    0.000000    0.000000
         Rot=    1.000000    0.000000    0.000000    0.000000 Ang=   0.00 deg.
 Requested convergence on RMS density matrix=1.00D-08 within 128 cycles.
 Requested convergence on MAX density matrix=1.00D-06.
 Requested convergence on             energy=1.00D-06.
 No special actions if energy rises.
 SCF Done:  E(RB3LYP) =  -1866.75226431     A.U. after    3 cycles
            NFock=  3  Conv=0.11D-08     -V/T= 2.0094

 **********************************************************************

            Population analysis using the SCF Density.

 **********************************************************************

 Alpha  occ. eigenvalues --  -19.25886 -19.24085 -19.21196 -19.20524 -19.20316
 Alpha  occ. eigenvalues --  -19.18140 -14.50971 -14.48882 -14.48859 -14.45100
 Alpha  occ. eigenvalues --  -14.44561 -14.44095 -14.43933 -14.41997 -10.46151
 Alpha  occ. eigenvalues --  -10.41828 -10.37797 -10.37717 -10.37663 -10.35195
 Alpha  occ. eigenvalues --  -10.34911 -10.33691 -10.33231 -10.31349 -10.30659
 Alpha  occ. eigenvalues --  -10.30147 -10.30052 -10.29157 -10.29126 -10.29033
 Alpha  occ. eigenvalues --  -10.28934 -10.28898 -10.28669 -10.28608 -10.28046
 Alpha  occ. eigenvalues --  -10.26395 -10.25131 -10.23012 -10.22240  -1.19047
 Alpha  occ. eigenvalues --   -1.14809  -1.13044  -1.12724  -1.11802  -1.10047
 Alpha  occ. eigenvalues --   -1.09937  -1.04264  -1.02841  -1.01462  -1.01346
 Alpha  occ. eigenvalues --   -1.00647  -0.99010  -0.98715  -0.95435  -0.90579
 Alpha  occ. eigenvalues --   -0.88545  -0.87557  -0.86576  -0.84605  -0.84368
 Alpha  occ. eigenvalues --   -0.83189  -0.80513  -0.79201  -0.77100  -0.75870
 Alpha  occ. eigenvalues --   -0.74756  -0.73671  -0.72353  -0.71949  -0.71761
 Alpha  occ. eigenvalues --   -0.70456  -0.69586  -0.68280  -0.67827  -0.67281
 Alpha  occ. eigenvalues --   -0.67081  -0.65571  -0.64229  -0.64192  -0.63440
 Alpha  occ. eigenvalues --   -0.63096  -0.62348  -0.61996  -0.61372  -0.61204
 Alpha  occ. eigenvalues --   -0.60708  -0.59817  -0.58993  -0.58566  -0.58117
 Alpha  occ. eigenvalues --   -0.57506  -0.56068  -0.55579  -0.55302  -0.54892
 Alpha  occ. eigenvalues --   -0.54714  -0.54150  -0.53753  -0.53487  -0.53053
 Alpha  occ. eigenvalues --   -0.52261  -0.52213  -0.51831  -0.51691  -0.51176
 Alpha  occ. eigenvalues --   -0.50826  -0.50454  -0.49821  -0.49494  -0.49056
 Alpha  occ. eigenvalues --   -0.48763  -0.48431  -0.47980  -0.47929  -0.47365
 Alpha  occ. eigenvalues --   -0.46946  -0.46166  -0.45763  -0.45600  -0.45245
 Alpha  occ. eigenvalues --   -0.44934  -0.44661  -0.44318  -0.44286  -0.43782
 Alpha  occ. eigenvalues --   -0.43658  -0.43051  -0.42651  -0.41649  -0.41466
 Alpha  occ. eigenvalues --   -0.40172  -0.39408  -0.39077  -0.38529  -0.38385
 Alpha  occ. eigenvalues --   -0.38257  -0.37183  -0.35660  -0.35388  -0.35065
 Alpha  occ. eigenvalues --   -0.34849  -0.34467  -0.34379  -0.34174  -0.33967
 Alpha  occ. eigenvalues --   -0.32221  -0.31207
 Alpha virt. eigenvalues --   -0.11602  -0.10581  -0.10255  -0.09139  -0.06812
 Alpha virt. eigenvalues --   -0.06627  -0.06097  -0.05792  -0.04511  -0.02539
 Alpha virt. eigenvalues --   -0.01817  -0.01069  -0.00491   0.00075   0.00322
 Alpha virt. eigenvalues --    0.00549   0.01446   0.01572   0.02278   0.02648
 Alpha virt. eigenvalues --    0.02861   0.03753   0.03935   0.04382   0.04803
 Alpha virt. eigenvalues --    0.05009   0.05413   0.05808   0.06223   0.06405
 Alpha virt. eigenvalues --    0.06626   0.06905   0.07071   0.07457   0.07933
 Alpha virt. eigenvalues --    0.08081   0.08188   0.08636   0.09142   0.09278
 Alpha virt. eigenvalues --    0.09441   0.09617   0.09899   0.10883   0.11356
 Alpha virt. eigenvalues --    0.11520   0.12207   0.12306   0.12659   0.13008
 Alpha virt. eigenvalues --    0.13082   0.13272   0.13692   0.14106   0.14478
 Alpha virt. eigenvalues --    0.15331   0.15646   0.16027   0.16595   0.16986
 Alpha virt. eigenvalues --    0.17541   0.17671   0.18420   0.18490   0.18870
 Alpha virt. eigenvalues --    0.19347   0.19462   0.19973   0.20601   0.21103
 Alpha virt. eigenvalues --    0.22278   0.22389   0.23922   0.24489   0.24742
 Alpha virt. eigenvalues --    0.25784   0.26004   0.26675   0.27386   0.28117
 Alpha virt. eigenvalues --    0.28410   0.29824   0.29955   0.31545   0.32737
 Alpha virt. eigenvalues --    0.35046   0.36229   0.36659   0.37455   0.38175
 Alpha virt. eigenvalues --    0.39520   0.40617   0.41806   0.42053   0.42375
 Alpha virt. eigenvalues --    0.42745   0.43591   0.44252   0.44773   0.45043
 Alpha virt. eigenvalues --    0.45080   0.45449   0.45768   0.46222   0.46452
 Alpha virt. eigenvalues --    0.46672   0.47506   0.47730   0.47980   0.48203
 Alpha virt. eigenvalues --    0.49038   0.49311   0.49649   0.50129   0.50384
 Alpha virt. eigenvalues --    0.50676   0.51170   0.51463   0.51730   0.51773
 Alpha virt. eigenvalues --    0.52182   0.52732   0.53286   0.53782   0.54184
 Alpha virt. eigenvalues --    0.54780   0.55456   0.55710   0.55814   0.56581
 Alpha virt. eigenvalues --    0.57001   0.57409   0.57657   0.57816   0.58330
 Alpha virt. eigenvalues --    0.58911   0.59122   0.59241   0.59837   0.60178
 Alpha virt. eigenvalues --    0.60787   0.60978   0.62099   0.62756   0.63025
 Alpha virt. eigenvalues --    0.63191   0.64334   0.64675   0.65063   0.65723
 Alpha virt. eigenvalues --    0.66267   0.66683   0.66706   0.67278   0.68020
 Alpha virt. eigenvalues --    0.69130   0.69746   0.70510   0.71089   0.71310
 Alpha virt. eigenvalues --    0.71747   0.72402   0.72501   0.73226   0.73508
 Alpha virt. eigenvalues --    0.73975   0.74120   0.74445   0.74873   0.75156
 Alpha virt. eigenvalues --    0.75408   0.75810   0.76069   0.76624   0.76684
 Alpha virt. eigenvalues --    0.77102   0.77472   0.77680   0.78310   0.78492
 Alpha virt. eigenvalues --    0.78851   0.79146   0.79739   0.79850   0.79954
 Alpha virt. eigenvalues --    0.80338   0.80708   0.81010   0.81479   0.81660
 Alpha virt. eigenvalues --    0.82146   0.82476   0.83178   0.83632   0.84379
 Alpha virt. eigenvalues --    0.84757   0.85134   0.85391   0.85581   0.85708
 Alpha virt. eigenvalues --    0.86192   0.86469   0.86757   0.86862   0.87337
 Alpha virt. eigenvalues --    0.87924   0.87960   0.89068   0.89319   0.90156
 Alpha virt. eigenvalues --    0.90577   0.90885   0.91129   0.91476   0.91706
 Alpha virt. eigenvalues --    0.92377   0.93230   0.94263   0.94343   0.95002
 Alpha virt. eigenvalues --    0.96008   0.96391   0.96909   0.97708   0.98487
 Alpha virt. eigenvalues --    0.99755   0.99988   1.00448   1.00685   1.02196
 Alpha virt. eigenvalues --    1.02655   1.03734   1.04798   1.05525   1.05868
 Alpha virt. eigenvalues --    1.06027   1.07193   1.07916   1.08710   1.09393
 Alpha virt. eigenvalues --    1.10019   1.11644   1.12404   1.12925   1.13105
 Alpha virt. eigenvalues --    1.13412   1.14764   1.15610   1.15870   1.17278
 Alpha virt. eigenvalues --    1.17955   1.18354   1.19831   1.20799   1.21034
 Alpha virt. eigenvalues --    1.22010   1.22255   1.22337   1.23830   1.24502
 Alpha virt. eigenvalues --    1.25981   1.27182   1.28209   1.29214   1.30034
 Alpha virt. eigenvalues --    1.30721   1.31144   1.32345   1.32648   1.33537
 Alpha virt. eigenvalues --    1.34266   1.34748   1.35497   1.36107   1.37186
 Alpha virt. eigenvalues --    1.37449   1.38006   1.38899   1.39197   1.39692
 Alpha virt. eigenvalues --    1.39988   1.41084   1.41216   1.42446   1.42480
 Alpha virt. eigenvalues --    1.43435   1.44098   1.46053   1.47007   1.48020
 Alpha virt. eigenvalues --    1.49817   1.50145   1.51235   1.52569   1.53869
 Alpha virt. eigenvalues --    1.54772   1.56445   1.56672   1.57411   1.58707
 Alpha virt. eigenvalues --    1.59208   1.59715   1.60895   1.61440   1.61970
 Alpha virt. eigenvalues --    1.62566   1.63643   1.64890   1.65467   1.66258
 Alpha virt. eigenvalues --    1.67114   1.68242   1.68484   1.69032   1.69279
 Alpha virt. eigenvalues --    1.69535   1.70408   1.70473   1.71347   1.71587
 Alpha virt. eigenvalues --    1.72176   1.72758   1.73246   1.73638   1.74351
 Alpha virt. eigenvalues --    1.74610   1.75185   1.75434   1.76244   1.76882
 Alpha virt. eigenvalues --    1.77228   1.77640   1.78187   1.78366   1.79287
 Alpha virt. eigenvalues --    1.79675   1.80430   1.81292   1.81390   1.83046
 Alpha virt. eigenvalues --    1.83196   1.83672   1.84523   1.85050   1.85276
 Alpha virt. eigenvalues --    1.86405   1.87073   1.87466   1.88018   1.88191
 Alpha virt. eigenvalues --    1.88861   1.89510   1.90059   1.90870   1.91654
 Alpha virt. eigenvalues --    1.92035   1.92589   1.93192   1.93702   1.94198
 Alpha virt. eigenvalues --    1.95002   1.95512   1.95617   1.96039   1.96506
 Alpha virt. eigenvalues --    1.97442   1.97623   1.97704   1.99211   1.99997
 Alpha virt. eigenvalues --    2.00557   2.01254   2.02501   2.03029   2.03612
 Alpha virt. eigenvalues --    2.04099   2.04627   2.05692   2.05944   2.06752
 Alpha virt. eigenvalues --    2.07345   2.08558   2.08946   2.09667   2.09962
 Alpha virt. eigenvalues --    2.10397   2.12360   2.12736   2.13669   2.15241
 Alpha virt. eigenvalues --    2.15355   2.16233   2.16507   2.17409   2.18934
 Alpha virt. eigenvalues --    2.19353   2.19555   2.20136   2.21403   2.21581
 Alpha virt. eigenvalues --    2.22067   2.22966   2.24846   2.25798   2.26177
 Alpha virt. eigenvalues --    2.26571   2.27943   2.29623   2.30840   2.31468
 Alpha virt. eigenvalues --    2.33368   2.34507   2.35059   2.35445   2.35976
 Alpha virt. eigenvalues --    2.37100   2.37532   2.38173   2.39033   2.39519
 Alpha virt. eigenvalues --    2.40086   2.40865   2.42020   2.42694   2.43571
 Alpha virt. eigenvalues --    2.44062   2.45341   2.45510   2.47152   2.47375
 Alpha virt. eigenvalues --    2.48457   2.49419   2.50017   2.50532   2.51576
 Alpha virt. eigenvalues --    2.52387   2.53386   2.54021   2.54417   2.55317
 Alpha virt. eigenvalues --    2.56286   2.56522   2.57300   2.58172   2.58875
 Alpha virt. eigenvalues --    2.60386   2.61870   2.62082   2.63129   2.63884
 Alpha virt. eigenvalues --    2.64696   2.65849   2.66393   2.66968   2.67518
 Alpha virt. eigenvalues --    2.69411   2.70306   2.72765   2.75466   2.76951
 Alpha virt. eigenvalues --    2.77948   2.79668   2.81303   2.83950   2.85067
 Alpha virt. eigenvalues --    2.87575   2.88104   2.88814   2.93204   2.95268
 Alpha virt. eigenvalues --    2.96280   2.97049   2.97579   2.97908   2.98419
 Alpha virt. eigenvalues --    3.00012   3.03748   3.06373   3.11417   3.12468
 Alpha virt. eigenvalues --    3.30732   3.67304   3.72977   3.76748   3.82380
 Alpha virt. eigenvalues --    3.90925   3.93425   3.94389   3.97508   3.99358
 Alpha virt. eigenvalues --    4.02292   4.03521   4.05537   4.06492   4.08235
 Alpha virt. eigenvalues --    4.08371   4.09968   4.10886   4.14756   4.19300
 Alpha virt. eigenvalues --    4.21315   4.23203   4.24376   4.25049   4.25467
 Alpha virt. eigenvalues --    4.27015   4.33246   4.34136   4.35949   4.37301
 Alpha virt. eigenvalues --    4.38579   4.42880   4.44839   4.50642   4.52373
 Alpha virt. eigenvalues --    4.54169   4.59481   4.60627   4.62487   4.67003
          Condensed to atoms (all electrons):
 Mulliken charges:
               1
     1  N   -0.785389
     2  C   -0.090050
     3  C    0.635752
     4  O   -0.506205
     5  C   -0.386862
     6  C    0.171602
     7  C   -0.206920
     8  C   -0.193511
     9  C   -0.137541
    10  C   -0.136437
    11  C   -0.170675
    12  H    0.355877
    13  H    0.162447
    14  H    0.157569
    15  H    0.234630
    16  H    0.137760
    17  H    0.150193
    18  H    0.155775
    19  H    0.144153
    20  H    0.149449
    21  H    0.333160
    22  N   -0.655956
    23  C   -0.010022
    24  C    0.628109
    25  O   -0.521805
    26  C   -0.306684
    27  C   -0.076128
    28  C   -0.461975
    29  C   -0.445217
    30  H    0.335809
    31  H    0.195210
    32  H    0.144560
    33  H    0.137419
    34  H    0.143524
    35  H    0.135469
    36  H    0.151742
    37  H    0.179527
    38  H    0.138949
    39  H    0.155461
    40  H    0.144670
    41  N   -0.618870
    42  C   -0.041908
    43  C    0.605444
    44  O   -0.563910
    45  C   -0.378558
    46  C    0.627137
    47  N   -0.738721
    48  O   -0.532635
    49  H    0.350512
    50  H    0.215605
    51  H    0.200386
    52  H    0.184815
    53  H    0.358717
    54  H    0.353827
    55  N   -0.607580
    56  C   -0.036652
    57  C    0.629886
    58  O   -0.571947
    59  C   -0.291592
    60  C   -0.294347
    61  C   -0.167076
    62  N   -0.606219
    63  C    0.749390
    64  N   -0.746894
    65  N   -0.756425
    66  O   -0.571027
    67  H    0.489394
    68  H    0.395623
    69  H    0.186104
    70  H    0.177760
    71  H    0.175043
    72  H    0.162641
    73  H    0.176947
    74  H    0.164538
    75  H    0.186277
    76  H    0.426918
    77  H    0.379865
    78  H    0.379386
    79  H    0.360323
    80  H    0.400385
 Sum of Mulliken charges =   1.00000
 Mulliken charges with hydrogens summed into heavy atoms:
               1
     1  N   -0.096352
     2  C    0.072396
     3  C    0.635752
     4  O   -0.506205
     5  C    0.005337
     6  C    0.171602
     7  C   -0.069160
     8  C   -0.043317
     9  C    0.018234
    10  C    0.007716
    11  C   -0.021226
    22  N   -0.320147
    23  C    0.185188
    24  C    0.628109
    25  O   -0.521805
    26  C   -0.024706
    27  C    0.067397
    28  C    0.004763
    29  C   -0.006137
    41  N   -0.268358
    42  C    0.173697
    43  C    0.605444
    44  O   -0.563910
    45  C    0.006643
    46  C    0.627137
    47  N   -0.026177
    48  O   -0.532635
    55  N   -0.211958
    56  C    0.149452
    57  C    0.629886
    58  O   -0.571947
    59  C    0.061211
    60  C    0.045241
    61  C    0.183739
    62  N   -0.179301
    63  C    0.749390
    64  N    0.012357
    65  N    0.004283
    66  O   -0.081633
 Electronic spatial extent (au):  <R**2>=         220444.5168
 Charge=              1.0000 electrons
 Dipole moment (field-independent basis, Debye):
    X=            -26.4401    Y=             59.9861    Z=            -39.3338  Tot=             76.4498
 Quadrupole moment (field-independent basis, Debye-Ang):
   XX=             16.1498   YY=            582.0108   ZZ=             90.9608
   XY=           -327.3113   XZ=            201.3991   YZ=           -500.5464
 Traceless Quadrupole moment (field-independent basis, Debye-Ang):
   XX=           -213.5573   YY=            352.3037   ZZ=           -138.7464
   XY=           -327.3113   XZ=            201.3991   YZ=           -500.5464
 Octapole moment (field-independent basis, Debye-Ang**2):
  XXX=           -201.5218  YYY=           3712.6333  ZZZ=           2294.1292  XYY=          -3654.2398
  XXY=            556.0854  XXZ=           -326.5575  XZZ=          -1034.7159  YZZ=           1509.8738
  YYZ=          -5168.5817  XYZ=           2588.5742
 Hexadecapole moment (field-independent basis, Debye-Ang**3):
 XXXX=          -9110.0418 YYYY=         -18460.3989 ZZZZ=         -50546.6915 XXXY=          -3764.2842
 XXXZ=           2682.4680 YYYX=         -35701.3314 YYYZ=         -40731.2905 ZZZX=            295.2484
 ZZZY=          21891.0532 XXYY=           6656.8206 XXZZ=           -470.8138 YYZZ=          12856.1331
 XXYZ=          -7178.6256 YYXZ=          30109.2191 ZZXY=         -14320.4173
 N-N= 4.952067760345D+03 E-N=-1.422482996594D+04  KE= 1.849280012252D+03
 Unable to Open any file for archive entry.
 1\1\GINC-LAC-258\SP\RB3LYP\6-31G(d)\C25H41N8O6(1+)\KENGMITH\11-Jun-202
 2\0\\# B3LYP/6-31G* empiricaldispersion=gd3 guess=read geom=check nosy
 mm integral(ultrafinegrid)\\Candidate Structure: Conf:538 Charge calc 
 in gas phase\\1,1\N,0,-3.9156309091,9.8492534132,-4.9344577384\C,0,-3.
 2387473907,9.0948371313,-6.0084385672\C,0,-1.7210769521,9.3003745297,-
 5.7943051112\O,0,-1.3046518438,9.9394022009,-4.8360376619\C,0,-3.67717
 09325,9.5955671272,-7.3957440972\C,0,-5.1438176279,9.4661264235,-7.764
 2902629\C,0,-6.0453441035,8.6091528589,-7.1206175441\C,0,-5.6032421762
 ,10.1979411455,-8.8730371793\C,0,-7.363769199,8.4785056069,-7.57307134
 09\C,0,-6.9058473806,10.0509997367,-9.3445814372\C,0,-7.7968718412,9.1
 890677771,-8.6935877904\H,0,-3.5661736425,9.53964805,-4.0280525254\H,0
 ,-3.4423975657,8.0149195745,-5.9257683954\H,0,-3.1054154203,9.04256737
 73,-8.1528437944\H,0,-3.3700644109,10.6386069649,-7.5014206137\H,0,-5.
 7231461888,8.0062797484,-6.2752562612\H,0,-4.9159559423,10.8725963262,
 -9.3781976871\H,0,-8.0407544855,7.7989690863,-7.0627532026\H,0,-7.2276
 969764,10.6071801398,-10.2214146974\H,0,-8.808509094,9.0573630586,-9.0
 686474572\H,0,-4.92065038,9.6939635975,-4.9685548581\N,0,-0.8883609863
 ,8.7623910154,-6.728775015\C,0,0.5705072062,8.893175391,-6.6112998344\
 C,0,0.9893554563,10.371373605,-6.4910688448\O,0,1.9157093237,10.715992
 7184,-5.7711709996\C,0,1.2361822013,8.2027930546,-7.814448086\C,0,2.77
 18561424,8.3198005781,-7.8736233294\C,0,3.4473471883,7.7932093381,-6.5
 992380073\C,0,3.2901206256,7.5889512145,-9.1202964897\H,0,-1.256975674
 6,8.1546081627,-7.4476101273\H,0,0.8972288188,8.4351980257,-5.67403368
 91\H,0,0.9612829468,7.1375260661,-7.7909246615\H,0,0.8090919246,8.6241
 45562,-8.7361335375\H,0,3.0238543531,9.3845726444,-7.9718027623\H,0,3.
 1387726165,6.760290019,-6.3891884713\H,0,4.5366904864,7.7951374986,-6.
 7160261413\H,0,3.2061031407,8.4174075156,-5.734227623\H,0,2.8237583514
 ,7.9698700095,-10.0371930066\H,0,4.3742160885,7.7102356279,-9.21918284
 65\H,0,3.081145926,6.5130859266,-9.0586935598\N,0,0.2845691302,11.2487
 657866,-7.2679568031\C,0,0.1648070534,12.6303836105,-6.8305086335\C,0,
 -1.2907999343,13.0405693325,-7.1215923969\O,0,-2.0279844476,12.3336992
 476,-7.8237772422\C,0,1.2474868553,13.5342199068,-7.4542501367\C,0,1.4
 969457559,14.8087806624,-6.6501883046\N,0,2.6640713625,15.4431098719,-
 6.9181791641\O,0,0.696534449,15.2549444322,-5.8244781023\H,0,-0.550390
 4603,10.9078296388,-7.7329893636\H,0,0.3015751993,12.6564396358,-5.743
 0778303\H,0,2.1675734417,12.941609602,-7.486295889\H,0,0.9962961266,13
 .7987405911,-8.4893570233\H,0,2.8988272348,16.259959498,-6.3698740351\
 H,0,3.3891701677,15.0216033338,-7.4797441207\N,0,-1.7478093227,14.1411
 32344,-6.4958211757\C,0,-3.1832598176,14.3537342557,-6.3669361728\C,0,
 -3.844796613,13.0147964416,-5.953059617\O,0,-4.8938966725,12.590775566
 1,-6.4562815806\C,0,-3.8155029405,14.980509603,-7.6271538949\C,0,-5.19
 55709443,15.6550809711,-7.3884631775\C,0,-6.2928775217,15.2132439119,-
 8.3714006217\N,0,-6.5686311839,13.7864034261,-8.1510791108\C,0,-7.7370
 624312,13.2228696473,-7.8779893346\N,0,-8.8924413137,13.7014585603,-8.
 3775317856\N,0,-7.7773813632,12.1393647802,-7.0729210192\O,0,-3.197829
 1949,12.3899099693,-5.0164183447\H,0,-3.5331125097,11.3987007761,-4.94
 18266282\H,0,-1.0726752252,14.674539994,-5.9432150513\H,0,-3.313922214
 1,15.0357099532,-5.5177665186\H,0,-3.8636633604,14.2025537062,-8.39679
 41284\H,0,-3.1067794295,15.7256257419,-7.9987009118\H,0,-5.5556308729,
 15.4483511338,-6.3727510373\H,0,-5.0961731947,16.7430060852,-7.4643820
 231\H,0,-7.2085510645,15.7913622075,-8.2062795946\H,0,-5.9732553793,15
 .3702378744,-9.4079723445\H,0,-5.7721983522,13.2803149403,-7.731554399
 5\H,0,-9.7762316197,13.4381790539,-7.9667268216\H,0,-8.8939719128,14.4
 283736779,-9.077085514\H,0,-8.4122754841,11.3859180592,-7.3088266421\H
 ,0,-6.8857406382,11.8314894618,-6.6913488491\\Version=ES64L-G16RevC.01
 \HF=-1866.7522643\RMSD=1.053e-09\Dipole=-5.6810921,1.8624119,-2.090408
 1\Quadrupole=-158.7746304,261.929143,-103.1545126,-243.3478927,149.735
 3016,-372.1439956\PG=C01 [X(C25H41N8O6)]\\@
 The archive entry for this job was punched.


 THE WISE MAN HAS THE POWER TO REASON AWAY
 WHAT A FOOL BELIEVES.
                     - DOOBIE BROTHERS
 Job cpu time:       0 days  0 hours  5 minutes 15.0 seconds.
 Elapsed time:       0 days  0 hours  1 minutes 19.6 seconds.
 File lengths (MBytes):  RWF=    344 Int=      0 D2E=      0 Chk=     56 Scr=     16
 Normal termination of Gaussian 16 at Sat Jun 11 21:07:43 2022.
