 Entering Gaussian System, Link 0=/opt/software/Gaussian/g16-AVX2-C.01/g16/g16
 Input=charge-conf-746.com
 Output=charge-conf-746.log
 Initial command:
 /opt/software/Gaussian/g16-AVX2-C.01/g16/l1.exe "/mnt/gs18/scratch/users/kengmith/Gau-29619.inp" -scrdir="/mnt/gs18/scratch/users/kengmith/"
 Entering Link 1 = /opt/software/Gaussian/g16-AVX2-C.01/g16/l1.exe PID=     29633.
  
 Copyright (c) 1988-2019, Gaussian, Inc.  All Rights Reserved.
  
 This is part of the Gaussian(R) 16 program.  It is based on
 the Gaussian(R) 09 system (copyright 2009, Gaussian, Inc.),
 the Gaussian(R) 03 system (copyright 2003, Gaussian, Inc.),
 the Gaussian(R) 98 system (copyright 1998, Gaussian, Inc.),
 the Gaussian(R) 94 system (copyright 1995, Gaussian, Inc.),
 the Gaussian 92(TM) system (copyright 1992, Gaussian, Inc.),
 the Gaussian 90(TM) system (copyright 1990, Gaussian, Inc.),
 the Gaussian 88(TM) system (copyright 1988, Gaussian, Inc.),
 the Gaussian 86(TM) system (copyright 1986, Carnegie Mellon
 University), and the Gaussian 82(TM) system (copyright 1983,
 Carnegie Mellon University). Gaussian is a federally registered
 trademark of Gaussian, Inc.
  
 This software contains proprietary and confidential information,
 including trade secrets, belonging to Gaussian, Inc.
  
 This software is provided under written license and may be
 used, copied, transmitted, or stored only in accord with that
 written license.
  
 The following legend is applicable only to US Government
 contracts under FAR:
  
                    RESTRICTED RIGHTS LEGEND
  
 Use, reproduction and disclosure by the US Government is
 subject to restrictions as set forth in subparagraphs (a)
 and (c) of the Commercial Computer Software - Restricted
 Rights clause in FAR 52.227-19.
  
 Gaussian, Inc.
 340 Quinnipiac St., Bldg. 40, Wallingford CT 06492
  
  
 ---------------------------------------------------------------
 Warning -- This program may not be used in any manner that
 competes with the business of Gaussian, Inc. or will provide
 assistance to any competitor of Gaussian, Inc.  The licensee
 of this program is prohibited from giving any competitor of
 Gaussian, Inc. access to this program.  By using this program,
 the user acknowledges that Gaussian, Inc. is engaged in the
 business of creating and licensing software in the field of
 computational chemistry and represents and warrants to the
 licensee that it is not a competitor of Gaussian, Inc. and that
 it will not use this program in any manner prohibited above.
 ---------------------------------------------------------------
  

 Cite this work as:
 Gaussian 16, Revision C.01,
 M. J. Frisch, G. W. Trucks, H. B. Schlegel, G. E. Scuseria, 
 M. A. Robb, J. R. Cheeseman, G. Scalmani, V. Barone, 
 G. A. Petersson, H. Nakatsuji, X. Li, M. Caricato, A. V. Marenich, 
 J. Bloino, B. G. Janesko, R. Gomperts, B. Mennucci, H. P. Hratchian, 
 J. V. Ortiz, A. F. Izmaylov, J. L. Sonnenberg, D. Williams-Young, 
 F. Ding, F. Lipparini, F. Egidi, J. Goings, B. Peng, A. Petrone, 
 T. Henderson, D. Ranasinghe, V. G. Zakrzewski, J. Gao, N. Rega, 
 G. Zheng, W. Liang, M. Hada, M. Ehara, K. Toyota, R. Fukuda, 
 J. Hasegawa, M. Ishida, T. Nakajima, Y. Honda, O. Kitao, H. Nakai, 
 T. Vreven, K. Throssell, J. A. Montgomery, Jr., J. E. Peralta, 
 F. Ogliaro, M. J. Bearpark, J. J. Heyd, E. N. Brothers, K. N. Kudin, 
 V. N. Staroverov, T. A. Keith, R. Kobayashi, J. Normand, 
 K. Raghavachari, A. P. Rendell, J. C. Burant, S. S. Iyengar, 
 J. Tomasi, M. Cossi, J. M. Millam, M. Klene, C. Adamo, R. Cammi, 
 J. W. Ochterski, R. L. Martin, K. Morokuma, O. Farkas, 
 J. B. Foresman, and D. J. Fox, Gaussian, Inc., Wallingford CT, 2019.
 
 ******************************************
 Gaussian 16:  ES64L-G16RevC.01  3-Jul-2019
                11-Jun-2022 
 ******************************************
 %mem=8gb
 %nproc=4
 Will use up to    4 processors via shared memory.
 %chk=conf-746.chk
 ----------------------------------------------------------------------
 # B3LYP/6-31G* empiricaldispersion=gd3 guess=read geom=check nosymm in
 tegral(ultrafinegrid)
 ----------------------------------------------------------------------
 1/29=2,38=1,172=1/1;
 2/12=2,15=1,40=1/2;
 3/5=1,6=6,7=1,11=2,14=-4,25=1,30=1,74=-5,75=-5,116=-2,124=31/1,2,3;
 4/5=1/1;
 5/5=2,38=6/2;
 6/7=2,8=2,9=2,10=2,28=1/1;
 99/5=1,9=1/99;
 ------------------------------------------------------
 Candidate Structure: Conf:746 Charge calc in gas phase
 ------------------------------------------------------
 Structure from the checkpoint file:  "conf-746.chk"
 Charge =  1 Multiplicity = 1
 Redundant internal coordinates found in file.  (old form).
 N,0,-2.1396611973,11.2575877658,-9.1608483418
 C,0,-2.639039252,9.9658910175,-9.695344052
 C,0,-4.179980185,10.0665872793,-9.586774966
 O,0,-4.7515599058,11.0070510125,-10.1299994746
 C,0,-1.9695682537,8.7884080222,-8.966007555
 C,0,-0.4634017691,8.8206983205,-9.0977100811
 C,0,0.1679450844,8.3524302086,-10.2560443313
 C,0,0.3179356899,9.3772389157,-8.0790552522
 C,0,1.5537102522,8.4430502113,-10.395830528
 C,0,1.7027381137,9.4752796394,-8.2182931335
 C,0,2.3255737228,9.0075341571,-9.3772422665
 H,0,-2.5365146762,11.3398908527,-8.2233505822
 H,0,-2.386383262,9.9242267812,-10.7596005544
 H,0,-2.3686229796,7.8516681919,-9.3768529268
 H,0,-2.2375299352,8.8258690945,-7.9018742315
 H,0,-0.4273749953,7.9116413564,-11.0532072821
 H,0,-0.1583392347,9.7403069546,-7.1739012637
 H,0,2.030957259,8.0683721515,-11.2971990471
 H,0,2.2897744727,9.9114495936,-7.4140896875
 H,0,3.4049510747,9.0728116887,-9.4850438454
 H,0,-2.595822736,11.9918904692,-9.7062516473
 N,0,-4.8439551539,9.2202943786,-8.7441818647
 C,0,-6.1986461753,9.5489100769,-8.2965987545
 C,0,-6.2075403241,10.822587097,-7.4198063342
 O,0,-7.1660779747,11.5811833345,-7.3814225737
 C,0,-6.8329032515,8.3742060502,-7.5380853951
 C,0,-6.9814332967,7.0696393946,-8.3464534213
 C,0,-7.5985999078,5.9812710307,-7.4561933837
 C,0,-7.808960081,7.2699398007,-9.6233045094
 H,0,-4.3724485735,8.4250820058,-8.3376375347
 H,0,-6.7996554061,9.8128259513,-9.1684434668
 H,0,-6.2450223005,8.1787665738,-6.6285539865
 H,0,-7.8226412614,8.7069868203,-7.2014769048
 H,0,-5.9779110432,6.7287584764,-8.644675105
 H,0,-8.6124359172,6.2632398272,-7.1452360029
 H,0,-7.6677098043,5.028659817,-7.9925251963
 H,0,-7.0038927424,5.8156445702,-6.5497416885
 H,0,-8.8033143284,7.6677668304,-9.3838696274
 H,0,-7.3280776509,7.96157991,-10.3232931621
 H,0,-7.9479542512,6.3172468796,-10.1458022781
 N,0,-5.0875868475,11.0102464567,-6.6574644129
 C,0,-4.7656647099,12.3031735773,-6.0884510146
 C,0,-3.2272243468,12.3389076858,-5.9614891442
 O,0,-2.5518628664,11.3349572745,-6.2465961627
 C,0,-5.5401425672,12.5573507021,-4.770575611
 C,0,-5.7059033367,14.038251415,-4.4440303218
 N,0,-6.8609762357,14.3773178358,-3.83268612
 O,0,-4.8377719287,14.884261898,-4.6938135229
 H,0,-4.2919853342,10.398999192,-6.7895524897
 H,0,-5.0625537401,13.0843938781,-6.8009523773
 H,0,-6.5196956715,12.0898746578,-4.8976172786
 H,0,-5.0436110916,12.0624173587,-3.9264529013
 H,0,-7.0244646028,15.3532339091,-3.6218783448
 H,0,-7.6308132638,13.7317322229,-3.7355386602
 N,0,-2.6635027351,13.5060737057,-5.6220295734
 C,0,-1.2156620037,13.7080486436,-5.578634459
 C,0,-0.5023097578,12.6839327818,-6.4844872675
 O,0,0.3141497583,11.8762735302,-6.0843592734
 C,0,-0.6558986417,13.7246469687,-4.1425846228
 C,0,0.5880266516,14.6115782485,-3.9253067728
 C,0,1.9383209741,14.1003033587,-4.4557144562
 N,0,2.0402852594,14.0423081186,-5.9272076313
 C,0,2.0226161934,15.08160267,-6.762778402
 N,0,2.4798039881,16.2825390251,-6.3666375688
 N,0,1.5426077241,14.9229953251,-8.0048584793
 O,0,-0.7160308011,12.9591264582,-7.7902644142
 H,0,-0.7976529951,12.1232811012,-8.3713562284
 H,0,-3.3014765622,14.2570437252,-5.3203395196
 H,0,-1.0398987794,14.6868463456,-6.0470443564
 H,0,-0.4607969298,12.6950551811,-3.8246849
 H,0,-1.4473512909,14.1180090072,-3.4956032921
 H,0,0.4004182298,15.616098489,-4.3304581288
 H,0,0.721222556,14.7439774033,-2.8446837877
 H,0,2.7540993659,14.7155267483,-4.0604212278
 H,0,2.1231326937,13.0793246026,-4.1156107694
 H,0,1.8078958445,13.1365839955,-6.3259969264
 H,0,2.3441712159,17.1073649373,-6.9328406085
 H,0,3.0849275664,16.3655789164,-5.5626609963
 H,0,1.7273672872,15.6030383755,-8.728805279
 H,0,0.8703222378,14.1800255941,-8.2034096172
 Recover connectivity data from disk.
                           ----------------------------
                           !    Current Parameters    !
                           ! (Angstroms and Degrees)  !
 --------------------------                            --------------------------
 ! Name  Definition              Value                                          !
 --------------------------------------------------------------------------------
 ! R1    R(1,2)                  1.4844                                         !
 ! R2    R(1,12)                 1.0214                                         !
 ! R3    R(1,21)                 1.0221                                         !
 ! R4    R(2,3)                  1.548                                          !
 ! R5    R(2,5)                  1.5384                                         !
 ! R6    R(2,13)                 1.0946                                         !
 ! R7    R(3,4)                  1.2273                                         !
 ! R8    R(3,22)                 1.3664                                         !
 ! R9    R(5,6)                  1.5123                                         !
 ! R10   R(5,14)                 1.098                                          !
 ! R11   R(5,15)                 1.098                                          !
 ! R12   R(6,7)                  1.3999                                         !
 ! R13   R(6,8)                  1.3992                                         !
 ! R14   R(7,9)                  1.3957                                         !
 ! R15   R(7,16)                 1.0882                                         !
 ! R16   R(8,10)                 1.3952                                         !
 ! R17   R(8,17)                 1.0853                                         !
 ! R18   R(9,11)                 1.3971                                         !
 ! R19   R(9,18)                 1.0866                                         !
 ! R20   R(10,11)                1.3964                                         !
 ! R21   R(10,19)                1.087                                          !
 ! R22   R(11,20)                1.0867                                         !
 ! R23   R(22,23)                1.4641                                         !
 ! R24   R(22,30)                1.0099                                         !
 ! R25   R(23,24)                1.5463                                         !
 ! R26   R(23,26)                1.5354                                         !
 ! R27   R(23,31)                1.0913                                         !
 ! R28   R(24,25)                1.223                                          !
 ! R29   R(24,41)                1.3677                                         !
 ! R30   R(26,27)                1.5419                                         !
 ! R31   R(26,32)                1.1005                                         !
 ! R32   R(26,33)                1.0971                                         !
 ! R33   R(27,28)                1.5356                                         !
 ! R34   R(27,29)                1.5347                                         !
 ! R35   R(27,34)                1.101                                          !
 ! R36   R(28,35)                1.0973                                         !
 ! R37   R(28,36)                1.0954                                         !
 ! R38   R(28,37)                1.0967                                         !
 ! R39   R(29,38)                1.0974                                         !
 ! R40   R(29,39)                1.0953                                         !
 ! R41   R(29,40)                1.0954                                         !
 ! R42   R(41,42)                1.4488                                         !
 ! R43   R(41,49)                1.012                                          !
 ! R44   R(42,43)                1.5441                                         !
 ! R45   R(42,45)                1.5496                                         !
 ! R46   R(42,50)                1.0982                                         !
 ! R47   R(43,44)                1.2431                                         !
 ! R48   R(43,55)                1.3399                                         !
 ! R49   R(45,46)                1.5255                                         !
 ! R50   R(45,51)                1.0928                                         !
 ! R51   R(45,52)                1.0973                                         !
 ! R52   R(46,47)                1.3501                                         !
 ! R53   R(46,48)                1.2377                                         !
 ! R54   R(47,53)                1.0117                                         !
 ! R55   R(47,54)                1.0094                                         !
 ! R56   R(55,56)                1.4625                                         !
 ! R57   R(55,68)                1.0305                                         !
 ! R58   R(56,57)                1.5422                                         !
 ! R59   R(56,59)                1.5414                                         !
 ! R60   R(56,69)                1.0992                                         !
 ! R61   R(57,58)                1.2162                                         !
 ! R62   R(57,66)                1.3515                                         !
 ! R63   R(59,60)                1.5431                                         !
 ! R64   R(59,70)                1.0951                                         !
 ! R65   R(59,71)                1.0953                                         !
 ! R66   R(60,61)                1.5382                                         !
 ! R67   R(60,72)                1.0993                                         !
 ! R68   R(60,73)                1.0968                                         !
 ! R69   R(61,62)                1.4762                                         !
 ! R70   R(61,74)                1.0956                                         !
 ! R71   R(61,75)                1.0919                                         !
 ! R72   R(62,63)                1.3337                                         !
 ! R73   R(62,76)                1.0166                                         !
 ! R74   R(63,64)                1.3447                                         !
 ! R75   R(63,65)                1.341                                          !
 ! R76   R(64,77)                1.0096                                         !
 ! R77   R(64,78)                1.0097                                         !
 ! R78   R(65,79)                1.0103                                         !
 ! R79   R(65,80)                1.0215                                         !
 ! R80   R(66,67)                1.0213                                         !
 ! A1    A(2,1,12)             105.6589                                         !
 ! A2    A(2,1,21)             106.4312                                         !
 ! A3    A(12,1,21)            104.9803                                         !
 ! A4    A(1,2,3)              104.6559                                         !
 ! A5    A(1,2,5)              110.4214                                         !
 ! A6    A(1,2,13)             107.7912                                         !
 ! A7    A(3,2,5)              116.726                                          !
 ! A8    A(3,2,13)             107.4828                                         !
 ! A9    A(5,2,13)             109.3515                                         !
 ! A10   A(2,3,4)              118.8415                                         !
 ! A11   A(2,3,22)             119.1215                                         !
 ! A12   A(4,3,22)             121.4155                                         !
 ! A13   A(2,5,6)              112.0735                                         !
 ! A14   A(2,5,14)             108.5087                                         !
 ! A15   A(2,5,15)             109.0964                                         !
 ! A16   A(6,5,14)             110.3415                                         !
 ! A17   A(6,5,15)             109.071                                          !
 ! A18   A(14,5,15)            107.6414                                         !
 ! A19   A(5,6,7)              120.9381                                         !
 ! A20   A(5,6,8)              120.0822                                         !
 ! A21   A(7,6,8)              118.921                                          !
 ! A22   A(6,7,9)              120.593                                          !
 ! A23   A(6,7,16)             119.665                                          !
 ! A24   A(9,7,16)             119.7418                                         !
 ! A25   A(6,8,10)             120.632                                          !
 ! A26   A(6,8,17)             119.68                                           !
 ! A27   A(10,8,17)            119.6873                                         !
 ! A28   A(7,9,11)             120.1148                                         !
 ! A29   A(7,9,18)             119.7873                                         !
 ! A30   A(11,9,18)            120.0971                                         !
 ! A31   A(8,10,11)            120.1318                                         !
 ! A32   A(8,10,19)            119.365                                          !
 ! A33   A(11,10,19)           120.5016                                         !
 ! A34   A(9,11,10)            119.605                                          !
 ! A35   A(9,11,20)            120.0455                                         !
 ! A36   A(10,11,20)           120.3472                                         !
 ! A37   A(3,22,23)            119.9423                                         !
 ! A38   A(3,22,30)            120.6003                                         !
 ! A39   A(23,22,30)           119.0557                                         !
 ! A40   A(22,23,24)           111.3181                                         !
 ! A41   A(22,23,26)           111.1936                                         !
 ! A42   A(22,23,31)           108.6402                                         !
 ! A43   A(24,23,26)           110.3457                                         !
 ! A44   A(24,23,31)           104.5146                                         !
 ! A45   A(26,23,31)           110.6209                                         !
 ! A46   A(23,24,25)           122.2228                                         !
 ! A47   A(23,24,41)           115.1094                                         !
 ! A48   A(25,24,41)           122.6276                                         !
 ! A49   A(23,26,27)           115.3475                                         !
 ! A50   A(23,26,32)           108.8743                                         !
 ! A51   A(23,26,33)           106.9873                                         !
 ! A52   A(27,26,32)           109.5424                                         !
 ! A53   A(27,26,33)           109.3048                                         !
 ! A54   A(32,26,33)           106.3926                                         !
 ! A55   A(26,27,28)           109.5387                                         !
 ! A56   A(26,27,29)           112.1917                                         !
 ! A57   A(26,27,34)           108.431                                          !
 ! A58   A(28,27,29)           110.9861                                         !
 ! A59   A(28,27,34)           107.6933                                         !
 ! A60   A(29,27,34)           107.8501                                         !
 ! A61   A(27,28,35)           110.7019                                         !
 ! A62   A(27,28,36)           110.9697                                         !
 ! A63   A(27,28,37)           111.6094                                         !
 ! A64   A(35,28,36)           107.6938                                         !
 ! A65   A(35,28,37)           107.7946                                         !
 ! A66   A(36,28,37)           107.9123                                         !
 ! A67   A(27,29,38)           110.7543                                         !
 ! A68   A(27,29,39)           112.173                                          !
 ! A69   A(27,29,40)           110.5948                                         !
 ! A70   A(38,29,39)           107.9593                                         !
 ! A71   A(38,29,40)           107.7206                                         !
 ! A72   A(39,29,40)           107.4619                                         !
 ! A73   A(24,41,42)           121.5534                                         !
 ! A74   A(24,41,49)           119.2189                                         !
 ! A75   A(42,41,49)           114.5575                                         !
 ! A76   A(41,42,43)           105.9221                                         !
 ! A77   A(41,42,45)           111.6751                                         !
 ! A78   A(41,42,50)           108.6591                                         !
 ! A79   A(43,42,45)           115.1028                                         !
 ! A80   A(43,42,50)           107.8321                                         !
 ! A81   A(45,42,50)           107.4557                                         !
 ! A82   A(42,43,44)           120.2485                                         !
 ! A83   A(42,43,55)           117.3985                                         !
 ! A84   A(44,43,55)           122.2111                                         !
 ! A85   A(42,45,46)           113.3027                                         !
 ! A86   A(42,45,51)           106.1985                                         !
 ! A87   A(42,45,52)           110.7384                                         !
 ! A88   A(46,45,51)           110.045                                          !
 ! A89   A(46,45,52)           108.8058                                         !
 ! A90   A(51,45,52)           107.5836                                         !
 ! A91   A(45,46,47)           115.7009                                         !
 ! A92   A(45,46,48)           122.967                                          !
 ! A93   A(47,46,48)           121.3194                                         !
 ! A94   A(46,47,53)           118.3488                                         !
 ! A95   A(46,47,54)           122.3738                                         !
 ! A96   A(53,47,54)           118.2713                                         !
 ! A97   A(43,55,56)           122.9784                                         !
 ! A98   A(43,55,68)           116.6473                                         !
 ! A99   A(56,55,68)           120.2347                                         !
 ! A100  A(55,56,57)           110.4133                                         !
 ! A101  A(55,56,59)           112.8704                                         !
 ! A102  A(55,56,69)           105.582                                          !
 ! A103  A(57,56,59)           112.7319                                         !
 ! A104  A(57,56,69)           105.4889                                         !
 ! A105  A(59,56,69)           109.229                                          !
 ! A106  A(56,57,58)           123.9388                                         !
 ! A107  A(56,57,66)           111.0486                                         !
 ! A108  A(58,57,66)           124.0064                                         !
 ! A109  A(56,59,60)           115.475                                          !
 ! A110  A(56,59,70)           108.968                                          !
 ! A111  A(56,59,71)           106.9642                                         !
 ! A112  A(60,59,70)           110.8488                                         !
 ! A113  A(60,59,71)           107.0313                                         !
 ! A114  A(70,59,71)           107.1527                                         !
 ! A115  A(59,60,61)           117.9075                                         !
 ! A116  A(59,60,72)           109.6183                                         !
 ! A117  A(59,60,73)           107.8183                                         !
 ! A118  A(61,60,72)           109.0543                                         !
 ! A119  A(61,60,73)           105.8579                                         !
 ! A120  A(72,60,73)           105.8749                                         !
 ! A121  A(60,61,62)           114.6725                                         !
 ! A122  A(60,61,74)           110.0348                                         !
 ! A123  A(60,61,75)           110.6083                                         !
 ! A124  A(62,61,74)           109.2871                                         !
 ! A125  A(62,61,75)           105.1929                                         !
 ! A126  A(74,61,75)           106.6587                                         !
 ! A127  A(61,62,63)           126.3713                                         !
 ! A128  A(61,62,76)           114.2218                                         !
 ! A129  A(63,62,76)           116.4561                                         !
 ! A130  A(62,63,64)           120.4574                                         !
 ! A131  A(62,63,65)           119.5299                                         !
 ! A132  A(64,63,65)           120.0126                                         !
 ! A133  A(63,64,77)           121.2481                                         !
 ! A134  A(63,64,78)           120.7836                                         !
 ! A135  A(77,64,78)           117.3794                                         !
 ! A136  A(63,65,79)           121.2405                                         !
 ! A137  A(63,65,80)           120.1091                                         !
 ! A138  A(79,65,80)           118.0778                                         !
 ! A139  A(57,66,67)           113.3123                                         !
 ! D1    D(12,1,2,3)            55.7205                                         !
 ! D2    D(12,1,2,5)           -70.6777                                         !
 ! D3    D(12,1,2,13)          169.9278                                         !
 ! D4    D(21,1,2,3)           -55.5362                                         !
 ! D5    D(21,1,2,5)           178.0656                                         !
 ! D6    D(21,1,2,13)           58.6711                                         !
 ! D7    D(1,2,3,4)             56.0892                                         !
 ! D8    D(1,2,3,22)          -115.0049                                         !
 ! D9    D(5,2,3,4)            178.4654                                         !
 ! D10   D(5,2,3,22)             7.3713                                         !
 ! D11   D(13,2,3,4)           -58.3351                                         !
 ! D12   D(13,2,3,22)          130.5708                                         !
 ! D13   D(1,2,5,6)            -58.5286                                         !
 ! D14   D(1,2,5,14)           179.3765                                         !
 ! D15   D(1,2,5,15)            62.3694                                         !
 ! D16   D(3,2,5,6)           -177.8523                                         !
 ! D17   D(3,2,5,14)            60.0527                                         !
 ! D18   D(3,2,5,15)           -56.9543                                         !
 ! D19   D(13,2,5,6)            59.917                                          !
 ! D20   D(13,2,5,14)          -62.178                                          !
 ! D21   D(13,2,5,15)         -179.185                                          !
 ! D22   D(2,3,22,23)          160.6388                                         !
 ! D23   D(2,3,22,30)          -12.0189                                         !
 ! D24   D(4,3,22,23)          -10.2179                                         !
 ! D25   D(4,3,22,30)          177.1243                                         !
 ! D26   D(2,5,6,7)            -80.3536                                         !
 ! D27   D(2,5,6,8)             96.8289                                         !
 ! D28   D(14,5,6,7)            40.6894                                         !
 ! D29   D(14,5,6,8)          -142.128                                          !
 ! D30   D(15,5,6,7)           158.7338                                         !
 ! D31   D(15,5,6,8)           -24.0837                                         !
 ! D32   D(5,6,7,9)            176.9859                                         !
 ! D33   D(5,6,7,16)            -3.1687                                         !
 ! D34   D(8,6,7,9)             -0.2288                                         !
 ! D35   D(8,6,7,16)           179.6166                                         !
 ! D36   D(5,6,8,10)          -176.6968                                         !
 ! D37   D(5,6,8,17)             3.0187                                         !
 ! D38   D(7,6,8,10)             0.5423                                         !
 ! D39   D(7,6,8,17)          -179.7422                                         !
 ! D40   D(6,7,9,11)            -0.1547                                         !
 ! D41   D(6,7,9,18)           179.5225                                         !
 ! D42   D(16,7,9,11)         -179.9999                                         !
 ! D43   D(16,7,9,18)           -0.3228                                         !
 ! D44   D(6,8,10,11)           -0.4731                                         !
 ! D45   D(6,8,10,19)          179.985                                          !
 ! D46   D(17,8,10,11)         179.8114                                         !
 ! D47   D(17,8,10,19)           0.2695                                         !
 ! D48   D(7,9,11,10)            0.2288                                         !
 ! D49   D(7,9,11,20)          179.6811                                         !
 ! D50   D(18,9,11,10)        -179.4474                                         !
 ! D51   D(18,9,11,20)           0.0049                                         !
 ! D52   D(8,10,11,9)            0.0826                                         !
 ! D53   D(8,10,11,20)        -179.3681                                         !
 ! D54   D(19,10,11,9)         179.6193                                         !
 ! D55   D(19,10,11,20)          0.1686                                         !
 ! D56   D(3,22,23,24)         -65.1557                                         !
 ! D57   D(3,22,23,26)         171.3666                                         !
 ! D58   D(3,22,23,31)          49.3992                                         !
 ! D59   D(30,22,23,24)        107.6153                                         !
 ! D60   D(30,22,23,26)        -15.8624                                         !
 ! D61   D(30,22,23,31)       -137.8298                                         !
 ! D62   D(22,23,24,25)        149.6618                                         !
 ! D63   D(22,23,24,41)        -32.5874                                         !
 ! D64   D(26,23,24,25)        -86.3787                                         !
 ! D65   D(26,23,24,41)         91.3722                                         !
 ! D66   D(31,23,24,25)         32.5684                                         !
 ! D67   D(31,23,24,41)       -149.6808                                         !
 ! D68   D(22,23,26,27)        -60.4296                                         !
 ! D69   D(22,23,26,32)         63.1519                                         !
 ! D70   D(22,23,26,33)        177.7531                                         !
 ! D71   D(24,23,26,27)        175.5391                                         !
 ! D72   D(24,23,26,32)        -60.8794                                         !
 ! D73   D(24,23,26,33)         53.7218                                         !
 ! D74   D(31,23,26,27)         60.3798                                         !
 ! D75   D(31,23,26,32)       -176.0388                                         !
 ! D76   D(31,23,26,33)        -61.4375                                         !
 ! D77   D(23,24,41,42)        162.1342                                         !
 ! D78   D(23,24,41,49)          7.6744                                         !
 ! D79   D(25,24,41,42)        -20.1251                                         !
 ! D80   D(25,24,41,49)       -174.5848                                         !
 ! D81   D(23,26,27,28)        178.7939                                         !
 ! D82   D(23,26,27,29)        -57.4823                                         !
 ! D83   D(23,26,27,34)         61.5232                                         !
 ! D84   D(32,26,27,28)         55.5654                                         !
 ! D85   D(32,26,27,29)        179.2892                                         !
 ! D86   D(32,26,27,34)        -61.7053                                         !
 ! D87   D(33,26,27,28)        -60.6435                                         !
 ! D88   D(33,26,27,29)         63.0803                                         !
 ! D89   D(33,26,27,34)       -177.9142                                         !
 ! D90   D(26,27,28,35)         63.365                                          !
 ! D91   D(26,27,28,36)       -177.111                                          !
 ! D92   D(26,27,28,37)        -56.7072                                         !
 ! D93   D(29,27,28,35)        -61.0641                                         !
 ! D94   D(29,27,28,36)         58.4599                                         !
 ! D95   D(29,27,28,37)        178.8637                                         !
 ! D96   D(34,27,28,35)       -178.9021                                         !
 ! D97   D(34,27,28,36)        -59.3781                                         !
 ! D98   D(34,27,28,37)         61.0256                                         !
 ! D99   D(26,27,29,38)        -57.3079                                         !
 ! D100  D(26,27,29,39)         63.39                                           !
 ! D101  D(26,27,29,40)       -176.6563                                         !
 ! D102  D(28,27,29,38)         65.603                                          !
 ! D103  D(28,27,29,39)       -173.6991                                         !
 ! D104  D(28,27,29,40)        -53.7454                                         !
 ! D105  D(34,27,29,38)       -176.6542                                         !
 ! D106  D(34,27,29,39)        -55.9564                                         !
 ! D107  D(34,27,29,40)         63.9973                                         !
 ! D108  D(24,41,42,43)       -151.6682                                         !
 ! D109  D(24,41,42,45)         82.3083                                         !
 ! D110  D(24,41,42,50)        -36.0453                                         !
 ! D111  D(49,41,42,43)          3.8938                                         !
 ! D112  D(49,41,42,45)       -122.1298                                         !
 ! D113  D(49,41,42,50)        119.5167                                         !
 ! D114  D(41,42,43,44)         -4.3908                                         !
 ! D115  D(41,42,43,55)        171.3749                                         !
 ! D116  D(45,42,43,44)        119.5122                                         !
 ! D117  D(45,42,43,55)        -64.7221                                         !
 ! D118  D(50,42,43,44)       -120.5751                                         !
 ! D119  D(50,42,43,55)         55.1906                                         !
 ! D120  D(41,42,45,46)       -156.0701                                         !
 ! D121  D(41,42,45,51)        -35.156                                          !
 ! D122  D(41,42,45,52)         81.3553                                         !
 ! D123  D(43,42,45,46)         83.1198                                         !
 ! D124  D(43,42,45,51)       -155.9661                                         !
 ! D125  D(43,42,45,52)        -39.4548                                         !
 ! D126  D(50,42,45,46)        -37.0002                                         !
 ! D127  D(50,42,45,51)         83.9139                                         !
 ! D128  D(50,42,45,52)       -159.5748                                         !
 ! D129  D(42,43,55,56)       -174.6284                                         !
 ! D130  D(42,43,55,68)          9.6639                                         !
 ! D131  D(44,43,55,56)          1.0483                                         !
 ! D132  D(44,43,55,68)       -174.6595                                         !
 ! D133  D(42,45,46,47)        145.5355                                         !
 ! D134  D(42,45,46,48)        -35.7501                                         !
 ! D135  D(51,45,46,47)         26.8186                                         !
 ! D136  D(51,45,46,48)       -154.467                                          !
 ! D137  D(52,45,46,47)        -90.8244                                         !
 ! D138  D(52,45,46,48)         87.89                                           !
 ! D139  D(45,46,47,53)       -178.2534                                         !
 ! D140  D(45,46,47,54)         -9.9335                                         !
 ! D141  D(48,46,47,53)          3.0092                                         !
 ! D142  D(48,46,47,54)        171.3291                                         !
 ! D143  D(43,55,56,57)         23.2162                                         !
 ! D144  D(43,55,56,59)       -103.9747                                         !
 ! D145  D(43,55,56,69)        136.7694                                         !
 ! D146  D(68,55,56,57)       -161.2245                                         !
 ! D147  D(68,55,56,59)         71.5847                                         !
 ! D148  D(68,55,56,69)        -47.6712                                         !
 ! D149  D(55,56,57,58)       -119.9289                                         !
 ! D150  D(55,56,57,66)         71.1655                                         !
 ! D151  D(59,56,57,58)          7.3385                                         !
 ! D152  D(59,56,57,66)       -161.567                                          !
 ! D153  D(69,56,57,58)        126.4585                                         !
 ! D154  D(69,56,57,66)        -42.447                                          !
 ! D155  D(55,56,59,60)       -149.1913                                         !
 ! D156  D(55,56,59,70)         85.3144                                         !
 ! D157  D(55,56,59,71)        -30.2093                                         !
 ! D158  D(57,56,59,60)         84.8536                                         !
 ! D159  D(57,56,59,70)        -40.6407                                         !
 ! D160  D(57,56,59,71)       -156.1645                                         !
 ! D161  D(69,56,59,60)        -32.0691                                         !
 ! D162  D(69,56,59,70)       -157.5634                                         !
 ! D163  D(69,56,59,71)         86.9129                                         !
 ! D164  D(56,57,66,67)       -144.6                                            !
 ! D165  D(58,57,66,67)         46.5035                                         !
 ! D166  D(56,59,60,61)        -74.9347                                         !
 ! D167  D(56,59,60,72)         50.5848                                         !
 ! D168  D(56,59,60,73)        165.3938                                         !
 ! D169  D(70,59,60,61)         49.587                                          !
 ! D170  D(70,59,60,72)        175.1066                                         !
 ! D171  D(70,59,60,73)        -70.0845                                         !
 ! D172  D(71,59,60,61)        166.1204                                         !
 ! D173  D(71,59,60,72)        -68.3601                                         !
 ! D174  D(71,59,60,73)         46.4489                                         !
 ! D175  D(59,60,61,62)         67.8603                                         !
 ! D176  D(59,60,61,74)       -168.4697                                         !
 ! D177  D(59,60,61,75)        -50.8809                                         !
 ! D178  D(72,60,61,62)        -57.9351                                         !
 ! D179  D(72,60,61,74)         65.7349                                         !
 ! D180  D(72,60,61,75)       -176.6763                                         !
 ! D181  D(73,60,61,62)       -171.448                                          !
 ! D182  D(73,60,61,74)        -47.778                                          !
 ! D183  D(73,60,61,75)         69.8108                                         !
 ! D184  D(60,61,62,63)         65.6092                                         !
 ! D185  D(60,61,62,76)        -94.1162                                         !
 ! D186  D(74,61,62,63)        -58.4588                                         !
 ! D187  D(74,61,62,76)        141.8158                                         !
 ! D188  D(75,61,62,63)       -172.6477                                         !
 ! D189  D(75,61,62,76)         27.6269                                         !
 ! D190  D(61,62,63,64)         29.2019                                         !
 ! D191  D(61,62,63,65)       -150.6939                                         !
 ! D192  D(76,62,63,64)       -171.4678                                         !
 ! D193  D(76,62,63,65)          8.6365                                         !
 ! D194  D(62,63,64,77)       -170.5004                                         !
 ! D195  D(62,63,64,78)         18.5298                                         !
 ! D196  D(65,63,64,77)          9.3948                                         !
 ! D197  D(65,63,64,78)       -161.575                                          !
 ! D198  D(62,63,65,79)       -164.0958                                         !
 ! D199  D(62,63,65,80)         24.7484                                         !
 ! D200  D(64,63,65,79)         16.008                                          !
 ! D201  D(64,63,65,80)       -155.1478                                         !
 --------------------------------------------------------------------------------
 Symmetry turned off by external request.
 Stoichiometry    C25H41N8O6(1+)
 Framework group  C1[X(C25H41N8O6)]
 Deg. of freedom   234
 Full point group                 C1      NOp   1
                          Input orientation:                          
 ---------------------------------------------------------------------
 Center     Atomic      Atomic             Coordinates (Angstroms)
 Number     Number       Type             X           Y           Z
 ---------------------------------------------------------------------
      1          7           0       -2.139661   11.257588   -9.160848
      2          6           0       -2.639039    9.965891   -9.695344
      3          6           0       -4.179980   10.066587   -9.586775
      4          8           0       -4.751560   11.007051  -10.129999
      5          6           0       -1.969568    8.788408   -8.966008
      6          6           0       -0.463402    8.820698   -9.097710
      7          6           0        0.167945    8.352430  -10.256044
      8          6           0        0.317936    9.377239   -8.079055
      9          6           0        1.553710    8.443050  -10.395831
     10          6           0        1.702738    9.475280   -8.218293
     11          6           0        2.325574    9.007534   -9.377242
     12          1           0       -2.536515   11.339891   -8.223351
     13          1           0       -2.386383    9.924227  -10.759601
     14          1           0       -2.368623    7.851668   -9.376853
     15          1           0       -2.237530    8.825869   -7.901874
     16          1           0       -0.427375    7.911641  -11.053207
     17          1           0       -0.158339    9.740307   -7.173901
     18          1           0        2.030957    8.068372  -11.297199
     19          1           0        2.289774    9.911450   -7.414090
     20          1           0        3.404951    9.072812   -9.485044
     21          1           0       -2.595823   11.991890   -9.706252
     22          7           0       -4.843955    9.220294   -8.744182
     23          6           0       -6.198646    9.548910   -8.296599
     24          6           0       -6.207540   10.822587   -7.419806
     25          8           0       -7.166078   11.581183   -7.381423
     26          6           0       -6.832903    8.374206   -7.538085
     27          6           0       -6.981433    7.069639   -8.346453
     28          6           0       -7.598600    5.981271   -7.456193
     29          6           0       -7.808960    7.269940   -9.623305
     30          1           0       -4.372449    8.425082   -8.337638
     31          1           0       -6.799655    9.812826   -9.168443
     32          1           0       -6.245022    8.178767   -6.628554
     33          1           0       -7.822641    8.706987   -7.201477
     34          1           0       -5.977911    6.728758   -8.644675
     35          1           0       -8.612436    6.263240   -7.145236
     36          1           0       -7.667710    5.028660   -7.992525
     37          1           0       -7.003893    5.815645   -6.549742
     38          1           0       -8.803314    7.667767   -9.383870
     39          1           0       -7.328078    7.961580  -10.323293
     40          1           0       -7.947954    6.317247  -10.145802
     41          7           0       -5.087587   11.010246   -6.657464
     42          6           0       -4.765665   12.303174   -6.088451
     43          6           0       -3.227224   12.338908   -5.961489
     44          8           0       -2.551863   11.334957   -6.246596
     45          6           0       -5.540143   12.557351   -4.770576
     46          6           0       -5.705903   14.038251   -4.444030
     47          7           0       -6.860976   14.377318   -3.832686
     48          8           0       -4.837772   14.884262   -4.693814
     49          1           0       -4.291985   10.398999   -6.789552
     50          1           0       -5.062554   13.084394   -6.800952
     51          1           0       -6.519696   12.089875   -4.897617
     52          1           0       -5.043611   12.062417   -3.926453
     53          1           0       -7.024465   15.353234   -3.621878
     54          1           0       -7.630813   13.731732   -3.735539
     55          7           0       -2.663503   13.506074   -5.622030
     56          6           0       -1.215662   13.708049   -5.578634
     57          6           0       -0.502310   12.683933   -6.484487
     58          8           0        0.314150   11.876274   -6.084359
     59          6           0       -0.655899   13.724647   -4.142585
     60          6           0        0.588027   14.611578   -3.925307
     61          6           0        1.938321   14.100303   -4.455714
     62          7           0        2.040285   14.042308   -5.927208
     63          6           0        2.022616   15.081603   -6.762778
     64          7           0        2.479804   16.282539   -6.366638
     65          7           0        1.542608   14.922995   -8.004858
     66          8           0       -0.716031   12.959126   -7.790264
     67          1           0       -0.797653   12.123281   -8.371356
     68          1           0       -3.301477   14.257044   -5.320340
     69          1           0       -1.039899   14.686846   -6.047044
     70          1           0       -0.460797   12.695055   -3.824685
     71          1           0       -1.447351   14.118009   -3.495603
     72          1           0        0.400418   15.616098   -4.330458
     73          1           0        0.721223   14.743977   -2.844684
     74          1           0        2.754099   14.715527   -4.060421
     75          1           0        2.123133   13.079325   -4.115611
     76          1           0        1.807896   13.136584   -6.325997
     77          1           0        2.344171   17.107365   -6.932841
     78          1           0        3.084928   16.365579   -5.562661
     79          1           0        1.727367   15.603038   -8.728805
     80          1           0        0.870322   14.180026   -8.203410
 ---------------------------------------------------------------------
 Rotational constants (GHZ):           0.1090258           0.0655320           0.0452914
 Standard basis: 6-31G(d) (6D, 7F)
   667 basis functions,  1256 primitive gaussians,   667 cartesian basis functions
   147 alpha electrons      147 beta electrons
       nuclear repulsion energy      4860.3068713864 Hartrees.
 NAtoms=   80 NActive=   80 NUniq=   80 SFac= 1.00D+00 NAtFMM=   60 NAOKFM=T Big=T
 Integral buffers will be    131072 words long.
 Raffenetti 2 integral format.
 Two-electron integral symmetry is turned off.
 Nuclear repulsion after empirical dispersion term =     4860.1968915856 Hartrees.
 One-electron integrals computed using PRISM.
 NBasis=   667 RedAO= T EigKep=  4.57D-04  NBF=   667
 NBsUse=   667 1.00D-06 EigRej= -1.00D+00 NBFU=   667
 Initial guess from the checkpoint file:  "conf-746.chk"
 B after Tr=     0.000000    0.000000    0.000000
         Rot=    1.000000    0.000000    0.000000    0.000000 Ang=   0.00 deg.
 Requested convergence on RMS density matrix=1.00D-08 within 128 cycles.
 Requested convergence on MAX density matrix=1.00D-06.
 Requested convergence on             energy=1.00D-06.
 No special actions if energy rises.
 SCF Done:  E(RB3LYP) =  -1866.72146223     A.U. after    3 cycles
            NFock=  3  Conv=0.74D-09     -V/T= 2.0094

 **********************************************************************

            Population analysis using the SCF Density.

 **********************************************************************

 Alpha  occ. eigenvalues --  -19.28642 -19.25015 -19.23288 -19.21964 -19.19005
 Alpha  occ. eigenvalues --  -19.18740 -14.53032 -14.51868 -14.51520 -14.46394
 Alpha  occ. eigenvalues --  -14.45496 -14.44282 -14.43316 -14.41518 -10.48740
 Alpha  occ. eigenvalues --  -10.43697 -10.39880 -10.39383 -10.36245 -10.36180
 Alpha  occ. eigenvalues --  -10.35816 -10.35323 -10.33515 -10.31338 -10.30837
 Alpha  occ. eigenvalues --  -10.30316 -10.29998 -10.29454 -10.27234 -10.26268
 Alpha  occ. eigenvalues --  -10.26062 -10.25716 -10.25360 -10.25301 -10.25253
 Alpha  occ. eigenvalues --  -10.25212 -10.24910 -10.23282 -10.23097  -1.20272
 Alpha  occ. eigenvalues --   -1.17087  -1.15106  -1.13392  -1.12029  -1.11484
 Alpha  occ. eigenvalues --   -1.10498  -1.06227  -1.05307  -1.03443  -1.01120
 Alpha  occ. eigenvalues --   -1.00289  -0.99590  -0.98294  -0.92014  -0.91871
 Alpha  occ. eigenvalues --   -0.88442  -0.87797  -0.86190  -0.85230  -0.82023
 Alpha  occ. eigenvalues --   -0.81968  -0.80653  -0.78959  -0.78536  -0.77416
 Alpha  occ. eigenvalues --   -0.74612  -0.74211  -0.74180  -0.72645  -0.72232
 Alpha  occ. eigenvalues --   -0.70697  -0.69819  -0.68652  -0.67725  -0.67052
 Alpha  occ. eigenvalues --   -0.66637  -0.66605  -0.65816  -0.65763  -0.64812
 Alpha  occ. eigenvalues --   -0.64397  -0.63330  -0.62902  -0.61885  -0.61121
 Alpha  occ. eigenvalues --   -0.60217  -0.59027  -0.58702  -0.58450  -0.57593
 Alpha  occ. eigenvalues --   -0.57365  -0.56683  -0.56541  -0.55822  -0.55585
 Alpha  occ. eigenvalues --   -0.55487  -0.54822  -0.54109  -0.53451  -0.52919
 Alpha  occ. eigenvalues --   -0.52659  -0.52009  -0.51853  -0.51666  -0.50705
 Alpha  occ. eigenvalues --   -0.50291  -0.50114  -0.49727  -0.49117  -0.48684
 Alpha  occ. eigenvalues --   -0.48301  -0.48151  -0.47528  -0.47319  -0.47192
 Alpha  occ. eigenvalues --   -0.46966  -0.46492  -0.46413  -0.46114  -0.45958
 Alpha  occ. eigenvalues --   -0.45423  -0.44821  -0.44334  -0.44074  -0.43821
 Alpha  occ. eigenvalues --   -0.42975  -0.42240  -0.42033  -0.41800  -0.40725
 Alpha  occ. eigenvalues --   -0.40646  -0.40298  -0.39280  -0.39069  -0.38838
 Alpha  occ. eigenvalues --   -0.38669  -0.37314  -0.37010  -0.36485  -0.36358
 Alpha  occ. eigenvalues --   -0.35902  -0.34814  -0.33262  -0.32418  -0.31290
 Alpha  occ. eigenvalues --   -0.31177  -0.30552
 Alpha virt. eigenvalues --   -0.13506  -0.12043  -0.08949  -0.08372  -0.07434
 Alpha virt. eigenvalues --   -0.06765  -0.06475  -0.06228  -0.05263  -0.04670
 Alpha virt. eigenvalues --   -0.02579  -0.01805  -0.01179  -0.01031  -0.00535
 Alpha virt. eigenvalues --    0.00122   0.01801   0.02347   0.02623   0.02862
 Alpha virt. eigenvalues --    0.02969   0.03319   0.03722   0.04628   0.04767
 Alpha virt. eigenvalues --    0.04959   0.05235   0.05828   0.06331   0.06509
 Alpha virt. eigenvalues --    0.06945   0.07071   0.07190   0.07632   0.07761
 Alpha virt. eigenvalues --    0.08091   0.08847   0.09354   0.09488   0.09856
 Alpha virt. eigenvalues --    0.09972   0.10359   0.10575   0.10829   0.10893
 Alpha virt. eigenvalues --    0.11181   0.11270   0.12113   0.12270   0.12444
 Alpha virt. eigenvalues --    0.12876   0.13149   0.13273   0.13960   0.14124
 Alpha virt. eigenvalues --    0.14445   0.14797   0.15319   0.15943   0.16372
 Alpha virt. eigenvalues --    0.16663   0.16979   0.17513   0.17663   0.18106
 Alpha virt. eigenvalues --    0.18987   0.19346   0.20296   0.20932   0.21241
 Alpha virt. eigenvalues --    0.22236   0.23483   0.23514   0.24123   0.24826
 Alpha virt. eigenvalues --    0.25438   0.26068   0.26865   0.27620   0.28141
 Alpha virt. eigenvalues --    0.28455   0.28902   0.30194   0.30780   0.32432
 Alpha virt. eigenvalues --    0.33951   0.34764   0.36377   0.37559   0.38712
 Alpha virt. eigenvalues --    0.38940   0.40308   0.41093   0.41656   0.42192
 Alpha virt. eigenvalues --    0.42547   0.43331   0.43871   0.44379   0.44736
 Alpha virt. eigenvalues --    0.44850   0.45585   0.45807   0.46100   0.46516
 Alpha virt. eigenvalues --    0.47007   0.47076   0.47343   0.48050   0.48632
 Alpha virt. eigenvalues --    0.49320   0.49392   0.49742   0.50129   0.50805
 Alpha virt. eigenvalues --    0.50985   0.51592   0.52097   0.52483   0.52718
 Alpha virt. eigenvalues --    0.53308   0.53663   0.53776   0.54223   0.54244
 Alpha virt. eigenvalues --    0.54596   0.55294   0.55458   0.55629   0.55937
 Alpha virt. eigenvalues --    0.56240   0.56655   0.57225   0.57575   0.57906
 Alpha virt. eigenvalues --    0.58273   0.58934   0.59989   0.60445   0.60747
 Alpha virt. eigenvalues --    0.61112   0.61396   0.61611   0.61861   0.62694
 Alpha virt. eigenvalues --    0.63022   0.63420   0.63976   0.64349   0.64574
 Alpha virt. eigenvalues --    0.65180   0.65240   0.65849   0.66448   0.66750
 Alpha virt. eigenvalues --    0.67555   0.68264   0.69108   0.69546   0.69974
 Alpha virt. eigenvalues --    0.70492   0.71259   0.71523   0.71894   0.72538
 Alpha virt. eigenvalues --    0.72824   0.73153   0.73922   0.74498   0.75096
 Alpha virt. eigenvalues --    0.75362   0.76117   0.76224   0.76313   0.76560
 Alpha virt. eigenvalues --    0.77067   0.77632   0.77766   0.78188   0.78365
 Alpha virt. eigenvalues --    0.78662   0.78775   0.79290   0.79401   0.80485
 Alpha virt. eigenvalues --    0.80725   0.81001   0.81292   0.81463   0.81857
 Alpha virt. eigenvalues --    0.82410   0.82828   0.83099   0.83629   0.84361
 Alpha virt. eigenvalues --    0.84617   0.84882   0.85137   0.85430   0.85926
 Alpha virt. eigenvalues --    0.86011   0.86424   0.86693   0.86971   0.87638
 Alpha virt. eigenvalues --    0.88101   0.88696   0.89012   0.89178   0.89878
 Alpha virt. eigenvalues --    0.90253   0.90840   0.91519   0.91916   0.92674
 Alpha virt. eigenvalues --    0.93202   0.93299   0.94524   0.94798   0.95387
 Alpha virt. eigenvalues --    0.95399   0.95704   0.96746   0.97751   0.98636
 Alpha virt. eigenvalues --    0.98939   0.99964   1.00695   1.01133   1.01909
 Alpha virt. eigenvalues --    1.02452   1.04069   1.05302   1.05523   1.06327
 Alpha virt. eigenvalues --    1.06956   1.07827   1.08263   1.09049   1.09264
 Alpha virt. eigenvalues --    1.09758   1.10456   1.10917   1.11838   1.12521
 Alpha virt. eigenvalues --    1.13157   1.13221   1.14310   1.15158   1.15446
 Alpha virt. eigenvalues --    1.16108   1.16798   1.18243   1.19094   1.19841
 Alpha virt. eigenvalues --    1.21150   1.21727   1.22948   1.23535   1.25844
 Alpha virt. eigenvalues --    1.26179   1.26482   1.27651   1.28245   1.29722
 Alpha virt. eigenvalues --    1.30559   1.32414   1.32821   1.33859   1.34411
 Alpha virt. eigenvalues --    1.35471   1.35794   1.36803   1.37644   1.38338
 Alpha virt. eigenvalues --    1.38568   1.39157   1.39871   1.40220   1.41160
 Alpha virt. eigenvalues --    1.41385   1.42309   1.43122   1.43571   1.44289
 Alpha virt. eigenvalues --    1.44809   1.45270   1.46370   1.46557   1.47505
 Alpha virt. eigenvalues --    1.48105   1.49474   1.50275   1.50478   1.50885
 Alpha virt. eigenvalues --    1.52979   1.53904   1.54552   1.55582   1.56512
 Alpha virt. eigenvalues --    1.56992   1.57902   1.58622   1.59584   1.60133
 Alpha virt. eigenvalues --    1.61972   1.62265   1.62767   1.63926   1.64069
 Alpha virt. eigenvalues --    1.64924   1.65632   1.66735   1.67393   1.67678
 Alpha virt. eigenvalues --    1.69148   1.70231   1.70635   1.71018   1.71589
 Alpha virt. eigenvalues --    1.72481   1.72828   1.73132   1.73346   1.74215
 Alpha virt. eigenvalues --    1.74288   1.75086   1.75572   1.75595   1.76306
 Alpha virt. eigenvalues --    1.76489   1.76893   1.77561   1.78896   1.78976
 Alpha virt. eigenvalues --    1.79573   1.80022   1.82005   1.82104   1.82533
 Alpha virt. eigenvalues --    1.83083   1.83491   1.85041   1.85794   1.86219
 Alpha virt. eigenvalues --    1.86267   1.86564   1.87043   1.87180   1.87854
 Alpha virt. eigenvalues --    1.88857   1.88947   1.89512   1.90266   1.90510
 Alpha virt. eigenvalues --    1.91548   1.91851   1.92396   1.92721   1.93401
 Alpha virt. eigenvalues --    1.93996   1.94509   1.94762   1.95904   1.96827
 Alpha virt. eigenvalues --    1.97424   1.97933   1.98735   1.99549   2.00167
 Alpha virt. eigenvalues --    2.00407   2.01945   2.02354   2.03743   2.04262
 Alpha virt. eigenvalues --    2.04712   2.04782   2.05129   2.05302   2.06678
 Alpha virt. eigenvalues --    2.07657   2.08229   2.08439   2.08853   2.09930
 Alpha virt. eigenvalues --    2.11140   2.11697   2.12558   2.12663   2.14414
 Alpha virt. eigenvalues --    2.14627   2.15072   2.15894   2.16649   2.17897
 Alpha virt. eigenvalues --    2.19630   2.20416   2.21538   2.22406   2.22654
 Alpha virt. eigenvalues --    2.23055   2.24133   2.24391   2.25007   2.25527
 Alpha virt. eigenvalues --    2.26789   2.27100   2.28387   2.28919   2.29626
 Alpha virt. eigenvalues --    2.31042   2.31971   2.32075   2.32691   2.34474
 Alpha virt. eigenvalues --    2.35546   2.37246   2.37969   2.38270   2.39554
 Alpha virt. eigenvalues --    2.39829   2.40790   2.41275   2.42624   2.43351
 Alpha virt. eigenvalues --    2.43721   2.44899   2.45434   2.46281   2.46574
 Alpha virt. eigenvalues --    2.46819   2.47796   2.48189   2.50101   2.51621
 Alpha virt. eigenvalues --    2.52126   2.52273   2.52937   2.53946   2.54790
 Alpha virt. eigenvalues --    2.55754   2.56022   2.56746   2.58886   2.59758
 Alpha virt. eigenvalues --    2.60222   2.61174   2.63193   2.63615   2.64614
 Alpha virt. eigenvalues --    2.66038   2.66411   2.67440   2.67896   2.69038
 Alpha virt. eigenvalues --    2.69988   2.70827   2.71370   2.73476   2.75267
 Alpha virt. eigenvalues --    2.78437   2.79085   2.81296   2.82429   2.86113
 Alpha virt. eigenvalues --    2.86537   2.88983   2.89911   2.92018   2.93258
 Alpha virt. eigenvalues --    2.94511   2.95062   2.95115   2.95611   2.97916
 Alpha virt. eigenvalues --    2.99340   3.02540   3.07352   3.10098   3.13109
 Alpha virt. eigenvalues --    3.34994   3.66129   3.71550   3.74056   3.84541
 Alpha virt. eigenvalues --    3.85283   3.92619   3.93526   3.95271   3.98839
 Alpha virt. eigenvalues --    4.02422   4.03397   4.05020   4.06302   4.06764
 Alpha virt. eigenvalues --    4.08547   4.10384   4.11647   4.11932   4.13869
 Alpha virt. eigenvalues --    4.18021   4.20232   4.23348   4.25018   4.26327
 Alpha virt. eigenvalues --    4.28512   4.30855   4.31806   4.35592   4.36446
 Alpha virt. eigenvalues --    4.39120   4.40460   4.45404   4.49488   4.51822
 Alpha virt. eigenvalues --    4.53186   4.59541   4.63507   4.65634   4.67539
          Condensed to atoms (all electrons):
 Mulliken charges:
               1
     1  N   -0.796606
     2  C   -0.042184
     3  C    0.584196
     4  O   -0.511586
     5  C   -0.402727
     6  C    0.191662
     7  C   -0.180195
     8  C   -0.197107
     9  C   -0.130226
    10  C   -0.143613
    11  C   -0.130148
    12  H    0.355068
    13  H    0.180912
    14  H    0.159971
    15  H    0.152579
    16  H    0.130672
    17  H    0.156818
    18  H    0.142051
    19  H    0.120982
    20  H    0.134018
    21  H    0.335860
    22  N   -0.647109
    23  C   -0.024749
    24  C    0.613529
    25  O   -0.522397
    26  C   -0.300395
    27  C   -0.072231
    28  C   -0.443499
    29  C   -0.453686
    30  H    0.343973
    31  H    0.206440
    32  H    0.131313
    33  H    0.171234
    34  H    0.116556
    35  H    0.150730
    36  H    0.155636
    37  H    0.141068
    38  H    0.152375
    39  H    0.155749
    40  H    0.155379
    41  N   -0.632162
    42  C   -0.027690
    43  C    0.603285
    44  O   -0.557647
    45  C   -0.380061
    46  C    0.632238
    47  N   -0.731267
    48  O   -0.545347
    49  H    0.348859
    50  H    0.205730
    51  H    0.202832
    52  H    0.190109
    53  H    0.361806
    54  H    0.362928
    55  N   -0.627610
    56  C    0.012581
    57  C    0.596907
    58  O   -0.485402
    59  C   -0.278207
    60  C   -0.288739
    61  C   -0.166371
    62  N   -0.598959
    63  C    0.785328
    64  N   -0.750829
    65  N   -0.774004
    66  O   -0.634346
    67  H    0.459241
    68  H    0.401545
    69  H    0.157304
    70  H    0.188216
    71  H    0.171295
    72  H    0.149886
    73  H    0.179958
    74  H    0.168793
    75  H    0.210585
    76  H    0.393311
    77  H    0.381867
    78  H    0.387339
    79  H    0.374446
    80  H    0.411938
 Sum of Mulliken charges =   1.00000
 Mulliken charges with hydrogens summed into heavy atoms:
               1
     1  N   -0.105679
     2  C    0.138728
     3  C    0.584196
     4  O   -0.511586
     5  C   -0.090177
     6  C    0.191662
     7  C   -0.049523
     8  C   -0.040289
     9  C    0.011825
    10  C   -0.022630
    11  C    0.003870
    22  N   -0.303136
    23  C    0.181691
    24  C    0.613529
    25  O   -0.522397
    26  C    0.002153
    27  C    0.044325
    28  C    0.003935
    29  C    0.009818
    41  N   -0.283303
    42  C    0.178040
    43  C    0.603285
    44  O   -0.557647
    45  C    0.012880
    46  C    0.632238
    47  N   -0.006532
    48  O   -0.545347
    55  N   -0.226065
    56  C    0.169885
    57  C    0.596907
    58  O   -0.485402
    59  C    0.081305
    60  C    0.041105
    61  C    0.213006
    62  N   -0.205648
    63  C    0.785328
    64  N    0.018376
    65  N    0.012380
    66  O   -0.175105
 Electronic spatial extent (au):  <R**2>=         221900.5843
 Charge=              1.0000 electrons
 Dipole moment (field-independent basis, Debye):
    X=             -0.5977    Y=             67.5609    Z=            -27.9844  Tot=             73.1297
 Quadrupole moment (field-independent basis, Debye-Ang):
   XX=           -157.6914   YY=            777.6629   ZZ=            -42.0221
   XY=             36.2287   XZ=            -25.6441   YZ=           -381.6459
 Traceless Quadrupole moment (field-independent basis, Debye-Ang):
   XX=           -350.3412   YY=            585.0131   ZZ=           -234.6719
   XY=             36.2287   XZ=            -25.6441   YZ=           -381.6459
 Octapole moment (field-independent basis, Debye-Ang**2):
  XXX=           1422.1842  YYY=           7713.1757  ZZZ=           3559.8636  XYY=           1502.0057
  XXY=          -1734.4165  XXZ=           1431.3026  XZZ=            925.6383  YZZ=           -168.7345
  YYZ=          -4045.4254  XYZ=           -683.5533
 Hexadecapole moment (field-independent basis, Debye-Ang**3):
 XXXX=         -21448.4570 YYYY=          56686.1151 ZZZZ=         -65652.4112 XXXY=          13890.2166
 XXXZ=         -12328.1377 YYYX=          35003.9988 YYYZ=         -35652.4000 ZZZX=         -16267.2990
 ZZZY=          36704.4024 XXYY=         -23295.1594 XXZZ=         -16597.9294 YYZZ=          -8010.7925
 XXYZ=          15992.3360 YYXZ=         -16577.5646 ZZXY=          12998.9109
 N-N= 4.860196891586D+03 E-N=-1.404040371865D+04  KE= 1.849250199673D+03
 Unable to Open any file for archive entry.
 1\1\GINC-LAC-307\SP\RB3LYP\6-31G(d)\C25H41N8O6(1+)\KENGMITH\11-Jun-202
 2\0\\# B3LYP/6-31G* empiricaldispersion=gd3 guess=read geom=check nosy
 mm integral(ultrafinegrid)\\Candidate Structure: Conf:746 Charge calc 
 in gas phase\\1,1\N,0,-2.1396611973,11.2575877658,-9.1608483418\C,0,-2
 .639039252,9.9658910175,-9.695344052\C,0,-4.179980185,10.0665872793,-9
 .586774966\O,0,-4.7515599058,11.0070510125,-10.1299994746\C,0,-1.96956
 82537,8.7884080222,-8.966007555\C,0,-0.4634017691,8.8206983205,-9.0977
 100811\C,0,0.1679450844,8.3524302086,-10.2560443313\C,0,0.3179356899,9
 .3772389157,-8.0790552522\C,0,1.5537102522,8.4430502113,-10.395830528\
 C,0,1.7027381137,9.4752796394,-8.2182931335\C,0,2.3255737228,9.0075341
 571,-9.3772422665\H,0,-2.5365146762,11.3398908527,-8.2233505822\H,0,-2
 .386383262,9.9242267812,-10.7596005544\H,0,-2.3686229796,7.8516681919,
 -9.3768529268\H,0,-2.2375299352,8.8258690945,-7.9018742315\H,0,-0.4273
 749953,7.9116413564,-11.0532072821\H,0,-0.1583392347,9.7403069546,-7.1
 739012637\H,0,2.030957259,8.0683721515,-11.2971990471\H,0,2.2897744727
 ,9.9114495936,-7.4140896875\H,0,3.4049510747,9.0728116887,-9.485043845
 4\H,0,-2.595822736,11.9918904692,-9.7062516473\N,0,-4.8439551539,9.220
 2943786,-8.7441818647\C,0,-6.1986461753,9.5489100769,-8.2965987545\C,0
 ,-6.2075403241,10.822587097,-7.4198063342\O,0,-7.1660779747,11.5811833
 345,-7.3814225737\C,0,-6.8329032515,8.3742060502,-7.5380853951\C,0,-6.
 9814332967,7.0696393946,-8.3464534213\C,0,-7.5985999078,5.9812710307,-
 7.4561933837\C,0,-7.808960081,7.2699398007,-9.6233045094\H,0,-4.372448
 5735,8.4250820058,-8.3376375347\H,0,-6.7996554061,9.8128259513,-9.1684
 434668\H,0,-6.2450223005,8.1787665738,-6.6285539865\H,0,-7.8226412614,
 8.7069868203,-7.2014769048\H,0,-5.9779110432,6.7287584764,-8.644675105
 \H,0,-8.6124359172,6.2632398272,-7.1452360029\H,0,-7.6677098043,5.0286
 59817,-7.9925251963\H,0,-7.0038927424,5.8156445702,-6.5497416885\H,0,-
 8.8033143284,7.6677668304,-9.3838696274\H,0,-7.3280776509,7.96157991,-
 10.3232931621\H,0,-7.9479542512,6.3172468796,-10.1458022781\N,0,-5.087
 5868475,11.0102464567,-6.6574644129\C,0,-4.7656647099,12.3031735773,-6
 .0884510146\C,0,-3.2272243468,12.3389076858,-5.9614891442\O,0,-2.55186
 28664,11.3349572745,-6.2465961627\C,0,-5.5401425672,12.5573507021,-4.7
 70575611\C,0,-5.7059033367,14.038251415,-4.4440303218\N,0,-6.860976235
 7,14.3773178358,-3.83268612\O,0,-4.8377719287,14.884261898,-4.69381352
 29\H,0,-4.2919853342,10.398999192,-6.7895524897\H,0,-5.0625537401,13.0
 843938781,-6.8009523773\H,0,-6.5196956715,12.0898746578,-4.8976172786\
 H,0,-5.0436110916,12.0624173587,-3.9264529013\H,0,-7.0244646028,15.353
 2339091,-3.6218783448\H,0,-7.6308132638,13.7317322229,-3.7355386602\N,
 0,-2.6635027351,13.5060737057,-5.6220295734\C,0,-1.2156620037,13.70804
 86436,-5.578634459\C,0,-0.5023097578,12.6839327818,-6.4844872675\O,0,0
 .3141497583,11.8762735302,-6.0843592734\C,0,-0.6558986417,13.724646968
 7,-4.1425846228\C,0,0.5880266516,14.6115782485,-3.9253067728\C,0,1.938
 3209741,14.1003033587,-4.4557144562\N,0,2.0402852594,14.0423081186,-5.
 9272076313\C,0,2.0226161934,15.08160267,-6.762778402\N,0,2.4798039881,
 16.2825390251,-6.3666375688\N,0,1.5426077241,14.9229953251,-8.00485847
 93\O,0,-0.7160308011,12.9591264582,-7.7902644142\H,0,-0.7976529951,12.
 1232811012,-8.3713562284\H,0,-3.3014765622,14.2570437252,-5.3203395196
 \H,0,-1.0398987794,14.6868463456,-6.0470443564\H,0,-0.4607969298,12.69
 50551811,-3.8246849\H,0,-1.4473512909,14.1180090072,-3.4956032921\H,0,
 0.4004182298,15.616098489,-4.3304581288\H,0,0.721222556,14.7439774033,
 -2.8446837877\H,0,2.7540993659,14.7155267483,-4.0604212278\H,0,2.12313
 26937,13.0793246026,-4.1156107694\H,0,1.8078958445,13.1365839955,-6.32
 59969264\H,0,2.3441712159,17.1073649373,-6.9328406085\H,0,3.0849275664
 ,16.3655789164,-5.5626609963\H,0,1.7273672872,15.6030383755,-8.7288052
 79\H,0,0.8703222378,14.1800255941,-8.2034096172\\Version=ES64L-G16RevC
 .01\HF=-1866.7214622\RMSD=7.392e-10\Dipole=4.5565077,4.9592001,2.57353
 33\Quadrupole=-260.4700839,434.9428694,-174.4727855,26.9351385,-19.065
 7623,-283.7443444\PG=C01 [X(C25H41N8O6)]\\@
 The archive entry for this job was punched.


 HE THAT RISETH LATE MUST TROT ALL DAY.

                  -- BENJAMIN FRANKLIN
 Job cpu time:       0 days  0 hours  4 minutes 57.0 seconds.
 Elapsed time:       0 days  0 hours  1 minutes 15.2 seconds.
 File lengths (MBytes):  RWF=    344 Int=      0 D2E=      0 Chk=     56 Scr=     16
 Normal termination of Gaussian 16 at Sat Jun 11 21:07:38 2022.
