 Entering Gaussian System, Link 0=/opt/software/Gaussian/g16-AVX-C.01/g16/g16
 Input=charge-conf-320.com
 Output=charge-conf-320.log
 Initial command:
 /opt/software/Gaussian/g16-AVX-C.01/g16/l1.exe "/mnt/gs18/scratch/users/kengmith/Gau-10660.inp" -scrdir="/mnt/gs18/scratch/users/kengmith/"
 Entering Link 1 = /opt/software/Gaussian/g16-AVX-C.01/g16/l1.exe PID=     10677.
  
 Copyright (c) 1988-2019, Gaussian, Inc.  All Rights Reserved.
  
 This is part of the Gaussian(R) 16 program.  It is based on
 the Gaussian(R) 09 system (copyright 2009, Gaussian, Inc.),
 the Gaussian(R) 03 system (copyright 2003, Gaussian, Inc.),
 the Gaussian(R) 98 system (copyright 1998, Gaussian, Inc.),
 the Gaussian(R) 94 system (copyright 1995, Gaussian, Inc.),
 the Gaussian 92(TM) system (copyright 1992, Gaussian, Inc.),
 the Gaussian 90(TM) system (copyright 1990, Gaussian, Inc.),
 the Gaussian 88(TM) system (copyright 1988, Gaussian, Inc.),
 the Gaussian 86(TM) system (copyright 1986, Carnegie Mellon
 University), and the Gaussian 82(TM) system (copyright 1983,
 Carnegie Mellon University). Gaussian is a federally registered
 trademark of Gaussian, Inc.
  
 This software contains proprietary and confidential information,
 including trade secrets, belonging to Gaussian, Inc.
  
 This software is provided under written license and may be
 used, copied, transmitted, or stored only in accord with that
 written license.
  
 The following legend is applicable only to US Government
 contracts under FAR:
  
                    RESTRICTED RIGHTS LEGEND
  
 Use, reproduction and disclosure by the US Government is
 subject to restrictions as set forth in subparagraphs (a)
 and (c) of the Commercial Computer Software - Restricted
 Rights clause in FAR 52.227-19.
  
 Gaussian, Inc.
 340 Quinnipiac St., Bldg. 40, Wallingford CT 06492
  
  
 ---------------------------------------------------------------
 Warning -- This program may not be used in any manner that
 competes with the business of Gaussian, Inc. or will provide
 assistance to any competitor of Gaussian, Inc.  The licensee
 of this program is prohibited from giving any competitor of
 Gaussian, Inc. access to this program.  By using this program,
 the user acknowledges that Gaussian, Inc. is engaged in the
 business of creating and licensing software in the field of
 computational chemistry and represents and warrants to the
 licensee that it is not a competitor of Gaussian, Inc. and that
 it will not use this program in any manner prohibited above.
 ---------------------------------------------------------------
  

 Cite this work as:
 Gaussian 16, Revision C.01,
 M. J. Frisch, G. W. Trucks, H. B. Schlegel, G. E. Scuseria, 
 M. A. Robb, J. R. Cheeseman, G. Scalmani, V. Barone, 
 G. A. Petersson, H. Nakatsuji, X. Li, M. Caricato, A. V. Marenich, 
 J. Bloino, B. G. Janesko, R. Gomperts, B. Mennucci, H. P. Hratchian, 
 J. V. Ortiz, A. F. Izmaylov, J. L. Sonnenberg, D. Williams-Young, 
 F. Ding, F. Lipparini, F. Egidi, J. Goings, B. Peng, A. Petrone, 
 T. Henderson, D. Ranasinghe, V. G. Zakrzewski, J. Gao, N. Rega, 
 G. Zheng, W. Liang, M. Hada, M. Ehara, K. Toyota, R. Fukuda, 
 J. Hasegawa, M. Ishida, T. Nakajima, Y. Honda, O. Kitao, H. Nakai, 
 T. Vreven, K. Throssell, J. A. Montgomery, Jr., J. E. Peralta, 
 F. Ogliaro, M. J. Bearpark, J. J. Heyd, E. N. Brothers, K. N. Kudin, 
 V. N. Staroverov, T. A. Keith, R. Kobayashi, J. Normand, 
 K. Raghavachari, A. P. Rendell, J. C. Burant, S. S. Iyengar, 
 J. Tomasi, M. Cossi, J. M. Millam, M. Klene, C. Adamo, R. Cammi, 
 J. W. Ochterski, R. L. Martin, K. Morokuma, O. Farkas, 
 J. B. Foresman, and D. J. Fox, Gaussian, Inc., Wallingford CT, 2019.
 
 ******************************************
 Gaussian 16:  ES64L-G16RevC.01  3-Jul-2019
                11-Jun-2022 
 ******************************************
 %mem=8gb
 %nproc=4
 Will use up to    4 processors via shared memory.
 %chk=conf-320.chk
 ----------------------------------------------------------------------
 # B3LYP/6-31G* empiricaldispersion=gd3 guess=read geom=check nosymm in
 tegral(ultrafinegrid)
 ----------------------------------------------------------------------
 1/29=2,38=1,172=1/1;
 2/12=2,15=1,40=1/2;
 3/5=1,6=6,7=1,11=2,14=-4,25=1,30=1,74=-5,75=-5,116=-2,124=31/1,2,3;
 4/5=1/1;
 5/5=2,38=6/2;
 6/7=2,8=2,9=2,10=2,28=1/1;
 99/5=1,9=1/99;
 ------------------------------------------------------
 Candidate Structure: Conf:320 Charge calc in gas phase
 ------------------------------------------------------
 Structure from the checkpoint file:  "conf-320.chk"
 Charge =  1 Multiplicity = 1
 Redundant internal coordinates found in file.  (old form).
 N,0,-1.7307371642,9.9454356045,-4.8449235945
 C,0,-1.0451580181,11.2155625515,-5.15698428
 C,0,-2.032736871,12.3446325554,-4.7820816228
 O,0,-3.1045124217,12.0872081415,-4.2475465667
 C,0,-0.6549835124,11.2810965377,-6.64359466
 C,0,0.3072495693,10.2317453208,-7.169535312
 C,0,1.1558583293,9.4657770019,-6.3604383141
 C,0,0.4054866539,10.0787002374,-8.5633566573
 C,0,2.0818528037,8.579557244,-6.9235291553
 C,0,1.3441278002,9.2191241252,-9.1298399646
 C,0,2.1889891265,8.4609310064,-8.31010225
 H,0,-2.0342078623,9.953584648,-3.8715622482
 H,0,-0.1450958851,11.3458570557,-4.5343403583
 H,0,-0.1944409829,12.2602684696,-6.8317421234
 H,0,-1.567629511,11.2652182666,-7.2438697397
 H,0,1.1288708912,9.5728094718,-5.2788842284
 H,0,-0.2529529154,10.6615411179,-9.203227187
 H,0,2.736484593,8.0043972052,-6.274560418
 H,0,1.419215106,9.1403222538,-10.2114748977
 H,0,2.9352191611,7.8028249569,-8.7477105344
 H,0,-1.1036634941,9.156862734,-4.9871478137
 N,0,-1.6592482238,13.6186085873,-5.0864930638
 C,0,-2.5274652652,14.7540216356,-4.7494899052
 C,0,-3.9061294196,14.6215282521,-5.432149778
 O,0,-4.9189520291,15.0434836589,-4.8946213049
 C,0,-1.8693282935,16.0975095236,-5.1103726748
 C,0,-0.8269340474,16.6358916288,-4.1088222465
 C,0,0.3814274896,15.7077072416,-3.9118436431
 C,0,-0.3641218345,18.0315472319,-4.5523165451
 H,0,-0.7323526849,13.8063924389,-5.4398811155
 H,0,-2.7570582863,14.7263852995,-3.6791250512
 H,0,-1.4265101644,16.0254994671,-6.1159446983
 H,0,-2.6782372702,16.8331060905,-5.1847623516
 H,0,-1.3342315262,16.7362513345,-3.1382301086
 H,0,0.891522413,15.5177556228,-4.8679701978
 H,0,1.1159764625,16.1684683668,-3.2425425432
 H,0,0.0968367296,14.7462251916,-3.4713278234
 H,0,0.3297093436,18.4649502382,-3.8237770154
 H,0,0.1550169359,17.9824913752,-5.5184955473
 H,0,-1.2106869668,18.7188836608,-4.6612163771
 N,0,-3.902243086,14.044142195,-6.6708463731
 C,0,-5.0930109552,13.3474315923,-7.1296542352
 C,0,-4.5861438984,12.0954476429,-7.8694753864
 O,0,-3.3949425901,11.9794730897,-8.1919732646
 C,0,-6.028641123,14.2638725072,-7.9426956943
 C,0,-7.4660388079,13.7498335945,-7.9971340565
 N,0,-8.390385778,14.6586517213,-8.393257305
 O,0,-7.7807594696,12.5897812531,-7.7206200435
 H,0,-3.0418211551,13.6198832021,-6.9991619327
 H,0,-5.6511152014,13.0080035833,-6.2493119576
 H,0,-6.0144711354,15.2404519634,-7.4475706877
 H,0,-5.6521849843,14.411248274,-8.9629661473
 H,0,-9.3633642379,14.3825905291,-8.3840524524
 H,0,-8.1749498078,15.6409181755,-8.4808253268
 N,0,-5.4703573818,11.0974504804,-8.0523652092
 C,0,-4.9906998621,9.7533245675,-8.343791439
 C,0,-3.7996639946,9.4404117966,-7.4028222813
 O,0,-2.7587385681,8.8891801272,-7.7850511777
 C,0,-4.6584720991,9.5421375423,-9.8357975135
 C,0,-4.6053494278,8.0534220446,-10.2801955659
 C,0,-3.3318652578,7.6704555502,-11.0529516757
 N,0,-2.1814407636,7.7988260779,-10.1472047292
 C,0,-1.282619633,6.8719104589,-9.8469430787
 N,0,-0.886846568,5.9472788228,-10.7424214748
 N,0,-0.7473196375,6.8461328405,-8.6073205271
 O,0,-4.0086815762,9.797889904,-6.1719564407
 H,0,-3.108775068,9.7887531687,-5.6322529486
 H,0,-6.4390658987,11.2789225926,-7.7818655712
 H,0,-5.7993303515,9.0721207629,-8.0516425321
 H,0,-3.7212894733,10.0693122456,-10.0448696844
 H,0,-5.4299236964,10.0644076744,-10.4082120635
 H,0,-4.6798670196,7.3882142285,-9.4107276252
 H,0,-5.4656913897,7.824314301,-10.9177971633
 H,0,-3.3994855315,6.6379522,-11.412634654
 H,0,-3.1915713368,8.3249542431,-11.9208680468
 H,0,-2.3487172351,8.4602074431,-9.3718996512
 H,0,-0.4145144369,5.108559566,-10.4381450752
 H,0,-1.1679332398,6.0074373905,-11.7094457227
 H,0,0.2414119502,6.6467924719,-8.5122478528
 H,0,-1.099035822,7.5415955938,-7.9530233961
 Recover connectivity data from disk.
                           ----------------------------
                           !    Current Parameters    !
                           ! (Angstroms and Degrees)  !
 --------------------------                            --------------------------
 ! Name  Definition              Value                                          !
 --------------------------------------------------------------------------------
 ! R1    R(1,2)                  1.4767                                         !
 ! R2    R(1,12)                 1.0196                                         !
 ! R3    R(1,21)                 1.0175                                         !
 ! R4    R(2,3)                  1.5462                                         !
 ! R5    R(2,5)                  1.5384                                         !
 ! R6    R(2,13)                 1.1022                                         !
 ! R7    R(3,4)                  1.225                                          !
 ! R8    R(3,22)                 1.362                                          !
 ! R9    R(5,6)                  1.5178                                         !
 ! R10   R(5,14)                 1.0983                                         !
 ! R11   R(5,15)                 1.0925                                         !
 ! R12   R(6,7)                  1.4005                                         !
 ! R13   R(6,8)                  1.4056                                         !
 ! R14   R(7,9)                  1.4                                            !
 ! R15   R(7,16)                 1.0872                                         !
 ! R16   R(8,10)                 1.3931                                         !
 ! R17   R(8,17)                 1.0875                                         !
 ! R18   R(9,11)                 1.3958                                         !
 ! R19   R(9,18)                 1.0865                                         !
 ! R20   R(10,11)                1.4002                                         !
 ! R21   R(10,19)                1.0871                                         !
 ! R22   R(11,20)                1.087                                          !
 ! R23   R(22,23)                1.4685                                         !
 ! R24   R(22,30)                1.0096                                         !
 ! R25   R(23,24)                1.5441                                         !
 ! R26   R(23,26)                1.5389                                         !
 ! R27   R(23,31)                1.0951                                         !
 ! R28   R(24,25)                1.2218                                         !
 ! R29   R(24,41)                1.3667                                         !
 ! R30   R(26,27)                1.5426                                         !
 ! R31   R(26,32)                1.1011                                         !
 ! R32   R(26,33)                1.0959                                         !
 ! R33   R(27,28)                1.5364                                         !
 ! R34   R(27,29)                1.5358                                         !
 ! R35   R(27,34)                1.0998                                         !
 ! R36   R(28,35)                1.1002                                         !
 ! R37   R(28,36)                1.0954                                         !
 ! R38   R(28,37)                1.0952                                         !
 ! R39   R(29,38)                1.0954                                         !
 ! R40   R(29,39)                1.0979                                         !
 ! R41   R(29,40)                1.0959                                         !
 ! R42   R(41,42)                1.4539                                         !
 ! R43   R(41,49)                1.014                                          !
 ! R44   R(42,43)                1.54                                           !
 ! R45   R(42,45)                1.5415                                         !
 ! R46   R(42,50)                1.0962                                         !
 ! R47   R(43,44)                1.2395                                         !
 ! R48   R(43,55)                1.3458                                         !
 ! R49   R(45,46)                1.5275                                         !
 ! R50   R(45,51)                1.095                                          !
 ! R51   R(45,52)                1.0974                                         !
 ! R52   R(46,47)                1.3555                                         !
 ! R53   R(46,48)                1.2334                                         !
 ! R54   R(47,53)                1.0114                                         !
 ! R55   R(47,54)                1.0094                                         !
 ! R56   R(55,56)                1.4566                                         !
 ! R57   R(55,68)                1.022                                          !
 ! R58   R(56,57)                1.5498                                         !
 ! R59   R(56,59)                1.5431                                         !
 ! R60   R(56,69)                1.0969                                         !
 ! R61   R(57,58)                1.2383                                         !
 ! R62   R(57,66)                1.2987                                         !
 ! R63   R(59,60)                1.5545                                         !
 ! R64   R(59,70)                1.0954                                         !
 ! R65   R(59,71)                1.0934                                         !
 ! R66   R(60,61)                1.538                                          !
 ! R67   R(60,72)                1.0973                                         !
 ! R68   R(60,73)                1.0951                                         !
 ! R69   R(61,62)                1.4698                                         !
 ! R70   R(61,74)                1.0954                                         !
 ! R71   R(61,75)                1.0961                                         !
 ! R72   R(62,63)                1.3256                                         !
 ! R73   R(62,76)                1.0327                                         !
 ! R74   R(63,64)                1.3466                                         !
 ! R75   R(63,65)                1.3505                                         !
 ! R76   R(64,77)                1.0095                                         !
 ! R77   R(64,78)                1.0088                                         !
 ! R78   R(65,79)                1.0131                                         !
 ! R79   R(65,80)                1.0176                                         !
 ! R80   R(66,67)                1.0494                                         !
 ! A1    A(2,1,12)             109.4539                                         !
 ! A2    A(2,1,21)             110.5448                                         !
 ! A3    A(12,1,21)            108.8483                                         !
 ! A4    A(1,2,3)              106.2786                                         !
 ! A5    A(1,2,5)              111.0148                                         !
 ! A6    A(1,2,13)             111.1881                                         !
 ! A7    A(3,2,5)              111.4203                                         !
 ! A8    A(3,2,13)             107.3553                                         !
 ! A9    A(5,2,13)             109.4975                                         !
 ! A10   A(2,3,4)              120.7417                                         !
 ! A11   A(2,3,22)             116.98                                           !
 ! A12   A(4,3,22)             122.2746                                         !
 ! A13   A(2,5,6)              117.7884                                         !
 ! A14   A(2,5,14)             108.0518                                         !
 ! A15   A(2,5,15)             108.571                                          !
 ! A16   A(6,5,14)             106.9286                                         !
 ! A17   A(6,5,15)             109.2184                                         !
 ! A18   A(14,5,15)            105.6124                                         !
 ! A19   A(5,6,7)              124.1993                                         !
 ! A20   A(5,6,8)              117.5933                                         !
 ! A21   A(7,6,8)              118.0965                                         !
 ! A22   A(6,7,9)              120.9725                                         !
 ! A23   A(6,7,16)             120.387                                          !
 ! A24   A(9,7,16)             118.6122                                         !
 ! A25   A(6,8,10)             121.163                                          !
 ! A26   A(6,8,17)             118.8664                                         !
 ! A27   A(10,8,17)            119.9578                                         !
 ! A28   A(7,9,11)             120.2744                                         !
 ! A29   A(7,9,18)             119.563                                          !
 ! A30   A(11,9,18)            120.1408                                         !
 ! A31   A(8,10,11)            120.1708                                         !
 ! A32   A(8,10,19)            119.7255                                         !
 ! A33   A(11,10,19)           120.1036                                         !
 ! A34   A(9,11,10)            119.2911                                         !
 ! A35   A(9,11,20)            120.2722                                         !
 ! A36   A(10,11,20)           120.4235                                         !
 ! A37   A(3,22,23)            120.6484                                         !
 ! A38   A(3,22,30)            120.2618                                         !
 ! A39   A(23,22,30)           118.6404                                         !
 ! A40   A(22,23,24)           111.1047                                         !
 ! A41   A(22,23,26)           111.6121                                         !
 ! A42   A(22,23,31)           109.1932                                         !
 ! A43   A(24,23,26)           110.675                                          !
 ! A44   A(24,23,31)           104.0502                                         !
 ! A45   A(26,23,31)           109.9322                                         !
 ! A46   A(23,24,25)           121.0644                                         !
 ! A47   A(23,24,41)           115.7485                                         !
 ! A48   A(25,24,41)           123.1627                                         !
 ! A49   A(23,26,27)           116.1946                                         !
 ! A50   A(23,26,32)           109.2109                                         !
 ! A51   A(23,26,33)           106.6327                                         !
 ! A52   A(27,26,32)           110.121                                          !
 ! A53   A(27,26,33)           107.9745                                         !
 ! A54   A(32,26,33)           106.1856                                         !
 ! A55   A(26,27,28)           113.8201                                         !
 ! A56   A(26,27,29)           109.4697                                         !
 ! A57   A(26,27,34)           107.0469                                         !
 ! A58   A(28,27,29)           110.4272                                         !
 ! A59   A(28,27,34)           107.7447                                         !
 ! A60   A(29,27,34)           108.1152                                         !
 ! A61   A(27,28,35)           110.9488                                         !
 ! A62   A(27,28,36)           110.5874                                         !
 ! A63   A(27,28,37)           112.183                                          !
 ! A64   A(35,28,36)           107.021                                          !
 ! A65   A(35,28,37)           108.5693                                         !
 ! A66   A(36,28,37)           107.3237                                         !
 ! A67   A(27,29,38)           110.9989                                         !
 ! A68   A(27,29,39)           110.855                                          !
 ! A69   A(27,29,40)           111.4609                                         !
 ! A70   A(38,29,39)           107.6651                                         !
 ! A71   A(38,29,40)           107.892                                          !
 ! A72   A(39,29,40)           107.8089                                         !
 ! A73   A(24,41,42)           119.0875                                         !
 ! A74   A(24,41,49)           118.2074                                         !
 ! A75   A(42,41,49)           113.0983                                         !
 ! A76   A(41,42,43)           105.7599                                         !
 ! A77   A(41,42,45)           112.2504                                         !
 ! A78   A(41,42,50)           108.1754                                         !
 ! A79   A(43,42,45)           115.4483                                         !
 ! A80   A(43,42,50)           107.5557                                         !
 ! A81   A(45,42,50)           107.3754                                         !
 ! A82   A(42,43,44)           121.1545                                         !
 ! A83   A(42,43,55)           116.8649                                         !
 ! A84   A(44,43,55)           121.7793                                         !
 ! A85   A(42,45,46)           112.9468                                         !
 ! A86   A(42,45,51)           106.491                                          !
 ! A87   A(42,45,52)           111.2212                                         !
 ! A88   A(46,45,51)           109.1725                                         !
 ! A89   A(46,45,52)           109.5634                                         !
 ! A90   A(51,45,52)           107.2272                                         !
 ! A91   A(45,46,47)           115.2452                                         !
 ! A92   A(45,46,48)           123.2735                                         !
 ! A93   A(47,46,48)           121.4752                                         !
 ! A94   A(46,47,53)           118.0574                                         !
 ! A95   A(46,47,54)           122.1581                                         !
 ! A96   A(53,47,54)           118.1449                                         !
 ! A97   A(43,55,56)           119.6779                                         !
 ! A98   A(43,55,68)           117.0711                                         !
 ! A99   A(56,55,68)           121.9335                                         !
 ! A100  A(55,56,57)           108.5365                                         !
 ! A101  A(55,56,59)           112.9947                                         !
 ! A102  A(55,56,69)           106.0823                                         !
 ! A103  A(57,56,59)           113.2015                                         !
 ! A104  A(57,56,69)           106.2263                                         !
 ! A105  A(59,56,69)           109.3442                                         !
 ! A106  A(56,57,58)           123.2616                                         !
 ! A107  A(56,57,66)           113.3402                                         !
 ! A108  A(58,57,66)           123.3926                                         !
 ! A109  A(56,59,60)           114.509                                          !
 ! A110  A(56,59,70)           107.6308                                         !
 ! A111  A(56,59,71)           106.7926                                         !
 ! A112  A(60,59,70)           112.1529                                         !
 ! A113  A(60,59,71)           109.3828                                         !
 ! A114  A(70,59,71)           105.8927                                         !
 ! A115  A(59,60,61)           114.2286                                         !
 ! A116  A(59,60,72)           110.5927                                         !
 ! A117  A(59,60,73)           109.8741                                         !
 ! A118  A(61,60,72)           107.6617                                         !
 ! A119  A(61,60,73)           107.8108                                         !
 ! A120  A(72,60,73)           106.33                                           !
 ! A121  A(60,61,62)           108.4641                                         !
 ! A122  A(60,61,74)           110.3985                                         !
 ! A123  A(60,61,75)           110.8025                                         !
 ! A124  A(62,61,74)           109.4492                                         !
 ! A125  A(62,61,75)           109.6109                                         !
 ! A126  A(74,61,75)           108.1032                                         !
 ! A127  A(61,62,63)           127.5335                                         !
 ! A128  A(61,62,76)           113.0658                                         !
 ! A129  A(63,62,76)           112.8048                                         !
 ! A130  A(62,63,64)           121.9221                                         !
 ! A131  A(62,63,65)           119.3417                                         !
 ! A132  A(64,63,65)           118.7359                                         !
 ! A133  A(63,64,77)           120.4994                                         !
 ! A134  A(63,64,78)           120.969                                          !
 ! A135  A(77,64,78)           117.9575                                         !
 ! A136  A(63,65,79)           118.4721                                         !
 ! A137  A(63,65,80)           116.1135                                         !
 ! A138  A(79,65,80)           114.2967                                         !
 ! A139  A(57,66,67)           110.3064                                         !
 ! D1    D(12,1,2,3)           -54.8745                                         !
 ! D2    D(12,1,2,5)          -176.1898                                         !
 ! D3    D(12,1,2,13)           61.6436                                         !
 ! D4    D(21,1,2,3)          -174.7602                                         !
 ! D5    D(21,1,2,5)            63.9245                                         !
 ! D6    D(21,1,2,13)          -58.2421                                         !
 ! D7    D(1,2,3,4)              4.5513                                         !
 ! D8    D(1,2,3,22)          -174.7622                                         !
 ! D9    D(5,2,3,4)            125.6065                                         !
 ! D10   D(5,2,3,22)           -53.707                                          !
 ! D11   D(13,2,3,4)          -114.5101                                         !
 ! D12   D(13,2,3,22)           66.1764                                         !
 ! D13   D(1,2,5,6)            -61.4817                                         !
 ! D14   D(1,2,5,14)           177.3248                                         !
 ! D15   D(1,2,5,15)            63.2386                                         !
 ! D16   D(3,2,5,6)           -179.7283                                         !
 ! D17   D(3,2,5,14)            59.0782                                         !
 ! D18   D(3,2,5,15)           -55.008                                          !
 ! D19   D(13,2,5,6)            61.6631                                         !
 ! D20   D(13,2,5,14)          -59.5305                                         !
 ! D21   D(13,2,5,15)         -173.6167                                         !
 ! D22   D(2,3,22,23)         -179.1448                                         !
 ! D23   D(2,3,22,30)           -6.9418                                         !
 ! D24   D(4,3,22,23)            1.5531                                         !
 ! D25   D(4,3,22,30)          173.7561                                         !
 ! D26   D(2,5,6,7)            -19.4526                                         !
 ! D27   D(2,5,6,8)            164.4588                                         !
 ! D28   D(14,5,6,7)           102.3189                                         !
 ! D29   D(14,5,6,8)           -73.7696                                         !
 ! D30   D(15,5,6,7)          -143.8512                                         !
 ! D31   D(15,5,6,8)            40.0603                                         !
 ! D32   D(5,6,7,9)           -175.6479                                         !
 ! D33   D(5,6,7,16)             2.3862                                         !
 ! D34   D(8,6,7,9)              0.4225                                         !
 ! D35   D(8,6,7,16)           178.4566                                         !
 ! D36   D(5,6,8,10)           174.5545                                         !
 ! D37   D(5,6,8,17)            -4.1459                                         !
 ! D38   D(7,6,8,10)            -1.7786                                         !
 ! D39   D(7,6,8,17)           179.521                                          !
 ! D40   D(6,7,9,11)             1.0398                                         !
 ! D41   D(6,7,9,18)           179.3426                                         !
 ! D42   D(16,7,9,11)         -177.0285                                         !
 ! D43   D(16,7,9,18)            1.2743                                         !
 ! D44   D(6,8,10,11)            1.6755                                         !
 ! D45   D(6,8,10,19)         -178.2327                                         !
 ! D46   D(17,8,10,11)        -179.6381                                         !
 ! D47   D(17,8,10,19)           0.4537                                         !
 ! D48   D(7,9,11,10)           -1.1615                                         !
 ! D49   D(7,9,11,20)          177.5264                                         !
 ! D50   D(18,9,11,10)        -179.4544                                         !
 ! D51   D(18,9,11,20)          -0.7665                                         !
 ! D52   D(8,10,11,9)           -0.1777                                         !
 ! D53   D(8,10,11,20)        -178.8636                                         !
 ! D54   D(19,10,11,9)         179.7302                                         !
 ! D55   D(19,10,11,20)          1.0442                                         !
 ! D56   D(3,22,23,24)         -59.2944                                         !
 ! D57   D(3,22,23,26)         176.6515                                         !
 ! D58   D(3,22,23,31)          54.904                                          !
 ! D59   D(30,22,23,24)        128.3782                                         !
 ! D60   D(30,22,23,26)          4.3241                                         !
 ! D61   D(30,22,23,31)       -117.4234                                         !
 ! D62   D(22,23,24,25)        147.274                                          !
 ! D63   D(22,23,24,41)        -34.4706                                         !
 ! D64   D(26,23,24,25)        -88.141                                          !
 ! D65   D(26,23,24,41)         90.1144                                         !
 ! D66   D(31,23,24,25)         29.8966                                         !
 ! D67   D(31,23,24,41)       -151.848                                          !
 ! D68   D(22,23,26,27)        -80.112                                          !
 ! D69   D(22,23,26,32)         45.1561                                         !
 ! D70   D(22,23,26,33)        159.4974                                         !
 ! D71   D(24,23,26,27)        155.5923                                         !
 ! D72   D(24,23,26,32)        -79.1396                                         !
 ! D73   D(24,23,26,33)         35.2017                                         !
 ! D74   D(31,23,26,27)         41.2076                                         !
 ! D75   D(31,23,26,32)        166.4757                                         !
 ! D76   D(31,23,26,33)        -79.183                                          !
 ! D77   D(23,24,41,42)        152.9002                                         !
 ! D78   D(23,24,41,49)          9.0177                                         !
 ! D79   D(25,24,41,42)        -28.885                                          !
 ! D80   D(25,24,41,49)       -172.7675                                         !
 ! D81   D(23,26,27,28)         60.8855                                         !
 ! D82   D(23,26,27,29)       -175.0086                                         !
 ! D83   D(23,26,27,34)        -58.0504                                         !
 ! D84   D(32,26,27,28)        -63.9186                                         !
 ! D85   D(32,26,27,29)         60.1872                                         !
 ! D86   D(32,26,27,34)        177.1455                                         !
 ! D87   D(33,26,27,28)       -179.4471                                         !
 ! D88   D(33,26,27,29)        -55.3412                                         !
 ! D89   D(33,26,27,34)         61.617                                          !
 ! D90   D(26,27,28,35)         57.7735                                         !
 ! D91   D(26,27,28,36)        176.3694                                         !
 ! D92   D(26,27,28,37)        -63.8509                                         !
 ! D93   D(29,27,28,35)        -65.8141                                         !
 ! D94   D(29,27,28,36)         52.7817                                         !
 ! D95   D(29,27,28,37)        172.5615                                         !
 ! D96   D(34,27,28,35)        176.3107                                         !
 ! D97   D(34,27,28,36)        -65.0935                                         !
 ! D98   D(34,27,28,37)         54.6863                                         !
 ! D99   D(26,27,29,38)        176.3832                                         !
 ! D100  D(26,27,29,39)        -64.0092                                         !
 ! D101  D(26,27,29,40)         56.0856                                         !
 ! D102  D(28,27,29,38)        -57.5471                                         !
 ! D103  D(28,27,29,39)         62.0606                                         !
 ! D104  D(28,27,29,40)       -177.8446                                         !
 ! D105  D(34,27,29,38)         60.1003                                         !
 ! D106  D(34,27,29,39)        179.708                                          !
 ! D107  D(34,27,29,40)        -60.1972                                         !
 ! D108  D(24,41,42,43)       -140.3725                                         !
 ! D109  D(24,41,42,45)         92.9106                                         !
 ! D110  D(24,41,42,50)        -25.3783                                         !
 ! D111  D(49,41,42,43)          5.2451                                         !
 ! D112  D(49,41,42,45)       -121.4717                                         !
 ! D113  D(49,41,42,50)        120.2394                                         !
 ! D114  D(41,42,43,44)        -13.5562                                         !
 ! D115  D(41,42,43,55)        161.3768                                         !
 ! D116  D(45,42,43,44)        111.1954                                         !
 ! D117  D(45,42,43,55)        -73.8716                                         !
 ! D118  D(50,42,43,44)       -128.9747                                         !
 ! D119  D(50,42,43,55)         45.9582                                         !
 ! D120  D(41,42,45,46)       -158.9781                                         !
 ! D121  D(41,42,45,51)        -39.1583                                         !
 ! D122  D(41,42,45,52)         77.3475                                         !
 ! D123  D(43,42,45,46)         79.7113                                         !
 ! D124  D(43,42,45,51)       -160.469                                          !
 ! D125  D(43,42,45,52)        -43.9632                                         !
 ! D126  D(50,42,45,46)        -40.2173                                         !
 ! D127  D(50,42,45,51)         79.6025                                         !
 ! D128  D(50,42,45,52)       -163.8918                                         !
 ! D129  D(42,43,55,56)       -160.5756                                         !
 ! D130  D(42,43,55,68)          6.5754                                         !
 ! D131  D(44,43,55,56)         14.3233                                         !
 ! D132  D(44,43,55,68)       -178.5257                                         !
 ! D133  D(42,45,46,47)        163.9292                                         !
 ! D134  D(42,45,46,48)        -16.9575                                         !
 ! D135  D(51,45,46,47)         45.663                                          !
 ! D136  D(51,45,46,48)       -135.2237                                         !
 ! D137  D(52,45,46,47)        -71.487                                          !
 ! D138  D(52,45,46,48)        107.6263                                         !
 ! D139  D(45,46,47,53)       -175.9051                                         !
 ! D140  D(45,46,47,54)        -10.7802                                         !
 ! D141  D(48,46,47,53)          4.9641                                         !
 ! D142  D(48,46,47,54)        170.0891                                         !
 ! D143  D(43,55,56,57)         43.7449                                         !
 ! D144  D(43,55,56,59)        -82.6738                                         !
 ! D145  D(43,55,56,69)        157.5354                                         !
 ! D146  D(68,55,56,57)       -122.7619                                         !
 ! D147  D(68,55,56,59)        110.8194                                         !
 ! D148  D(68,55,56,69)         -8.9714                                         !
 ! D149  D(55,56,57,58)       -136.4886                                         !
 ! D150  D(55,56,57,66)         44.3415                                         !
 ! D151  D(59,56,57,58)        -10.1898                                         !
 ! D152  D(59,56,57,66)        170.6404                                         !
 ! D153  D(69,56,57,58)        109.8157                                         !
 ! D154  D(69,56,57,66)        -69.3542                                         !
 ! D155  D(55,56,59,60)       -160.6138                                         !
 ! D156  D(55,56,59,70)         73.9538                                         !
 ! D157  D(55,56,59,71)        -39.3771                                         !
 ! D158  D(57,56,59,60)         75.4939                                         !
 ! D159  D(57,56,59,70)        -49.9385                                         !
 ! D160  D(57,56,59,71)       -163.2694                                         !
 ! D161  D(69,56,59,60)        -42.7149                                         !
 ! D162  D(69,56,59,70)       -168.1473                                         !
 ! D163  D(69,56,59,71)         78.5218                                         !
 ! D164  D(56,57,66,67)       -166.0115                                         !
 ! D165  D(58,57,66,67)         14.8199                                         !
 ! D166  D(56,59,60,61)       -129.5112                                         !
 ! D167  D(56,59,60,72)         -7.8769                                         !
 ! D168  D(56,59,60,73)        109.2012                                         !
 ! D169  D(70,59,60,61)         -6.4847                                         !
 ! D170  D(70,59,60,72)        115.1496                                         !
 ! D171  D(70,59,60,73)       -127.7724                                         !
 ! D172  D(71,59,60,61)        110.6874                                         !
 ! D173  D(71,59,60,72)       -127.6783                                         !
 ! D174  D(71,59,60,73)        -10.6003                                         !
 ! D175  D(59,60,61,62)         65.1844                                         !
 ! D176  D(59,60,61,74)       -174.902                                          !
 ! D177  D(59,60,61,75)        -55.1718                                         !
 ! D178  D(72,60,61,62)        -58.0498                                         !
 ! D179  D(72,60,61,74)         61.8638                                         !
 ! D180  D(72,60,61,75)       -178.4061                                         !
 ! D181  D(73,60,61,62)       -172.3947                                         !
 ! D182  D(73,60,61,74)        -52.481                                          !
 ! D183  D(73,60,61,75)         67.2491                                         !
 ! D184  D(60,61,62,63)        124.7534                                         !
 ! D185  D(60,61,62,76)        -24.3826                                         !
 ! D186  D(74,61,62,63)          4.2488                                         !
 ! D187  D(74,61,62,76)       -144.8871                                         !
 ! D188  D(75,61,62,63)       -114.1525                                         !
 ! D189  D(75,61,62,76)         96.7116                                         !
 ! D190  D(61,62,63,64)         33.4096                                         !
 ! D191  D(61,62,63,65)       -146.3865                                         !
 ! D192  D(76,62,63,64)       -177.3886                                         !
 ! D193  D(76,62,63,65)          2.8153                                         !
 ! D194  D(62,63,64,77)       -162.6598                                         !
 ! D195  D(62,63,64,78)          8.4742                                         !
 ! D196  D(65,63,64,77)         17.1375                                         !
 ! D197  D(65,63,64,78)       -171.7286                                         !
 ! D198  D(62,63,65,79)       -139.9971                                         !
 ! D199  D(62,63,65,80)          1.9208                                         !
 ! D200  D(64,63,65,79)         40.2003                                         !
 ! D201  D(64,63,65,80)       -177.8818                                         !
 --------------------------------------------------------------------------------
 Symmetry turned off by external request.
 Stoichiometry    C25H41N8O6(1+)
 Framework group  C1[X(C25H41N8O6)]
 Deg. of freedom   234
 Full point group                 C1      NOp   1
                          Input orientation:                          
 ---------------------------------------------------------------------
 Center     Atomic      Atomic             Coordinates (Angstroms)
 Number     Number       Type             X           Y           Z
 ---------------------------------------------------------------------
      1          7           0       -1.730737    9.945436   -4.844924
      2          6           0       -1.045158   11.215563   -5.156984
      3          6           0       -2.032737   12.344633   -4.782082
      4          8           0       -3.104512   12.087208   -4.247547
      5          6           0       -0.654984   11.281097   -6.643595
      6          6           0        0.307250   10.231745   -7.169535
      7          6           0        1.155858    9.465777   -6.360438
      8          6           0        0.405487   10.078700   -8.563357
      9          6           0        2.081853    8.579557   -6.923529
     10          6           0        1.344128    9.219124   -9.129840
     11          6           0        2.188989    8.460931   -8.310102
     12          1           0       -2.034208    9.953585   -3.871562
     13          1           0       -0.145096   11.345857   -4.534340
     14          1           0       -0.194441   12.260268   -6.831742
     15          1           0       -1.567630   11.265218   -7.243870
     16          1           0        1.128871    9.572809   -5.278884
     17          1           0       -0.252953   10.661541   -9.203227
     18          1           0        2.736485    8.004397   -6.274560
     19          1           0        1.419215    9.140322  -10.211475
     20          1           0        2.935219    7.802825   -8.747711
     21          1           0       -1.103663    9.156863   -4.987148
     22          7           0       -1.659248   13.618609   -5.086493
     23          6           0       -2.527465   14.754022   -4.749490
     24          6           0       -3.906129   14.621528   -5.432150
     25          8           0       -4.918952   15.043484   -4.894621
     26          6           0       -1.869328   16.097510   -5.110373
     27          6           0       -0.826934   16.635892   -4.108822
     28          6           0        0.381427   15.707707   -3.911844
     29          6           0       -0.364122   18.031547   -4.552317
     30          1           0       -0.732353   13.806392   -5.439881
     31          1           0       -2.757058   14.726385   -3.679125
     32          1           0       -1.426510   16.025499   -6.115945
     33          1           0       -2.678237   16.833106   -5.184762
     34          1           0       -1.334232   16.736251   -3.138230
     35          1           0        0.891522   15.517756   -4.867970
     36          1           0        1.115976   16.168468   -3.242543
     37          1           0        0.096837   14.746225   -3.471328
     38          1           0        0.329709   18.464950   -3.823777
     39          1           0        0.155017   17.982491   -5.518496
     40          1           0       -1.210687   18.718884   -4.661216
     41          7           0       -3.902243   14.044142   -6.670846
     42          6           0       -5.093011   13.347432   -7.129654
     43          6           0       -4.586144   12.095448   -7.869475
     44          8           0       -3.394943   11.979473   -8.191973
     45          6           0       -6.028641   14.263873   -7.942696
     46          6           0       -7.466039   13.749834   -7.997134
     47          7           0       -8.390386   14.658652   -8.393257
     48          8           0       -7.780759   12.589781   -7.720620
     49          1           0       -3.041821   13.619883   -6.999162
     50          1           0       -5.651115   13.008004   -6.249312
     51          1           0       -6.014471   15.240452   -7.447571
     52          1           0       -5.652185   14.411248   -8.962966
     53          1           0       -9.363364   14.382591   -8.384052
     54          1           0       -8.174950   15.640918   -8.480825
     55          7           0       -5.470357   11.097450   -8.052365
     56          6           0       -4.990700    9.753325   -8.343791
     57          6           0       -3.799664    9.440412   -7.402822
     58          8           0       -2.758739    8.889180   -7.785051
     59          6           0       -4.658472    9.542138   -9.835798
     60          6           0       -4.605349    8.053422  -10.280196
     61          6           0       -3.331865    7.670456  -11.052952
     62          7           0       -2.181441    7.798826  -10.147205
     63          6           0       -1.282620    6.871910   -9.846943
     64          7           0       -0.886847    5.947279  -10.742421
     65          7           0       -0.747320    6.846133   -8.607321
     66          8           0       -4.008682    9.797890   -6.171956
     67          1           0       -3.108775    9.788753   -5.632253
     68          1           0       -6.439066   11.278923   -7.781866
     69          1           0       -5.799330    9.072121   -8.051643
     70          1           0       -3.721289   10.069312  -10.044870
     71          1           0       -5.429924   10.064408  -10.408212
     72          1           0       -4.679867    7.388214   -9.410728
     73          1           0       -5.465691    7.824314  -10.917797
     74          1           0       -3.399486    6.637952  -11.412635
     75          1           0       -3.191571    8.324954  -11.920868
     76          1           0       -2.348717    8.460207   -9.371900
     77          1           0       -0.414514    5.108560  -10.438145
     78          1           0       -1.167933    6.007437  -11.709446
     79          1           0        0.241412    6.646792   -8.512248
     80          1           0       -1.099036    7.541596   -7.953023
 ---------------------------------------------------------------------
 Rotational constants (GHZ):           0.1123479           0.0703884           0.0482636
 Standard basis: 6-31G(d) (6D, 7F)
   667 basis functions,  1256 primitive gaussians,   667 cartesian basis functions
   147 alpha electrons      147 beta electrons
       nuclear repulsion energy      4949.9044489843 Hartrees.
 NAtoms=   80 NActive=   80 NUniq=   80 SFac= 1.00D+00 NAtFMM=   60 NAOKFM=T Big=T
 Integral buffers will be    131072 words long.
 Raffenetti 2 integral format.
 Two-electron integral symmetry is turned off.
 Nuclear repulsion after empirical dispersion term =     4949.7897229653 Hartrees.
 One-electron integrals computed using PRISM.
 NBasis=   667 RedAO= T EigKep=  4.62D-04  NBF=   667
 NBsUse=   667 1.00D-06 EigRej= -1.00D+00 NBFU=   667
 Initial guess from the checkpoint file:  "conf-320.chk"
 B after Tr=     0.000000    0.000000    0.000000
         Rot=    1.000000    0.000000    0.000000    0.000000 Ang=   0.00 deg.
 Requested convergence on RMS density matrix=1.00D-08 within 128 cycles.
 Requested convergence on MAX density matrix=1.00D-06.
 Requested convergence on             energy=1.00D-06.
 No special actions if energy rises.
 SCF Done:  E(RB3LYP) =  -1866.74999969     A.U. after    3 cycles
            NFock=  3  Conv=0.85D-09     -V/T= 2.0094

 **********************************************************************

            Population analysis using the SCF Density.

 **********************************************************************

 Alpha  occ. eigenvalues --  -19.25853 -19.24048 -19.21150 -19.20443 -19.20232
 Alpha  occ. eigenvalues --  -19.17860 -14.50952 -14.48863 -14.48832 -14.44957
 Alpha  occ. eigenvalues --  -14.44505 -14.44103 -14.43838 -14.41885 -10.46130
 Alpha  occ. eigenvalues --  -10.41804 -10.37709 -10.37627 -10.37627 -10.34993
 Alpha  occ. eigenvalues --  -10.34889 -10.33673 -10.33178 -10.31289 -10.30640
 Alpha  occ. eigenvalues --  -10.30125 -10.30021 -10.29131 -10.29100 -10.29002
 Alpha  occ. eigenvalues --  -10.28912 -10.28875 -10.28651 -10.28577 -10.27923
 Alpha  occ. eigenvalues --  -10.26357 -10.26074 -10.24664 -10.23573  -1.19011
 Alpha  occ. eigenvalues --   -1.14787  -1.12997  -1.12655  -1.11716  -1.09986
 Alpha  occ. eigenvalues --   -1.09765  -1.04243  -1.02820  -1.01420  -1.01300
 Alpha  occ. eigenvalues --   -1.00596  -0.98887  -0.98624  -0.95406  -0.90553
 Alpha  occ. eigenvalues --   -0.88687  -0.87667  -0.86637  -0.84649  -0.84339
 Alpha  occ. eigenvalues --   -0.83320  -0.80936  -0.79182  -0.77078  -0.75852
 Alpha  occ. eigenvalues --   -0.75311  -0.74646  -0.72338  -0.71916  -0.71728
 Alpha  occ. eigenvalues --   -0.70414  -0.69554  -0.68260  -0.67803  -0.67224
 Alpha  occ. eigenvalues --   -0.67046  -0.65553  -0.64221  -0.64155  -0.63747
 Alpha  occ. eigenvalues --   -0.63065  -0.62921  -0.62036  -0.61510  -0.61153
 Alpha  occ. eigenvalues --   -0.60715  -0.59820  -0.58931  -0.58554  -0.58084
 Alpha  occ. eigenvalues --   -0.57463  -0.56064  -0.55556  -0.55248  -0.54784
 Alpha  occ. eigenvalues --   -0.54335  -0.54032  -0.53821  -0.53503  -0.52860
 Alpha  occ. eigenvalues --   -0.52750  -0.52180  -0.51903  -0.51683  -0.51317
 Alpha  occ. eigenvalues --   -0.50809  -0.50704  -0.50130  -0.49593  -0.49071
 Alpha  occ. eigenvalues --   -0.48925  -0.48382  -0.48119  -0.47875  -0.47550
 Alpha  occ. eigenvalues --   -0.46843  -0.46378  -0.45960  -0.45543  -0.45414
 Alpha  occ. eigenvalues --   -0.45185  -0.45142  -0.44596  -0.44219  -0.44176
 Alpha  occ. eigenvalues --   -0.43679  -0.43353  -0.43236  -0.41856  -0.41448
 Alpha  occ. eigenvalues --   -0.40148  -0.39758  -0.39444  -0.39385  -0.39317
 Alpha  occ. eigenvalues --   -0.38330  -0.37145  -0.35642  -0.35317  -0.35034
 Alpha  occ. eigenvalues --   -0.34778  -0.34414  -0.34362  -0.34141  -0.33941
 Alpha  occ. eigenvalues --   -0.32036  -0.30936
 Alpha virt. eigenvalues --   -0.11575  -0.10548  -0.10240  -0.09103  -0.06800
 Alpha virt. eigenvalues --   -0.06554  -0.06077  -0.05700  -0.04272  -0.02551
 Alpha virt. eigenvalues --   -0.01869  -0.01131  -0.00468   0.00091   0.00383
 Alpha virt. eigenvalues --    0.00581   0.01479   0.01575   0.02302   0.02573
 Alpha virt. eigenvalues --    0.02723   0.03354   0.03981   0.04242   0.04799
 Alpha virt. eigenvalues --    0.04865   0.05328   0.05651   0.06153   0.06381
 Alpha virt. eigenvalues --    0.06594   0.07116   0.07186   0.07403   0.07614
 Alpha virt. eigenvalues --    0.08042   0.08296   0.08325   0.08862   0.08981
 Alpha virt. eigenvalues --    0.09208   0.09526   0.09672   0.10302   0.10936
 Alpha virt. eigenvalues --    0.11285   0.11448   0.12144   0.12217   0.12552
 Alpha virt. eigenvalues --    0.12793   0.13180   0.13255   0.13785   0.14317
 Alpha virt. eigenvalues --    0.14562   0.15434   0.15959   0.16030   0.16547
 Alpha virt. eigenvalues --    0.17210   0.17752   0.17859   0.18167   0.18898
 Alpha virt. eigenvalues --    0.19409   0.19647   0.20326   0.20540   0.21576
 Alpha virt. eigenvalues --    0.21925   0.22244   0.23959   0.24653   0.24822
 Alpha virt. eigenvalues --    0.25772   0.26092   0.26676   0.27381   0.27734
 Alpha virt. eigenvalues --    0.28289   0.29735   0.29890   0.31491   0.32362
 Alpha virt. eigenvalues --    0.35068   0.36564   0.36893   0.37486   0.38214
 Alpha virt. eigenvalues --    0.39572   0.40628   0.41687   0.42054   0.42261
 Alpha virt. eigenvalues --    0.42719   0.43366   0.43819   0.44353   0.44723
 Alpha virt. eigenvalues --    0.45023   0.45192   0.45312   0.45661   0.46541
 Alpha virt. eigenvalues --    0.46698   0.47143   0.47507   0.47853   0.48199
 Alpha virt. eigenvalues --    0.49134   0.49369   0.49473   0.50082   0.50387
 Alpha virt. eigenvalues --    0.50488   0.51040   0.51485   0.51787   0.51944
 Alpha virt. eigenvalues --    0.52315   0.52935   0.53394   0.53831   0.54252
 Alpha virt. eigenvalues --    0.54549   0.54841   0.55726   0.56247   0.56579
 Alpha virt. eigenvalues --    0.56881   0.57088   0.57583   0.57732   0.58416
 Alpha virt. eigenvalues --    0.58747   0.59075   0.59465   0.59863   0.60578
 Alpha virt. eigenvalues --    0.60876   0.61231   0.62180   0.62958   0.63044
 Alpha virt. eigenvalues --    0.63381   0.64292   0.64741   0.64945   0.65577
 Alpha virt. eigenvalues --    0.65837   0.66052   0.66521   0.67345   0.68467
 Alpha virt. eigenvalues --    0.68748   0.69787   0.70512   0.70618   0.71112
 Alpha virt. eigenvalues --    0.71557   0.72345   0.73030   0.73460   0.73747
 Alpha virt. eigenvalues --    0.74151   0.74320   0.74737   0.74928   0.75213
 Alpha virt. eigenvalues --    0.75379   0.75663   0.76149   0.76318   0.76654
 Alpha virt. eigenvalues --    0.76800   0.77168   0.77371   0.77753   0.78334
 Alpha virt. eigenvalues --    0.78705   0.78943   0.79535   0.79780   0.79931
 Alpha virt. eigenvalues --    0.80134   0.80684   0.81257   0.81315   0.81670
 Alpha virt. eigenvalues --    0.81967   0.82320   0.82912   0.83497   0.83850
 Alpha virt. eigenvalues --    0.84015   0.84729   0.85032   0.85370   0.85741
 Alpha virt. eigenvalues --    0.85896   0.86173   0.86503   0.86774   0.87094
 Alpha virt. eigenvalues --    0.87683   0.87884   0.88300   0.89344   0.89890
 Alpha virt. eigenvalues --    0.90347   0.90601   0.90924   0.91582   0.92211
 Alpha virt. eigenvalues --    0.92359   0.93251   0.94333   0.94454   0.95496
 Alpha virt. eigenvalues --    0.95853   0.96673   0.96943   0.98161   0.99191
 Alpha virt. eigenvalues --    0.99478   1.00003   1.00182   1.00912   1.02099
 Alpha virt. eigenvalues --    1.02926   1.03773   1.04686   1.05563   1.05973
 Alpha virt. eigenvalues --    1.06249   1.07342   1.07581   1.08514   1.09390
 Alpha virt. eigenvalues --    1.09875   1.10728   1.11071   1.12390   1.12541
 Alpha virt. eigenvalues --    1.13462   1.13876   1.14767   1.15786   1.16591
 Alpha virt. eigenvalues --    1.17024   1.18369   1.19474   1.19687   1.20613
 Alpha virt. eigenvalues --    1.20842   1.22065   1.22262   1.24252   1.25065
 Alpha virt. eigenvalues --    1.25323   1.27004   1.28570   1.29185   1.29974
 Alpha virt. eigenvalues --    1.30439   1.31316   1.32235   1.32802   1.33565
 Alpha virt. eigenvalues --    1.34396   1.35185   1.35666   1.36286   1.37403
 Alpha virt. eigenvalues --    1.37691   1.37930   1.39035   1.39146   1.39583
 Alpha virt. eigenvalues --    1.40406   1.41302   1.41424   1.42188   1.42894
 Alpha virt. eigenvalues --    1.43423   1.44474   1.44716   1.46616   1.47950
 Alpha virt. eigenvalues --    1.49760   1.50149   1.51197   1.52110   1.53696
 Alpha virt. eigenvalues --    1.54585   1.56077   1.56746   1.57853   1.58676
 Alpha virt. eigenvalues --    1.59109   1.60120   1.61431   1.62154   1.62486
 Alpha virt. eigenvalues --    1.62797   1.63941   1.64858   1.65196   1.66555
 Alpha virt. eigenvalues --    1.67145   1.67172   1.68373   1.68805   1.69325
 Alpha virt. eigenvalues --    1.69759   1.70075   1.70618   1.71293   1.71677
 Alpha virt. eigenvalues --    1.72220   1.72659   1.73103   1.73609   1.74256
 Alpha virt. eigenvalues --    1.74564   1.75182   1.75464   1.75995   1.76212
 Alpha virt. eigenvalues --    1.76949   1.77306   1.77535   1.78362   1.78664
 Alpha virt. eigenvalues --    1.79573   1.79986   1.80836   1.81408   1.82121
 Alpha virt. eigenvalues --    1.82747   1.83718   1.84770   1.85015   1.85220
 Alpha virt. eigenvalues --    1.86439   1.86857   1.87233   1.87797   1.88427
 Alpha virt. eigenvalues --    1.88858   1.89021   1.89665   1.90656   1.91474
 Alpha virt. eigenvalues --    1.91757   1.92247   1.92821   1.93229   1.93301
 Alpha virt. eigenvalues --    1.94159   1.94565   1.95412   1.95901   1.96124
 Alpha virt. eigenvalues --    1.97108   1.97488   1.98308   1.99636   1.99779
 Alpha virt. eigenvalues --    2.00670   2.01562   2.02171   2.02526   2.03078
 Alpha virt. eigenvalues --    2.03834   2.04101   2.04997   2.05591   2.05972
 Alpha virt. eigenvalues --    2.07311   2.07956   2.08677   2.09392   2.09794
 Alpha virt. eigenvalues --    2.10112   2.12370   2.13121   2.13824   2.14507
 Alpha virt. eigenvalues --    2.15571   2.16113   2.16479   2.17982   2.18081
 Alpha virt. eigenvalues --    2.19401   2.19498   2.20682   2.21193   2.21454
 Alpha virt. eigenvalues --    2.22066   2.22228   2.25204   2.25331   2.26021
 Alpha virt. eigenvalues --    2.26293   2.28134   2.29557   2.30154   2.31437
 Alpha virt. eigenvalues --    2.33513   2.34846   2.35031   2.35429   2.36013
 Alpha virt. eigenvalues --    2.36678   2.37400   2.37673   2.38827   2.39577
 Alpha virt. eigenvalues --    2.40085   2.41235   2.42227   2.43040   2.43141
 Alpha virt. eigenvalues --    2.44079   2.44619   2.45437   2.46658   2.47394
 Alpha virt. eigenvalues --    2.48325   2.49412   2.49985   2.50499   2.51506
 Alpha virt. eigenvalues --    2.52446   2.53381   2.54057   2.54184   2.55133
 Alpha virt. eigenvalues --    2.56402   2.56449   2.57199   2.58406   2.59237
 Alpha virt. eigenvalues --    2.59815   2.62002   2.63004   2.63475   2.63803
 Alpha virt. eigenvalues --    2.64409   2.66063   2.66133   2.66493   2.67786
 Alpha virt. eigenvalues --    2.69024   2.69981   2.71405   2.74337   2.75628
 Alpha virt. eigenvalues --    2.76458   2.79563   2.81483   2.84078   2.85030
 Alpha virt. eigenvalues --    2.87399   2.88097   2.89170   2.93221   2.94950
 Alpha virt. eigenvalues --    2.95723   2.96303   2.97602   2.97767   2.98466
 Alpha virt. eigenvalues --    3.00170   3.03827   3.06645   3.11385   3.12464
 Alpha virt. eigenvalues --    3.30759   3.67325   3.73038   3.76768   3.82367
 Alpha virt. eigenvalues --    3.90863   3.93238   3.94248   3.98047   3.99631
 Alpha virt. eigenvalues --    4.02282   4.03314   4.05965   4.06620   4.08210
 Alpha virt. eigenvalues --    4.08438   4.09315   4.10035   4.14483   4.17250
 Alpha virt. eigenvalues --    4.21249   4.22394   4.23857   4.24744   4.25466
 Alpha virt. eigenvalues --    4.27042   4.33106   4.34172   4.36045   4.37522
 Alpha virt. eigenvalues --    4.39004   4.42864   4.45603   4.49650   4.52264
 Alpha virt. eigenvalues --    4.53473   4.55145   4.59581   4.62507   4.66728
          Condensed to atoms (all electrons):
 Mulliken charges:
               1
     1  N   -0.785376
     2  C   -0.090354
     3  C    0.632590
     4  O   -0.507112
     5  C   -0.389532
     6  C    0.171630
     7  C   -0.206500
     8  C   -0.193703
     9  C   -0.137574
    10  C   -0.136437
    11  C   -0.170709
    12  H    0.356239
    13  H    0.163650
    14  H    0.158080
    15  H    0.234978
    16  H    0.137914
    17  H    0.150768
    18  H    0.155604
    19  H    0.143974
    20  H    0.149176
    21  H    0.332993
    22  N   -0.649104
    23  C   -0.012674
    24  C    0.607793
    25  O   -0.518013
    26  C   -0.308500
    27  C   -0.069155
    28  C   -0.464316
    29  C   -0.446470
    30  H    0.340082
    31  H    0.192299
    32  H    0.132646
    33  H    0.178237
    34  H    0.145238
    35  H    0.128796
    36  H    0.164597
    37  H    0.143959
    38  H    0.156126
    39  H    0.142203
    40  H    0.153997
    41  N   -0.618356
    42  C   -0.038187
    43  C    0.604240
    44  O   -0.563493
    45  C   -0.379585
    46  C    0.625950
    47  N   -0.738866
    48  O   -0.532841
    49  H    0.349757
    50  H    0.213442
    51  H    0.203383
    52  H    0.184073
    53  H    0.358278
    54  H    0.353665
    55  N   -0.606542
    56  C   -0.036246
    57  C    0.630579
    58  O   -0.572120
    59  C   -0.291811
    60  C   -0.294474
    61  C   -0.166934
    62  N   -0.606187
    63  C    0.749359
    64  N   -0.746976
    65  N   -0.756470
    66  O   -0.571585
    67  H    0.488783
    68  H    0.394700
    69  H    0.186042
    70  H    0.177865
    71  H    0.175066
    72  H    0.162761
    73  H    0.176909
    74  H    0.164566
    75  H    0.186178
    76  H    0.427065
    77  H    0.379822
    78  H    0.379381
    79  H    0.360240
    80  H    0.400532
 Sum of Mulliken charges =   1.00000
 Mulliken charges with hydrogens summed into heavy atoms:
               1
     1  N   -0.096145
     2  C    0.073296
     3  C    0.632590
     4  O   -0.507112
     5  C    0.003527
     6  C    0.171630
     7  C   -0.068586
     8  C   -0.042935
     9  C    0.018030
    10  C    0.007537
    11  C   -0.021534
    22  N   -0.309022
    23  C    0.179625
    24  C    0.607793
    25  O   -0.518013
    26  C    0.002383
    27  C    0.076083
    28  C   -0.026965
    29  C    0.005857
    41  N   -0.268599
    42  C    0.175255
    43  C    0.604240
    44  O   -0.563493
    45  C    0.007870
    46  C    0.625950
    47  N   -0.026924
    48  O   -0.532841
    55  N   -0.211843
    56  C    0.149797
    57  C    0.630579
    58  O   -0.572120
    59  C    0.061120
    60  C    0.045197
    61  C    0.183810
    62  N   -0.179122
    63  C    0.749359
    64  N    0.012227
    65  N    0.004301
    66  O   -0.082802
 Electronic spatial extent (au):  <R**2>=         221521.1916
 Charge=              1.0000 electrons
 Dipole moment (field-independent basis, Debye):
    X=             -7.4994    Y=             44.0445    Z=            -44.2698  Tot=             62.8965
 Quadrupole moment (field-independent basis, Debye-Ang):
   XX=           -168.6691   YY=            261.2550   ZZ=            205.9685
   XY=            -93.6450   XZ=            101.3039   YZ=           -385.9730
 Traceless Quadrupole moment (field-independent basis, Debye-Ang):
   XX=           -268.1872   YY=            161.7368   ZZ=            106.4504
   XY=            -93.6450   XZ=            101.3039   YZ=           -385.9730
 Octapole moment (field-independent basis, Debye-Ang**2):
  XXX=           1242.8720  YYY=          -1448.9281  ZZZ=            483.5378  XYY=           -767.9932
  XXY=          -1801.2854  XXZ=            936.8544  XZZ=           -524.7982  YZZ=            976.4221
  YYZ=          -2444.5583  XYZ=           1227.5054
 Hexadecapole moment (field-independent basis, Debye-Ang**3):
 XXXX=         -13987.8033 YYYY=        -100239.4853 ZZZZ=         -29974.4211 XXXY=          13614.6782
 XXXZ=          -7915.9484 YYYX=            200.4325 YYYZ=           2067.7249 ZZZX=          -1861.4461
 ZZZY=          18405.1008 XXYY=         -23041.6008 XXZZ=          -8800.0453 YYZZ=          -9087.5439
 XXYZ=           8392.7388 YYXZ=          12414.7574 ZZXY=          -5720.7106
 N-N= 4.949789722965D+03 E-N=-1.422008608123D+04  KE= 1.849282543901D+03
 Unable to Open any file for archive entry.
 1\1\GINC-QML-002\SP\RB3LYP\6-31G(d)\C25H41N8O6(1+)\KENGMITH\11-Jun-202
 2\0\\# B3LYP/6-31G* empiricaldispersion=gd3 guess=read geom=check nosy
 mm integral(ultrafinegrid)\\Candidate Structure: Conf:320 Charge calc 
 in gas phase\\1,1\N,0,-1.7307371642,9.9454356045,-4.8449235945\C,0,-1.
 0451580181,11.2155625515,-5.15698428\C,0,-2.032736871,12.3446325554,-4
 .7820816228\O,0,-3.1045124217,12.0872081415,-4.2475465667\C,0,-0.65498
 35124,11.2810965377,-6.64359466\C,0,0.3072495693,10.2317453208,-7.1695
 35312\C,0,1.1558583293,9.4657770019,-6.3604383141\C,0,0.4054866539,10.
 0787002374,-8.5633566573\C,0,2.0818528037,8.579557244,-6.9235291553\C,
 0,1.3441278002,9.2191241252,-9.1298399646\C,0,2.1889891265,8.460931006
 4,-8.31010225\H,0,-2.0342078623,9.953584648,-3.8715622482\H,0,-0.14509
 58851,11.3458570557,-4.5343403583\H,0,-0.1944409829,12.2602684696,-6.8
 317421234\H,0,-1.567629511,11.2652182666,-7.2438697397\H,0,1.128870891
 2,9.5728094718,-5.2788842284\H,0,-0.2529529154,10.6615411179,-9.203227
 187\H,0,2.736484593,8.0043972052,-6.274560418\H,0,1.419215106,9.140322
 2538,-10.2114748977\H,0,2.9352191611,7.8028249569,-8.7477105344\H,0,-1
 .1036634941,9.156862734,-4.9871478137\N,0,-1.6592482238,13.6186085873,
 -5.0864930638\C,0,-2.5274652652,14.7540216356,-4.7494899052\C,0,-3.906
 1294196,14.6215282521,-5.432149778\O,0,-4.9189520291,15.0434836589,-4.
 8946213049\C,0,-1.8693282935,16.0975095236,-5.1103726748\C,0,-0.826934
 0474,16.6358916288,-4.1088222465\C,0,0.3814274896,15.7077072416,-3.911
 8436431\C,0,-0.3641218345,18.0315472319,-4.5523165451\H,0,-0.732352684
 9,13.8063924389,-5.4398811155\H,0,-2.7570582863,14.7263852995,-3.67912
 50512\H,0,-1.4265101644,16.0254994671,-6.1159446983\H,0,-2.6782372702,
 16.8331060905,-5.1847623516\H,0,-1.3342315262,16.7362513345,-3.1382301
 086\H,0,0.891522413,15.5177556228,-4.8679701978\H,0,1.1159764625,16.16
 84683668,-3.2425425432\H,0,0.0968367296,14.7462251916,-3.4713278234\H,
 0,0.3297093436,18.4649502382,-3.8237770154\H,0,0.1550169359,17.9824913
 752,-5.5184955473\H,0,-1.2106869668,18.7188836608,-4.6612163771\N,0,-3
 .902243086,14.044142195,-6.6708463731\C,0,-5.0930109552,13.3474315923,
 -7.1296542352\C,0,-4.5861438984,12.0954476429,-7.8694753864\O,0,-3.394
 9425901,11.9794730897,-8.1919732646\C,0,-6.028641123,14.2638725072,-7.
 9426956943\C,0,-7.4660388079,13.7498335945,-7.9971340565\N,0,-8.390385
 778,14.6586517213,-8.393257305\O,0,-7.7807594696,12.5897812531,-7.7206
 200435\H,0,-3.0418211551,13.6198832021,-6.9991619327\H,0,-5.6511152014
 ,13.0080035833,-6.2493119576\H,0,-6.0144711354,15.2404519634,-7.447570
 6877\H,0,-5.6521849843,14.411248274,-8.9629661473\H,0,-9.3633642379,14
 .3825905291,-8.3840524524\H,0,-8.1749498078,15.6409181755,-8.480825326
 8\N,0,-5.4703573818,11.0974504804,-8.0523652092\C,0,-4.9906998621,9.75
 33245675,-8.343791439\C,0,-3.7996639946,9.4404117966,-7.4028222813\O,0
 ,-2.7587385681,8.8891801272,-7.7850511777\C,0,-4.6584720991,9.54213754
 23,-9.8357975135\C,0,-4.6053494278,8.0534220446,-10.2801955659\C,0,-3.
 3318652578,7.6704555502,-11.0529516757\N,0,-2.1814407636,7.7988260779,
 -10.1472047292\C,0,-1.282619633,6.8719104589,-9.8469430787\N,0,-0.8868
 46568,5.9472788228,-10.7424214748\N,0,-0.7473196375,6.8461328405,-8.60
 73205271\O,0,-4.0086815762,9.797889904,-6.1719564407\H,0,-3.108775068,
 9.7887531687,-5.6322529486\H,0,-6.4390658987,11.2789225926,-7.78186557
 12\H,0,-5.7993303515,9.0721207629,-8.0516425321\H,0,-3.7212894733,10.0
 693122456,-10.0448696844\H,0,-5.4299236964,10.0644076744,-10.408212063
 5\H,0,-4.6798670196,7.3882142285,-9.4107276252\H,0,-5.4656913897,7.824
 314301,-10.9177971633\H,0,-3.3994855315,6.6379522,-11.412634654\H,0,-3
 .1915713368,8.3249542431,-11.9208680468\H,0,-2.3487172351,8.4602074431
 ,-9.3718996512\H,0,-0.4145144369,5.108559566,-10.4381450752\H,0,-1.167
 9332398,6.0074373905,-11.7094457227\H,0,0.2414119502,6.6467924719,-8.5
 122478528\H,0,-1.099035822,7.5415955938,-7.9530233961\\Version=ES64L-G
 16RevC.01\HF=-1866.7499997\RMSD=8.546e-10\Dipole=2.0351304,-4.3187394,
 -3.8497404\Quadrupole=-199.3906279,120.2473767,79.1432512,-69.6227358,
 75.3169687,-286.9614404\PG=C01 [X(C25H41N8O6)]\\@
 The archive entry for this job was punched.


 TIMES HAVE CHANGED. IN THE BIBLE WHEN AN ASS
 SPOKE IT WAS CONSIDERED A MIRACLE.
 Job cpu time:       0 days  0 hours  7 minutes 50.7 seconds.
 Elapsed time:       0 days  0 hours  1 minutes 58.5 seconds.
 File lengths (MBytes):  RWF=    344 Int=      0 D2E=      0 Chk=     56 Scr=     16
 Normal termination of Gaussian 16 at Sat Jun 11 21:08:22 2022.
