 Entering Gaussian System, Link 0=/opt/software/Gaussian/g16-AVX2-C.01/g16/g16
 Input=charge-conf-962.com
 Output=charge-conf-962.log
 Initial command:
 /opt/software/Gaussian/g16-AVX2-C.01/g16/l1.exe "/mnt/gs18/scratch/users/kengmith/Gau-32456.inp" -scrdir="/mnt/gs18/scratch/users/kengmith/"
 Entering Link 1 = /opt/software/Gaussian/g16-AVX2-C.01/g16/l1.exe PID=     32468.
  
 Copyright (c) 1988-2019, Gaussian, Inc.  All Rights Reserved.
  
 This is part of the Gaussian(R) 16 program.  It is based on
 the Gaussian(R) 09 system (copyright 2009, Gaussian, Inc.),
 the Gaussian(R) 03 system (copyright 2003, Gaussian, Inc.),
 the Gaussian(R) 98 system (copyright 1998, Gaussian, Inc.),
 the Gaussian(R) 94 system (copyright 1995, Gaussian, Inc.),
 the Gaussian 92(TM) system (copyright 1992, Gaussian, Inc.),
 the Gaussian 90(TM) system (copyright 1990, Gaussian, Inc.),
 the Gaussian 88(TM) system (copyright 1988, Gaussian, Inc.),
 the Gaussian 86(TM) system (copyright 1986, Carnegie Mellon
 University), and the Gaussian 82(TM) system (copyright 1983,
 Carnegie Mellon University). Gaussian is a federally registered
 trademark of Gaussian, Inc.
  
 This software contains proprietary and confidential information,
 including trade secrets, belonging to Gaussian, Inc.
  
 This software is provided under written license and may be
 used, copied, transmitted, or stored only in accord with that
 written license.
  
 The following legend is applicable only to US Government
 contracts under FAR:
  
                    RESTRICTED RIGHTS LEGEND
  
 Use, reproduction and disclosure by the US Government is
 subject to restrictions as set forth in subparagraphs (a)
 and (c) of the Commercial Computer Software - Restricted
 Rights clause in FAR 52.227-19.
  
 Gaussian, Inc.
 340 Quinnipiac St., Bldg. 40, Wallingford CT 06492
  
  
 ---------------------------------------------------------------
 Warning -- This program may not be used in any manner that
 competes with the business of Gaussian, Inc. or will provide
 assistance to any competitor of Gaussian, Inc.  The licensee
 of this program is prohibited from giving any competitor of
 Gaussian, Inc. access to this program.  By using this program,
 the user acknowledges that Gaussian, Inc. is engaged in the
 business of creating and licensing software in the field of
 computational chemistry and represents and warrants to the
 licensee that it is not a competitor of Gaussian, Inc. and that
 it will not use this program in any manner prohibited above.
 ---------------------------------------------------------------
  

 Cite this work as:
 Gaussian 16, Revision C.01,
 M. J. Frisch, G. W. Trucks, H. B. Schlegel, G. E. Scuseria, 
 M. A. Robb, J. R. Cheeseman, G. Scalmani, V. Barone, 
 G. A. Petersson, H. Nakatsuji, X. Li, M. Caricato, A. V. Marenich, 
 J. Bloino, B. G. Janesko, R. Gomperts, B. Mennucci, H. P. Hratchian, 
 J. V. Ortiz, A. F. Izmaylov, J. L. Sonnenberg, D. Williams-Young, 
 F. Ding, F. Lipparini, F. Egidi, J. Goings, B. Peng, A. Petrone, 
 T. Henderson, D. Ranasinghe, V. G. Zakrzewski, J. Gao, N. Rega, 
 G. Zheng, W. Liang, M. Hada, M. Ehara, K. Toyota, R. Fukuda, 
 J. Hasegawa, M. Ishida, T. Nakajima, Y. Honda, O. Kitao, H. Nakai, 
 T. Vreven, K. Throssell, J. A. Montgomery, Jr., J. E. Peralta, 
 F. Ogliaro, M. J. Bearpark, J. J. Heyd, E. N. Brothers, K. N. Kudin, 
 V. N. Staroverov, T. A. Keith, R. Kobayashi, J. Normand, 
 K. Raghavachari, A. P. Rendell, J. C. Burant, S. S. Iyengar, 
 J. Tomasi, M. Cossi, J. M. Millam, M. Klene, C. Adamo, R. Cammi, 
 J. W. Ochterski, R. L. Martin, K. Morokuma, O. Farkas, 
 J. B. Foresman, and D. J. Fox, Gaussian, Inc., Wallingford CT, 2019.
 
 ******************************************
 Gaussian 16:  ES64L-G16RevC.01  3-Jul-2019
                11-Jun-2022 
 ******************************************
 %mem=8gb
 %nproc=4
 Will use up to    4 processors via shared memory.
 %chk=conf-962.chk
 ----------------------------------------------------------------------
 # B3LYP/6-31G* empiricaldispersion=gd3 guess=read geom=check nosymm in
 tegral(ultrafinegrid)
 ----------------------------------------------------------------------
 1/29=2,38=1,172=1/1;
 2/12=2,15=1,40=1/2;
 3/5=1,6=6,7=1,11=2,14=-4,25=1,30=1,74=-5,75=-5,116=-2,124=31/1,2,3;
 4/5=1/1;
 5/5=2,38=6/2;
 6/7=2,8=2,9=2,10=2,28=1/1;
 99/5=1,9=1/99;
 ------------------------------------------------------
 Candidate Structure: Conf:962 Charge calc in gas phase
 ------------------------------------------------------
 Structure from the checkpoint file:  "conf-962.chk"
 Charge =  1 Multiplicity = 1
 Redundant internal coordinates found in file.  (old form).
 N,0,-2.6983407555,11.8589471677,-3.8327890249
 C,0,-2.4298602812,10.399334894,-4.0327105709
 C,0,-0.9864333808,10.3632891342,-4.5916333165
 O,0,-0.2177768901,11.2773838351,-4.3235589629
 C,0,-3.5109241152,9.784431486,-4.950625551
 C,0,-4.9101551634,10.2331398693,-4.5793057859
 C,0,-5.4668897826,9.9051333999,-3.3334819672
 C,0,-5.6390972354,11.0375338882,-5.4646001742
 C,0,-6.7319282037,10.3740705185,-2.9771843454
 C,0,-6.9060816481,11.5033219003,-5.1066856966
 C,0,-7.4534942075,11.1772215905,-3.8649531267
 H,0,-3.5977865734,12.010364222,-3.3722121626
 H,0,-2.4477043339,9.9187867839,-3.0477961455
 H,0,-3.4348283068,8.6918300933,-4.8635902621
 H,0,-3.3058322941,10.0608039574,-5.988699986
 H,0,-4.9156386288,9.2677166986,-2.6438850551
 H,0,-5.2167683664,11.2802129401,-6.4347467521
 H,0,-7.1567790319,10.1065163608,-2.0137617491
 H,0,-7.4644476314,12.1225137681,-5.8031554265
 H,0,-8.4398959653,11.5397895657,-3.5897478593
 H,0,-1.9231348678,12.2705064856,-3.3053038824
 N,0,-0.669865996,9.2990010488,-5.3739180946
 C,0,0.4543459777,9.3352965968,-6.3182972278
 C,0,-0.0248676496,9.9360369502,-7.6579570193
 O,0,0.4906377817,10.9326944221,-8.1489506753
 C,0,1.0803470948,7.9423227545,-6.4761752427
 C,0,2.1833279605,7.8539335148,-7.5492675159
 C,0,3.3005767113,8.8823347557,-7.3173574892
 C,0,2.7438346383,6.4257773151,-7.5960286085
 H,0,-1.3834438385,8.6005064687,-5.5286771602
 H,0,1.1747221476,10.0459134452,-5.9152621504
 H,0,1.4862648948,7.6459953265,-5.5002101905
 H,0,0.2893245832,7.2156149604,-6.7189245982
 H,0,1.7207746258,8.0684190704,-8.5238839684
 H,0,2.9367542513,9.9088155192,-7.4282469716
 H,0,3.7317995868,8.7717326166,-6.3138411417
 H,0,4.1085051327,8.7389823847,-8.0429627525
 H,0,3.2360624949,6.1687339873,-6.6495386614
 H,0,1.9537190464,5.6863293328,-7.7751385852
 H,0,3.4862253701,6.3244861304,-8.3948828167
 N,0,-1.0520022611,9.264376866,-8.2678419409
 C,0,-1.7699885219,9.8591421851,-9.3946364962
 C,0,-2.7041420452,10.9584886571,-8.8573962875
 O,0,-3.8018909346,10.6762497142,-8.3714943014
 C,0,-2.5832215096,8.7966306369,-10.1297045301
 C,0,-3.251706331,9.398541336,-11.3678225596
 N,0,-3.7999439172,8.4963549851,-12.2243200004
 O,0,-3.292236261,10.6078616558,-11.5630400656
 H,0,-1.5513782169,8.5571223601,-7.7463294293
 H,0,-1.0258683163,10.2929697788,-10.0645299684
 H,0,-1.9388919636,7.9533178118,-10.4042582392
 H,0,-3.3731488403,8.4245400062,-9.4643249921
 H,0,-4.284443231,8.8414285585,-13.041289536
 H,0,-3.774629088,7.5008875035,-12.0625617623
 N,0,-2.2177732023,12.2170515551,-8.9384571356
 C,0,-2.9974613488,13.3350469066,-8.4354111378
 C,0,-3.210228856,13.2549516713,-6.8952834583
 O,0,-4.1170519775,13.967805153,-6.3768140901
 C,0,-4.325701476,13.5022609242,-9.2308770315
 C,0,-4.4664911405,14.7920519096,-10.0664693366
 C,0,-4.1497475605,16.1193576783,-9.3510815023
 N,0,-4.6404097643,16.0962722465,-7.9648208501
 C,0,-4.4138234098,17.0566008412,-7.0704389644
 N,0,-4.2536928395,18.3396433474,-7.4471623333
 N,0,-4.328677657,16.7165369429,-5.7755356705
 O,0,-2.4161742243,12.510774558,-6.2589619149
 H,0,-2.6800513804,12.3218611745,-4.8641025205
 H,0,-1.2149189142,12.3142014662,-9.0449938286
 H,0,-2.3656508539,14.2202869632,-8.5808808186
 H,0,-5.1681062979,13.4151792747,-8.5390847999
 H,0,-4.4181435793,12.6593993747,-9.9188697316
 H,0,-3.8101186154,14.741496717,-10.9430054551
 H,0,-5.4931014948,14.828234171,-10.4479812926
 H,0,-3.0674857312,16.3076272992,-9.3397915588
 H,0,-4.6157404653,16.9427174043,-9.9048428502
 H,0,-4.6720006564,15.1615490607,-7.5139753428
 H,0,-4.0078469597,19.0558825822,-6.7804979069
 H,0,-4.5085170599,18.6367960065,-8.3769027754
 H,0,-4.4260844118,17.3970647987,-5.0373563269
 H,0,-4.2504142564,15.7205906286,-5.5524797445
 Recover connectivity data from disk.
                           ----------------------------
                           !    Current Parameters    !
                           ! (Angstroms and Degrees)  !
 --------------------------                            --------------------------
 ! Name  Definition              Value                                          !
 --------------------------------------------------------------------------------
 ! R1    R(1,2)                  1.4975                                         !
 ! R2    R(1,12)                 1.0218                                         !
 ! R3    R(1,21)                 1.024                                          !
 ! R4    R(2,3)                  1.5483                                         !
 ! R5    R(2,5)                  1.5458                                         !
 ! R6    R(2,13)                 1.096                                          !
 ! R7    R(3,4)                  1.224                                          !
 ! R8    R(3,22)                 1.3583                                         !
 ! R9    R(5,6)                  1.5156                                         !
 ! R10   R(5,14)                 1.0987                                         !
 ! R11   R(5,15)                 1.0936                                         !
 ! R12   R(6,7)                  1.4034                                         !
 ! R13   R(6,8)                  1.4008                                         !
 ! R14   R(7,9)                  1.3954                                         !
 ! R15   R(7,16)                 1.0889                                         !
 ! R16   R(8,10)                 1.3965                                         !
 ! R17   R(8,17)                 1.0856                                         !
 ! R18   R(9,11)                 1.3978                                         !
 ! R19   R(9,18)                 1.0864                                         !
 ! R20   R(10,11)                1.3957                                         !
 ! R21   R(10,19)                1.0864                                         !
 ! R22   R(11,20)                1.0864                                         !
 ! R23   R(22,23)                1.4687                                         !
 ! R24   R(22,30)                1.0105                                         !
 ! R25   R(23,24)                1.5444                                         !
 ! R26   R(23,26)                1.5353                                         !
 ! R27   R(23,31)                1.0892                                         !
 ! R28   R(24,25)                1.2248                                         !
 ! R29   R(24,41)                1.3704                                         !
 ! R30   R(26,27)                1.5414                                         !
 ! R31   R(26,32)                1.0978                                         !
 ! R32   R(26,33)                1.1012                                         !
 ! R33   R(27,28)                1.5361                                         !
 ! R34   R(27,29)                1.5349                                         !
 ! R35   R(27,34)                1.0999                                         !
 ! R36   R(28,35)                1.0947                                         !
 ! R37   R(28,36)                1.0978                                         !
 ! R38   R(28,37)                1.0954                                         !
 ! R39   R(29,38)                1.0974                                         !
 ! R40   R(29,39)                1.0969                                         !
 ! R41   R(29,40)                1.0952                                         !
 ! R42   R(41,42)                1.4625                                         !
 ! R43   R(41,49)                1.0107                                         !
 ! R44   R(42,43)                1.5394                                         !
 ! R45   R(42,45)                1.5266                                         !
 ! R46   R(42,50)                1.0912                                         !
 ! R47   R(43,44)                1.2332                                         !
 ! R48   R(43,55)                1.3517                                         !
 ! R49   R(45,46)                1.5304                                         !
 ! R50   R(45,51)                1.0962                                         !
 ! R51   R(45,52)                1.0978                                         !
 ! R52   R(46,47)                1.3594                                         !
 ! R53   R(46,48)                1.2256                                         !
 ! R54   R(47,53)                1.0106                                         !
 ! R55   R(47,54)                1.0088                                         !
 ! R56   R(55,56)                1.4529                                         !
 ! R57   R(55,68)                1.0132                                         !
 ! R58   R(56,57)                1.5568                                         !
 ! R59   R(56,59)                1.5572                                         !
 ! R60   R(56,69)                1.0973                                         !
 ! R61   R(57,58)                1.2646                                         !
 ! R62   R(57,66)                1.2606                                         !
 ! R63   R(59,60)                1.5432                                         !
 ! R64   R(59,70)                1.0935                                         !
 ! R65   R(59,71)                1.0919                                         !
 ! R66   R(60,61)                1.5407                                         !
 ! R67   R(60,72)                1.0962                                         !
 ! R68   R(60,73)                1.0958                                         !
 ! R69   R(61,62)                1.4707                                         !
 ! R70   R(61,74)                1.0986                                         !
 ! R71   R(61,75)                1.0962                                         !
 ! R72   R(62,63)                1.3317                                         !
 ! R73   R(62,76)                1.0383                                         !
 ! R74   R(63,64)                1.3468                                         !
 ! R75   R(63,65)                1.3415                                         !
 ! R76   R(64,77)                1.0089                                         !
 ! R77   R(64,78)                1.0088                                         !
 ! R78   R(65,79)                1.0087                                         !
 ! R79   R(65,80)                1.0236                                         !
 ! R80   R(66,67)                1.4321                                         !
 ! A1    A(2,1,12)             111.2497                                         !
 ! A2    A(2,1,21)             108.9529                                         !
 ! A3    A(12,1,21)            112.0021                                         !
 ! A4    A(1,2,3)              103.7703                                         !
 ! A5    A(1,2,5)              109.9759                                         !
 ! A6    A(1,2,13)             107.7257                                         !
 ! A7    A(3,2,5)              115.3648                                         !
 ! A8    A(3,2,13)             109.2303                                         !
 ! A9    A(5,2,13)             110.3542                                         !
 ! A10   A(2,3,4)              119.2744                                         !
 ! A11   A(2,3,22)             116.3234                                         !
 ! A12   A(4,3,22)             124.3976                                         !
 ! A13   A(2,5,6)              112.4833                                         !
 ! A14   A(2,5,14)             107.4643                                         !
 ! A15   A(2,5,15)             109.3887                                         !
 ! A16   A(6,5,14)             109.8128                                         !
 ! A17   A(6,5,15)             109.3213                                         !
 ! A18   A(14,5,15)            108.2709                                         !
 ! A19   A(5,6,7)              120.9657                                         !
 ! A20   A(5,6,8)              119.7094                                         !
 ! A21   A(7,6,8)              119.2623                                         !
 ! A22   A(6,7,9)              120.5141                                         !
 ! A23   A(6,7,16)             119.8784                                         !
 ! A24   A(9,7,16)             119.6012                                         !
 ! A25   A(6,8,10)             120.1105                                         !
 ! A26   A(6,8,17)             119.389                                          !
 ! A27   A(10,8,17)            120.4929                                         !
 ! A28   A(7,9,11)             119.9279                                         !
 ! A29   A(7,9,18)             119.8807                                         !
 ! A30   A(11,9,18)            120.1893                                         !
 ! A31   A(8,10,11)            120.3929                                         !
 ! A32   A(8,10,19)            119.4775                                         !
 ! A33   A(11,10,19)           120.1297                                         !
 ! A34   A(9,11,10)            119.7917                                         !
 ! A35   A(9,11,20)            119.9727                                         !
 ! A36   A(10,11,20)           120.2343                                         !
 ! A37   A(3,22,23)            121.9633                                         !
 ! A38   A(3,22,30)            117.7275                                         !
 ! A39   A(23,22,30)           117.3328                                         !
 ! A40   A(22,23,24)           109.2605                                         !
 ! A41   A(22,23,26)           110.8427                                         !
 ! A42   A(22,23,31)           106.5259                                         !
 ! A43   A(24,23,26)           112.9689                                         !
 ! A44   A(24,23,31)           105.8079                                         !
 ! A45   A(26,23,31)           111.1197                                         !
 ! A46   A(23,24,25)           122.2525                                         !
 ! A47   A(23,24,41)           115.3374                                         !
 ! A48   A(25,24,41)           122.4026                                         !
 ! A49   A(23,26,27)           114.5433                                         !
 ! A50   A(23,26,32)           107.7135                                         !
 ! A51   A(23,26,33)           109.1783                                         !
 ! A52   A(27,26,32)           109.8077                                         !
 ! A53   A(27,26,33)           108.8258                                         !
 ! A54   A(32,26,33)           106.466                                          !
 ! A55   A(26,27,28)           112.1453                                         !
 ! A56   A(26,27,29)           109.6254                                         !
 ! A57   A(26,27,34)           107.7441                                         !
 ! A58   A(28,27,29)           111.2181                                         !
 ! A59   A(28,27,34)           108.0041                                         !
 ! A60   A(29,27,34)           107.9392                                         !
 ! A61   A(27,28,35)           111.762                                          !
 ! A62   A(27,28,36)           110.8697                                         !
 ! A63   A(27,28,37)           110.4166                                         !
 ! A64   A(35,28,36)           108.5186                                         !
 ! A65   A(35,28,37)           107.5032                                         !
 ! A66   A(36,28,37)           107.615                                          !
 ! A67   A(27,29,38)           110.8221                                         !
 ! A68   A(27,29,39)           111.6649                                         !
 ! A69   A(27,29,40)           110.842                                          !
 ! A70   A(38,29,39)           107.8207                                         !
 ! A71   A(38,29,40)           107.6616                                         !
 ! A72   A(39,29,40)           107.8673                                         !
 ! A73   A(24,41,42)           120.7645                                         !
 ! A74   A(24,41,49)           118.9231                                         !
 ! A75   A(42,41,49)           116.0754                                         !
 ! A76   A(41,42,43)           108.6294                                         !
 ! A77   A(41,42,45)           110.4536                                         !
 ! A78   A(41,42,50)           107.4513                                         !
 ! A79   A(43,42,45)           109.987                                          !
 ! A80   A(43,42,50)           110.1295                                         !
 ! A81   A(45,42,50)           110.1437                                         !
 ! A82   A(42,43,44)           120.946                                          !
 ! A83   A(42,43,55)           115.1915                                         !
 ! A84   A(44,43,55)           123.8498                                         !
 ! A85   A(42,45,46)           110.3951                                         !
 ! A86   A(42,45,51)           110.0536                                         !
 ! A87   A(42,45,52)           109.109                                          !
 ! A88   A(46,45,51)           110.8966                                         !
 ! A89   A(46,45,52)           108.0201                                         !
 ! A90   A(51,45,52)           108.2998                                         !
 ! A91   A(45,46,47)           115.1413                                         !
 ! A92   A(45,46,48)           122.098                                          !
 ! A93   A(47,46,48)           122.7597                                         !
 ! A94   A(46,47,53)           118.429                                          !
 ! A95   A(46,47,54)           122.9362                                         !
 ! A96   A(53,47,54)           118.5934                                         !
 ! A97   A(43,55,56)           120.1732                                         !
 ! A98   A(43,55,68)           116.8556                                         !
 ! A99   A(56,55,68)           119.5912                                         !
 ! A100  A(55,56,57)           112.1035                                         !
 ! A101  A(55,56,59)           111.3151                                         !
 ! A102  A(55,56,69)           105.4205                                         !
 ! A103  A(57,56,59)           113.2223                                         !
 ! A104  A(57,56,69)           104.5577                                         !
 ! A105  A(59,56,69)           109.6809                                         !
 ! A106  A(56,57,58)           118.332                                          !
 ! A107  A(56,57,66)           116.3359                                         !
 ! A108  A(58,57,66)           125.2732                                         !
 ! A109  A(56,59,60)           116.3687                                         !
 ! A110  A(56,59,70)           108.9878                                         !
 ! A111  A(56,59,71)           108.1304                                         !
 ! A112  A(60,59,70)           109.8045                                         !
 ! A113  A(60,59,71)           107.2328                                         !
 ! A114  A(70,59,71)           105.7781                                         !
 ! A115  A(59,60,61)           116.7331                                         !
 ! A116  A(59,60,72)           109.8633                                         !
 ! A117  A(59,60,73)           107.5523                                         !
 ! A118  A(61,60,72)           106.7325                                         !
 ! A119  A(61,60,73)           109.0146                                         !
 ! A120  A(72,60,73)           106.5044                                         !
 ! A121  A(60,61,62)           110.8269                                         !
 ! A122  A(60,61,74)           110.7896                                         !
 ! A123  A(60,61,75)           108.9718                                         !
 ! A124  A(62,61,74)           108.764                                          !
 ! A125  A(62,61,75)           110.2498                                         !
 ! A126  A(74,61,75)           107.1724                                         !
 ! A127  A(61,62,63)           124.3987                                         !
 ! A128  A(61,62,76)           115.6951                                         !
 ! A129  A(63,62,76)           111.2696                                         !
 ! A130  A(62,63,64)           121.2898                                         !
 ! A131  A(62,63,65)           118.4416                                         !
 ! A132  A(64,63,65)           120.2623                                         !
 ! A133  A(63,64,77)           121.3637                                         !
 ! A134  A(63,64,78)           120.5573                                         !
 ! A135  A(77,64,78)           117.4802                                         !
 ! A136  A(63,65,79)           121.9531                                         !
 ! A137  A(63,65,80)           117.5053                                         !
 ! A138  A(79,65,80)           120.2866                                         !
 ! A139  A(57,66,67)           116.9645                                         !
 ! D1    D(12,1,2,3)          -174.1754                                         !
 ! D2    D(12,1,2,5)            61.8812                                         !
 ! D3    D(12,1,2,13)          -58.4315                                         !
 ! D4    D(21,1,2,3)           -50.2195                                         !
 ! D5    D(21,1,2,5)          -174.1629                                         !
 ! D6    D(21,1,2,13)           65.5244                                         !
 ! D7    D(1,2,3,4)             26.0823                                         !
 ! D8    D(1,2,3,22)          -153.1745                                         !
 ! D9    D(5,2,3,4)            146.4432                                         !
 ! D10   D(5,2,3,22)           -32.8136                                         !
 ! D11   D(13,2,3,4)           -88.5935                                         !
 ! D12   D(13,2,3,22)           92.1497                                         !
 ! D13   D(1,2,5,6)            -44.6833                                         !
 ! D14   D(1,2,5,14)          -165.6653                                         !
 ! D15   D(1,2,5,15)            77.0029                                         !
 ! D16   D(3,2,5,6)           -161.5948                                         !
 ! D17   D(3,2,5,14)            77.4233                                         !
 ! D18   D(3,2,5,15)           -39.9086                                         !
 ! D19   D(13,2,5,6)            74.0267                                         !
 ! D20   D(13,2,5,14)          -46.9553                                         !
 ! D21   D(13,2,5,15)         -164.2871                                         !
 ! D22   D(2,3,22,23)          159.1084                                         !
 ! D23   D(2,3,22,30)           -0.8428                                         !
 ! D24   D(4,3,22,23)          -20.1059                                         !
 ! D25   D(4,3,22,30)          179.9429                                         !
 ! D26   D(2,5,6,7)            -63.5026                                         !
 ! D27   D(2,5,6,8)            113.5994                                         !
 ! D28   D(14,5,6,7)            56.1239                                         !
 ! D29   D(14,5,6,8)          -126.7741                                         !
 ! D30   D(15,5,6,7)           174.7729                                         !
 ! D31   D(15,5,6,8)            -8.1251                                         !
 ! D32   D(5,6,7,9)            177.0774                                         !
 ! D33   D(5,6,7,16)            -3.8394                                         !
 ! D34   D(8,6,7,9)             -0.0374                                         !
 ! D35   D(8,6,7,16)           179.0458                                         !
 ! D36   D(5,6,8,10)          -177.244                                          !
 ! D37   D(5,6,8,17)             3.761                                          !
 ! D38   D(7,6,8,10)            -0.0924                                         !
 ! D39   D(7,6,8,17)          -179.0874                                         !
 ! D40   D(6,7,9,11)            -0.0124                                         !
 ! D41   D(6,7,9,18)           179.4533                                         !
 ! D42   D(16,7,9,11)         -179.0981                                         !
 ! D43   D(16,7,9,18)            0.3676                                         !
 ! D44   D(6,8,10,11)            0.2735                                         !
 ! D45   D(6,8,10,19)         -179.7038                                         !
 ! D46   D(17,8,10,11)         179.2573                                         !
 ! D47   D(17,8,10,19)          -0.72                                           !
 ! D48   D(7,9,11,10)            0.1917                                         !
 ! D49   D(7,9,11,20)          179.783                                          !
 ! D50   D(18,9,11,10)        -179.2724                                         !
 ! D51   D(18,9,11,20)           0.319                                          !
 ! D52   D(8,10,11,9)           -0.3227                                         !
 ! D53   D(8,10,11,20)        -179.913                                          !
 ! D54   D(19,10,11,9)         179.6544                                         !
 ! D55   D(19,10,11,20)          0.0642                                         !
 ! D56   D(3,22,23,24)         -86.2672                                         !
 ! D57   D(3,22,23,26)         148.6091                                         !
 ! D58   D(3,22,23,31)          27.6035                                         !
 ! D59   D(30,22,23,24)         73.7589                                         !
 ! D60   D(30,22,23,26)        -51.3648                                         !
 ! D61   D(30,22,23,31)       -172.3704                                         !
 ! D62   D(22,23,24,25)        122.0801                                         !
 ! D63   D(22,23,24,41)        -58.8915                                         !
 ! D64   D(26,23,24,25)       -114.0402                                         !
 ! D65   D(26,23,24,41)         64.9882                                         !
 ! D66   D(31,23,24,25)          7.7441                                         !
 ! D67   D(31,23,24,41)       -173.2275                                         !
 ! D68   D(22,23,26,27)        174.482                                          !
 ! D69   D(22,23,26,32)        -63.0442                                         !
 ! D70   D(22,23,26,33)         52.1779                                         !
 ! D71   D(24,23,26,27)         51.4768                                         !
 ! D72   D(24,23,26,32)        173.9505                                         !
 ! D73   D(24,23,26,33)        -70.8273                                         !
 ! D74   D(31,23,26,27)        -67.2666                                         !
 ! D75   D(31,23,26,32)         55.2072                                         !
 ! D76   D(31,23,26,33)        170.4293                                         !
 ! D77   D(23,24,41,42)        168.0998                                         !
 ! D78   D(23,24,41,49)         12.1255                                         !
 ! D79   D(25,24,41,42)        -12.8734                                         !
 ! D80   D(25,24,41,49)       -168.8477                                         !
 ! D81   D(23,26,27,28)         55.0246                                         !
 ! D82   D(23,26,27,29)        179.078                                          !
 ! D83   D(23,26,27,34)        -63.7                                            !
 ! D84   D(32,26,27,28)        -66.3064                                         !
 ! D85   D(32,26,27,29)         57.747                                          !
 ! D86   D(32,26,27,34)        174.969                                          !
 ! D87   D(33,26,27,28)        177.52                                           !
 ! D88   D(33,26,27,29)        -58.4266                                         !
 ! D89   D(33,26,27,34)         58.7954                                         !
 ! D90   D(26,27,28,35)        -65.1993                                         !
 ! D91   D(26,27,28,36)         56.012                                          !
 ! D92   D(26,27,28,37)        175.1877                                         !
 ! D93   D(29,27,28,35)        171.6396                                         !
 ! D94   D(29,27,28,36)        -67.1491                                         !
 ! D95   D(29,27,28,37)         52.0267                                         !
 ! D96   D(34,27,28,35)         53.3717                                         !
 ! D97   D(34,27,28,36)        174.5831                                         !
 ! D98   D(34,27,28,37)        -66.2412                                         !
 ! D99   D(26,27,29,38)        -64.0353                                         !
 ! D100  D(26,27,29,39)         56.1889                                         !
 ! D101  D(26,27,29,40)        176.4857                                         !
 ! D102  D(28,27,29,38)         60.5581                                         !
 ! D103  D(28,27,29,39)       -179.2178                                         !
 ! D104  D(28,27,29,40)        -58.921                                          !
 ! D105  D(34,27,29,38)        178.8651                                         !
 ! D106  D(34,27,29,39)        -60.9108                                         !
 ! D107  D(34,27,29,40)         59.386                                          !
 ! D108  D(24,41,42,43)        -74.77                                           !
 ! D109  D(24,41,42,45)        164.5192                                         !
 ! D110  D(24,41,42,50)         44.3518                                         !
 ! D111  D(49,41,42,43)         81.8551                                         !
 ! D112  D(49,41,42,45)        -38.8556                                         !
 ! D113  D(49,41,42,50)       -159.023                                          !
 ! D114  D(41,42,43,44)        -81.2303                                         !
 ! D115  D(41,42,43,55)         97.5214                                         !
 ! D116  D(45,42,43,44)         39.7682                                         !
 ! D117  D(45,42,43,55)       -141.4801                                         !
 ! D118  D(50,42,43,44)        161.3421                                         !
 ! D119  D(50,42,43,55)        -19.9061                                         !
 ! D120  D(41,42,45,46)       -175.855                                          !
 ! D121  D(41,42,45,51)        -53.1157                                         !
 ! D122  D(41,42,45,52)         65.5837                                         !
 ! D123  D(43,42,45,46)         64.2481                                         !
 ! D124  D(43,42,45,51)       -173.0126                                         !
 ! D125  D(43,42,45,52)        -54.3132                                         !
 ! D126  D(50,42,45,46)        -57.3174                                         !
 ! D127  D(50,42,45,51)         65.4219                                         !
 ! D128  D(50,42,45,52)       -175.8787                                         !
 ! D129  D(42,43,55,56)       -178.6369                                         !
 ! D130  D(42,43,55,68)        -19.4668                                         !
 ! D131  D(44,43,55,56)          0.074                                          !
 ! D132  D(44,43,55,68)        159.2441                                         !
 ! D133  D(42,45,46,47)        168.6823                                         !
 ! D134  D(42,45,46,48)        -11.6832                                         !
 ! D135  D(51,45,46,47)         46.4373                                         !
 ! D136  D(51,45,46,48)       -133.9283                                         !
 ! D137  D(52,45,46,47)        -72.0937                                         !
 ! D138  D(52,45,46,48)        107.5408                                         !
 ! D139  D(45,46,47,53)        177.7634                                         !
 ! D140  D(45,46,47,54)          0.1387                                         !
 ! D141  D(48,46,47,53)         -1.8684                                         !
 ! D142  D(48,46,47,54)       -179.4931                                         !
 ! D143  D(43,55,56,57)         64.4444                                         !
 ! D144  D(43,55,56,59)        -63.5288                                         !
 ! D145  D(43,55,56,69)        177.6135                                         !
 ! D146  D(68,55,56,57)        -94.1586                                         !
 ! D147  D(68,55,56,59)        137.8682                                         !
 ! D148  D(68,55,56,69)         19.0105                                         !
 ! D149  D(55,56,57,58)       -163.5                                            !
 ! D150  D(55,56,57,66)         19.1417                                         !
 ! D151  D(59,56,57,58)        -36.5461                                         !
 ! D152  D(59,56,57,66)        146.0957                                         !
 ! D153  D(69,56,57,58)         82.7979                                         !
 ! D154  D(69,56,57,66)        -94.5603                                         !
 ! D155  D(55,56,59,60)       -114.2763                                         !
 ! D156  D(55,56,59,70)        120.9393                                         !
 ! D157  D(55,56,59,71)          6.4043                                         !
 ! D158  D(57,56,59,60)        118.3556                                         !
 ! D159  D(57,56,59,70)         -6.4288                                         !
 ! D160  D(57,56,59,71)       -120.9638                                         !
 ! D161  D(69,56,59,60)          1.9996                                         !
 ! D162  D(69,56,59,70)       -122.7848                                         !
 ! D163  D(69,56,59,71)        122.6802                                         !
 ! D164  D(56,57,66,67)       -173.9654                                         !
 ! D165  D(58,57,66,67)          8.883                                          !
 ! D166  D(56,59,60,61)        -49.4867                                         !
 ! D167  D(56,59,60,72)         72.1622                                         !
 ! D168  D(56,59,60,73)       -172.3017                                         !
 ! D169  D(70,59,60,61)         74.8805                                         !
 ! D170  D(70,59,60,72)       -163.4705                                         !
 ! D171  D(70,59,60,73)        -47.9345                                         !
 ! D172  D(71,59,60,61)       -170.645                                          !
 ! D173  D(71,59,60,72)        -48.9961                                         !
 ! D174  D(71,59,60,73)         66.54                                           !
 ! D175  D(59,60,61,62)        -38.5337                                         !
 ! D176  D(59,60,61,74)         82.3001                                         !
 ! D177  D(59,60,61,75)       -160.0241                                         !
 ! D178  D(72,60,61,62)       -161.8104                                         !
 ! D179  D(72,60,61,74)        -40.9765                                         !
 ! D180  D(72,60,61,75)         76.6993                                         !
 ! D181  D(73,60,61,62)         83.5209                                         !
 ! D182  D(73,60,61,74)       -155.6453                                         !
 ! D183  D(73,60,61,75)        -37.9695                                         !
 ! D184  D(60,61,62,63)        174.1344                                         !
 ! D185  D(60,61,62,76)         29.3165                                         !
 ! D186  D(74,61,62,63)         52.1087                                         !
 ! D187  D(74,61,62,76)        -92.7092                                         !
 ! D188  D(75,61,62,63)        -65.1298                                         !
 ! D189  D(75,61,62,76)        150.0523                                         !
 ! D190  D(61,62,63,64)         29.8282                                         !
 ! D191  D(61,62,63,65)       -149.2554                                         !
 ! D192  D(76,62,63,64)        175.9691                                         !
 ! D193  D(76,62,63,65)         -3.1144                                         !
 ! D194  D(62,63,64,77)       -174.9577                                         !
 ! D195  D(62,63,64,78)         14.1383                                         !
 ! D196  D(65,63,64,77)          4.1093                                         !
 ! D197  D(65,63,64,78)       -166.7947                                         !
 ! D198  D(62,63,65,79)       -161.9836                                         !
 ! D199  D(62,63,65,80)         12.2277                                         !
 ! D200  D(64,63,65,79)         18.9231                                         !
 ! D201  D(64,63,65,80)       -166.8656                                         !
 --------------------------------------------------------------------------------
 Symmetry turned off by external request.
 Stoichiometry    C25H41N8O6(1+)
 Framework group  C1[X(C25H41N8O6)]
 Deg. of freedom   234
 Full point group                 C1      NOp   1
                          Input orientation:                          
 ---------------------------------------------------------------------
 Center     Atomic      Atomic             Coordinates (Angstroms)
 Number     Number       Type             X           Y           Z
 ---------------------------------------------------------------------
      1          7           0       -2.698341   11.858947   -3.832789
      2          6           0       -2.429860   10.399335   -4.032711
      3          6           0       -0.986433   10.363289   -4.591633
      4          8           0       -0.217777   11.277384   -4.323559
      5          6           0       -3.510924    9.784431   -4.950626
      6          6           0       -4.910155   10.233140   -4.579306
      7          6           0       -5.466890    9.905133   -3.333482
      8          6           0       -5.639097   11.037534   -5.464600
      9          6           0       -6.731928   10.374071   -2.977184
     10          6           0       -6.906082   11.503322   -5.106686
     11          6           0       -7.453494   11.177222   -3.864953
     12          1           0       -3.597787   12.010364   -3.372212
     13          1           0       -2.447704    9.918787   -3.047796
     14          1           0       -3.434828    8.691830   -4.863590
     15          1           0       -3.305832   10.060804   -5.988700
     16          1           0       -4.915639    9.267717   -2.643885
     17          1           0       -5.216768   11.280213   -6.434747
     18          1           0       -7.156779   10.106516   -2.013762
     19          1           0       -7.464448   12.122514   -5.803155
     20          1           0       -8.439896   11.539790   -3.589748
     21          1           0       -1.923135   12.270506   -3.305304
     22          7           0       -0.669866    9.299001   -5.373918
     23          6           0        0.454346    9.335297   -6.318297
     24          6           0       -0.024868    9.936037   -7.657957
     25          8           0        0.490638   10.932694   -8.148951
     26          6           0        1.080347    7.942323   -6.476175
     27          6           0        2.183328    7.853934   -7.549268
     28          6           0        3.300577    8.882335   -7.317357
     29          6           0        2.743835    6.425777   -7.596029
     30          1           0       -1.383444    8.600506   -5.528677
     31          1           0        1.174722   10.045913   -5.915262
     32          1           0        1.486265    7.645995   -5.500210
     33          1           0        0.289325    7.215615   -6.718925
     34          1           0        1.720775    8.068419   -8.523884
     35          1           0        2.936754    9.908816   -7.428247
     36          1           0        3.731800    8.771733   -6.313841
     37          1           0        4.108505    8.738982   -8.042963
     38          1           0        3.236062    6.168734   -6.649539
     39          1           0        1.953719    5.686329   -7.775139
     40          1           0        3.486225    6.324486   -8.394883
     41          7           0       -1.052002    9.264377   -8.267842
     42          6           0       -1.769989    9.859142   -9.394636
     43          6           0       -2.704142   10.958489   -8.857396
     44          8           0       -3.801891   10.676250   -8.371494
     45          6           0       -2.583222    8.796631  -10.129705
     46          6           0       -3.251706    9.398541  -11.367823
     47          7           0       -3.799944    8.496355  -12.224320
     48          8           0       -3.292236   10.607862  -11.563040
     49          1           0       -1.551378    8.557122   -7.746329
     50          1           0       -1.025868   10.292970  -10.064530
     51          1           0       -1.938892    7.953318  -10.404258
     52          1           0       -3.373149    8.424540   -9.464325
     53          1           0       -4.284443    8.841429  -13.041290
     54          1           0       -3.774629    7.500888  -12.062562
     55          7           0       -2.217773   12.217052   -8.938457
     56          6           0       -2.997461   13.335047   -8.435411
     57          6           0       -3.210229   13.254952   -6.895283
     58          8           0       -4.117052   13.967805   -6.376814
     59          6           0       -4.325701   13.502261   -9.230877
     60          6           0       -4.466491   14.792052  -10.066469
     61          6           0       -4.149748   16.119358   -9.351082
     62          7           0       -4.640410   16.096272   -7.964821
     63          6           0       -4.413823   17.056601   -7.070439
     64          7           0       -4.253693   18.339643   -7.447162
     65          7           0       -4.328678   16.716537   -5.775536
     66          8           0       -2.416174   12.510775   -6.258962
     67          1           0       -2.680051   12.321861   -4.864103
     68          1           0       -1.214919   12.314201   -9.044994
     69          1           0       -2.365651   14.220287   -8.580881
     70          1           0       -5.168106   13.415179   -8.539085
     71          1           0       -4.418144   12.659399   -9.918870
     72          1           0       -3.810119   14.741497  -10.943005
     73          1           0       -5.493101   14.828234  -10.447981
     74          1           0       -3.067486   16.307627   -9.339792
     75          1           0       -4.615740   16.942717   -9.904843
     76          1           0       -4.672001   15.161549   -7.513975
     77          1           0       -4.007847   19.055883   -6.780498
     78          1           0       -4.508517   18.636796   -8.376903
     79          1           0       -4.426084   17.397065   -5.037356
     80          1           0       -4.250414   15.720591   -5.552480
 ---------------------------------------------------------------------
 Rotational constants (GHZ):           0.1028561           0.0655591           0.0560347
 Standard basis: 6-31G(d) (6D, 7F)
   667 basis functions,  1256 primitive gaussians,   667 cartesian basis functions
   147 alpha electrons      147 beta electrons
       nuclear repulsion energy      4938.1992930109 Hartrees.
 NAtoms=   80 NActive=   80 NUniq=   80 SFac= 1.00D+00 NAtFMM=   60 NAOKFM=T Big=T
 Integral buffers will be    131072 words long.
 Raffenetti 2 integral format.
 Two-electron integral symmetry is turned off.
 Nuclear repulsion after empirical dispersion term =     4938.0872118487 Hartrees.
 One-electron integrals computed using PRISM.
 NBasis=   667 RedAO= T EigKep=  4.48D-04  NBF=   667
 NBsUse=   667 1.00D-06 EigRej= -1.00D+00 NBFU=   667
 Initial guess from the checkpoint file:  "conf-962.chk"
 B after Tr=     0.000000    0.000000    0.000000
         Rot=    1.000000    0.000000    0.000000    0.000000 Ang=   0.00 deg.
 Requested convergence on RMS density matrix=1.00D-08 within 128 cycles.
 Requested convergence on MAX density matrix=1.00D-06.
 Requested convergence on             energy=1.00D-06.
 No special actions if energy rises.
 SCF Done:  E(RB3LYP) =  -1866.73988058     A.U. after    3 cycles
            NFock=  3  Conv=0.95D-09     -V/T= 2.0095

 **********************************************************************

            Population analysis using the SCF Density.

 **********************************************************************

 Alpha  occ. eigenvalues --  -19.21754 -19.20436 -19.20294 -19.20290 -19.19196
 Alpha  occ. eigenvalues --  -19.18820 -14.50823 -14.50291 -14.48688 -14.47349
 Alpha  occ. eigenvalues --  -14.46306 -14.45052 -14.43154 -14.43037 -10.45373
 Alpha  occ. eigenvalues --  -10.39232 -10.37814 -10.37185 -10.36757 -10.35950
 Alpha  occ. eigenvalues --  -10.35372 -10.33534 -10.31687 -10.31457 -10.31411
 Alpha  occ. eigenvalues --  -10.29357 -10.28159 -10.28145 -10.28053 -10.27274
 Alpha  occ. eigenvalues --  -10.26963 -10.26920 -10.26694 -10.26597 -10.26562
 Alpha  occ. eigenvalues --  -10.26297 -10.25924 -10.23585 -10.23121  -1.14336
 Alpha  occ. eigenvalues --   -1.14102  -1.13528  -1.12240  -1.10996  -1.10345
 Alpha  occ. eigenvalues --   -1.06604  -1.04664  -1.02981  -1.02980  -1.02214
 Alpha  occ. eigenvalues --   -1.00947  -0.99759  -0.97865  -0.93716  -0.89547
 Alpha  occ. eigenvalues --   -0.88741  -0.87784  -0.86435  -0.83383  -0.83013
 Alpha  occ. eigenvalues --   -0.82213  -0.80936  -0.78026  -0.76214  -0.75293
 Alpha  occ. eigenvalues --   -0.75014  -0.74411  -0.72616  -0.70987  -0.70147
 Alpha  occ. eigenvalues --   -0.69246  -0.68680  -0.68247  -0.67484  -0.66907
 Alpha  occ. eigenvalues --   -0.66425  -0.66089  -0.65887  -0.64458  -0.63362
 Alpha  occ. eigenvalues --   -0.62925  -0.62631  -0.62210  -0.61718  -0.60739
 Alpha  occ. eigenvalues --   -0.60035  -0.58997  -0.58359  -0.57723  -0.57482
 Alpha  occ. eigenvalues --   -0.57267  -0.56038  -0.55135  -0.55035  -0.54383
 Alpha  occ. eigenvalues --   -0.54235  -0.53644  -0.53083  -0.52739  -0.52469
 Alpha  occ. eigenvalues --   -0.51754  -0.51592  -0.51124  -0.50553  -0.50464
 Alpha  occ. eigenvalues --   -0.50020  -0.49831  -0.49439  -0.49192  -0.48874
 Alpha  occ. eigenvalues --   -0.48565  -0.47908  -0.47651  -0.47270  -0.46976
 Alpha  occ. eigenvalues --   -0.46336  -0.45733  -0.45542  -0.45373  -0.44888
 Alpha  occ. eigenvalues --   -0.44146  -0.43792  -0.43651  -0.43539  -0.43112
 Alpha  occ. eigenvalues --   -0.42900  -0.42425  -0.42085  -0.41541  -0.40887
 Alpha  occ. eigenvalues --   -0.39944  -0.39298  -0.39119  -0.37946  -0.37245
 Alpha  occ. eigenvalues --   -0.36575  -0.35998  -0.35801  -0.35587  -0.34587
 Alpha  occ. eigenvalues --   -0.34116  -0.32976  -0.32901  -0.32642  -0.32501
 Alpha  occ. eigenvalues --   -0.32143  -0.31535
 Alpha virt. eigenvalues --   -0.10064  -0.09380  -0.08123  -0.07973  -0.06635
 Alpha virt. eigenvalues --   -0.06355  -0.05398  -0.04927  -0.04586  -0.03982
 Alpha virt. eigenvalues --   -0.02696  -0.02022  -0.00311   0.00299   0.00516
 Alpha virt. eigenvalues --    0.00650   0.01192   0.02441   0.02565   0.02844
 Alpha virt. eigenvalues --    0.03695   0.03972   0.04629   0.04676   0.05193
 Alpha virt. eigenvalues --    0.05437   0.05660   0.05758   0.06288   0.06852
 Alpha virt. eigenvalues --    0.07161   0.07419   0.07521   0.07970   0.08318
 Alpha virt. eigenvalues --    0.08626   0.09109   0.09255   0.09346   0.09692
 Alpha virt. eigenvalues --    0.09787   0.10512   0.10798   0.11313   0.11377
 Alpha virt. eigenvalues --    0.11798   0.11971   0.12322   0.12575   0.12998
 Alpha virt. eigenvalues --    0.13202   0.13586   0.13981   0.14454   0.14666
 Alpha virt. eigenvalues --    0.14965   0.15205   0.16195   0.16630   0.16987
 Alpha virt. eigenvalues --    0.17287   0.18034   0.18544   0.18936   0.19166
 Alpha virt. eigenvalues --    0.19319   0.20183   0.20836   0.21393   0.21568
 Alpha virt. eigenvalues --    0.22619   0.23731   0.24552   0.24945   0.25869
 Alpha virt. eigenvalues --    0.26210   0.26580   0.27204   0.28038   0.28295
 Alpha virt. eigenvalues --    0.30573   0.30628   0.31453   0.32453   0.32807
 Alpha virt. eigenvalues --    0.34352   0.36035   0.37305   0.39314   0.40893
 Alpha virt. eigenvalues --    0.41343   0.41997   0.42307   0.42644   0.43185
 Alpha virt. eigenvalues --    0.43437   0.44134   0.44547   0.44848   0.45130
 Alpha virt. eigenvalues --    0.45729   0.45828   0.45910   0.46384   0.46585
 Alpha virt. eigenvalues --    0.47183   0.47438   0.47679   0.48308   0.48596
 Alpha virt. eigenvalues --    0.49548   0.49631   0.50591   0.51186   0.51376
 Alpha virt. eigenvalues --    0.51676   0.51879   0.52144   0.52259   0.52852
 Alpha virt. eigenvalues --    0.53186   0.53424   0.53823   0.54230   0.54324
 Alpha virt. eigenvalues --    0.54378   0.55155   0.55362   0.55492   0.55824
 Alpha virt. eigenvalues --    0.56908   0.57106   0.57328   0.57628   0.57946
 Alpha virt. eigenvalues --    0.58431   0.58898   0.59287   0.59445   0.60158
 Alpha virt. eigenvalues --    0.60534   0.60854   0.61571   0.61751   0.62523
 Alpha virt. eigenvalues --    0.62876   0.63512   0.64186   0.64881   0.65088
 Alpha virt. eigenvalues --    0.65536   0.66387   0.67041   0.67540   0.67944
 Alpha virt. eigenvalues --    0.68280   0.68742   0.69340   0.70658   0.70836
 Alpha virt. eigenvalues --    0.71594   0.72123   0.72287   0.72963   0.73134
 Alpha virt. eigenvalues --    0.74194   0.74280   0.75074   0.75334   0.75671
 Alpha virt. eigenvalues --    0.75926   0.76086   0.76638   0.76816   0.77017
 Alpha virt. eigenvalues --    0.77381   0.77545   0.78032   0.78308   0.78672
 Alpha virt. eigenvalues --    0.79308   0.79414   0.80216   0.80470   0.80569
 Alpha virt. eigenvalues --    0.81079   0.81188   0.81595   0.82026   0.82390
 Alpha virt. eigenvalues --    0.82578   0.82937   0.83448   0.83502   0.84151
 Alpha virt. eigenvalues --    0.84372   0.84798   0.84958   0.85133   0.85667
 Alpha virt. eigenvalues --    0.86118   0.86324   0.86730   0.87405   0.87489
 Alpha virt. eigenvalues --    0.87945   0.88285   0.88770   0.89289   0.89654
 Alpha virt. eigenvalues --    0.90238   0.90683   0.91422   0.92073   0.92557
 Alpha virt. eigenvalues --    0.93143   0.93588   0.93733   0.94444   0.95398
 Alpha virt. eigenvalues --    0.95654   0.96525   0.97235   0.97995   0.99399
 Alpha virt. eigenvalues --    0.99827   1.00591   1.01015   1.01739   1.02551
 Alpha virt. eigenvalues --    1.03163   1.03969   1.04763   1.05107   1.05643
 Alpha virt. eigenvalues --    1.06692   1.07620   1.08587   1.09151   1.09562
 Alpha virt. eigenvalues --    1.11458   1.11849   1.13228   1.13326   1.13685
 Alpha virt. eigenvalues --    1.15205   1.15543   1.16537   1.16824   1.18620
 Alpha virt. eigenvalues --    1.19206   1.19664   1.20595   1.21413   1.22161
 Alpha virt. eigenvalues --    1.23236   1.23364   1.23706   1.24686   1.26404
 Alpha virt. eigenvalues --    1.26660   1.27315   1.28265   1.28824   1.30552
 Alpha virt. eigenvalues --    1.31226   1.32470   1.33616   1.33788   1.34818
 Alpha virt. eigenvalues --    1.35367   1.35969   1.36383   1.37587   1.38187
 Alpha virt. eigenvalues --    1.38859   1.39668   1.40006   1.40328   1.40415
 Alpha virt. eigenvalues --    1.40824   1.41218   1.43284   1.43323   1.44078
 Alpha virt. eigenvalues --    1.44578   1.44868   1.46365   1.46653   1.47663
 Alpha virt. eigenvalues --    1.49927   1.51927   1.53329   1.53621   1.53840
 Alpha virt. eigenvalues --    1.54377   1.55501   1.56024   1.56782   1.57562
 Alpha virt. eigenvalues --    1.57837   1.58434   1.59210   1.60162   1.60826
 Alpha virt. eigenvalues --    1.61692   1.62964   1.63728   1.64867   1.65484
 Alpha virt. eigenvalues --    1.65911   1.66985   1.67560   1.68949   1.69328
 Alpha virt. eigenvalues --    1.70052   1.70903   1.71352   1.72040   1.72329
 Alpha virt. eigenvalues --    1.72683   1.73193   1.73761   1.74238   1.74472
 Alpha virt. eigenvalues --    1.75293   1.75711   1.76052   1.77194   1.77363
 Alpha virt. eigenvalues --    1.78460   1.78851   1.79493   1.79823   1.80281
 Alpha virt. eigenvalues --    1.80848   1.82214   1.82575   1.82951   1.83465
 Alpha virt. eigenvalues --    1.84074   1.84209   1.84606   1.85676   1.85884
 Alpha virt. eigenvalues --    1.86373   1.86855   1.87394   1.88801   1.89461
 Alpha virt. eigenvalues --    1.89755   1.90617   1.90837   1.91066   1.91410
 Alpha virt. eigenvalues --    1.91818   1.92415   1.92494   1.93957   1.95110
 Alpha virt. eigenvalues --    1.95362   1.96018   1.96255   1.97027   1.97274
 Alpha virt. eigenvalues --    1.98035   1.98885   1.99118   2.00024   2.00877
 Alpha virt. eigenvalues --    2.01427   2.02841   2.03236   2.04253   2.04441
 Alpha virt. eigenvalues --    2.04956   2.05544   2.05788   2.06202   2.06622
 Alpha virt. eigenvalues --    2.07278   2.07514   2.10170   2.10587   2.11331
 Alpha virt. eigenvalues --    2.11527   2.12754   2.13436   2.14266   2.14963
 Alpha virt. eigenvalues --    2.15372   2.16333   2.16538   2.17594   2.18429
 Alpha virt. eigenvalues --    2.18774   2.19575   2.19735   2.20476   2.21468
 Alpha virt. eigenvalues --    2.22275   2.23108   2.23831   2.24785   2.25131
 Alpha virt. eigenvalues --    2.27179   2.27641   2.29161   2.29914   2.30576
 Alpha virt. eigenvalues --    2.32647   2.33134   2.33342   2.34281   2.35747
 Alpha virt. eigenvalues --    2.35842   2.37037   2.37775   2.38461   2.38914
 Alpha virt. eigenvalues --    2.39892   2.41140   2.42318   2.42847   2.44107
 Alpha virt. eigenvalues --    2.45312   2.46103   2.46797   2.47646   2.47820
 Alpha virt. eigenvalues --    2.48734   2.49399   2.49850   2.50891   2.51372
 Alpha virt. eigenvalues --    2.52599   2.53531   2.54234   2.55188   2.56318
 Alpha virt. eigenvalues --    2.57464   2.57927   2.58575   2.59460   2.59748
 Alpha virt. eigenvalues --    2.60232   2.62929   2.63230   2.64344   2.64508
 Alpha virt. eigenvalues --    2.65653   2.66232   2.66759   2.67440   2.68071
 Alpha virt. eigenvalues --    2.69119   2.69810   2.72226   2.74202   2.77694
 Alpha virt. eigenvalues --    2.78555   2.80770   2.81541   2.85961   2.87608
 Alpha virt. eigenvalues --    2.88918   2.90453   2.92527   2.93465   2.94889
 Alpha virt. eigenvalues --    2.95436   2.96260   2.97899   2.98224   2.99756
 Alpha virt. eigenvalues --    3.01912   3.06352   3.07542   3.09329   3.11924
 Alpha virt. eigenvalues --    3.33135   3.67841   3.74186   3.76163   3.81708
 Alpha virt. eigenvalues --    3.90709   3.92466   3.93801   3.96867   4.00336
 Alpha virt. eigenvalues --    4.01925   4.02698   4.04778   4.06864   4.07367
 Alpha virt. eigenvalues --    4.10112   4.11317   4.13968   4.15759   4.18233
 Alpha virt. eigenvalues --    4.21824   4.22593   4.23295   4.25258   4.25915
 Alpha virt. eigenvalues --    4.28603   4.31603   4.33773   4.35787   4.40847
 Alpha virt. eigenvalues --    4.42700   4.44826   4.45692   4.49725   4.54086
 Alpha virt. eigenvalues --    4.56607   4.58257   4.59926   4.63590   4.65949
          Condensed to atoms (all electrons):
 Mulliken charges:
               1
     1  N   -0.767900
     2  C   -0.107596
     3  C    0.672945
     4  O   -0.511768
     5  C   -0.408108
     6  C    0.107033
     7  C   -0.197045
     8  C   -0.182923
     9  C   -0.130842
    10  C   -0.133880
    11  C   -0.128898
    12  H    0.384091
    13  H    0.200838
    14  H    0.158516
    15  H    0.218593
    16  H    0.129349
    17  H    0.194359
    18  H    0.148693
    19  H    0.142290
    20  H    0.147023
    21  H    0.391928
    22  N   -0.622698
    23  C   -0.086690
    24  C    0.652870
    25  O   -0.519120
    26  C   -0.266855
    27  C   -0.082403
    28  C   -0.463891
    29  C   -0.445067
    30  H    0.329582
    31  H    0.217901
    32  H    0.161660
    33  H    0.116287
    34  H    0.138262
    35  H    0.171878
    36  H    0.144190
    37  H    0.155635
    38  H    0.149538
    39  H    0.139258
    40  H    0.157215
    41  N   -0.607459
    42  C   -0.046666
    43  C    0.677012
    44  O   -0.563019
    45  C   -0.406279
    46  C    0.635635
    47  N   -0.755786
    48  O   -0.511299
    49  H    0.317509
    50  H    0.191759
    51  H    0.172905
    52  H    0.189316
    53  H    0.354328
    54  H    0.345914
    55  N   -0.586546
    56  C   -0.053435
    57  C    0.660878
    58  O   -0.618883
    59  C   -0.317619
    60  C   -0.297495
    61  C   -0.163453
    62  N   -0.626439
    63  C    0.794915
    64  N   -0.757393
    65  N   -0.782745
    66  O   -0.601086
    67  H    0.454269
    68  H    0.362998
    69  H    0.157070
    70  H    0.170672
    71  H    0.215569
    72  H    0.174550
    73  H    0.167958
    74  H    0.173434
    75  H    0.163356
    76  H    0.414836
    77  H    0.373428
    78  H    0.381011
    79  H    0.360894
    80  H    0.411139
 Sum of Mulliken charges =   1.00000
 Mulliken charges with hydrogens summed into heavy atoms:
               1
     1  N    0.462388
     2  C    0.093242
     3  C    0.672945
     4  O   -0.511768
     5  C   -0.030999
     6  C    0.107033
     7  C   -0.067696
     8  C    0.011436
     9  C    0.017851
    10  C    0.008410
    11  C    0.018125
    22  N   -0.293116
    23  C    0.131210
    24  C    0.652870
    25  O   -0.519120
    26  C    0.011093
    27  C    0.055859
    28  C    0.007812
    29  C    0.000944
    41  N   -0.289950
    42  C    0.145094
    43  C    0.677012
    44  O   -0.563019
    45  C   -0.044059
    46  C    0.635635
    47  N   -0.055545
    48  O   -0.511299
    55  N   -0.223548
    56  C    0.103635
    57  C    0.660878
    58  O   -0.618883
    59  C    0.068622
    60  C    0.045013
    61  C    0.173338
    62  N   -0.211603
    63  C    0.794915
    64  N   -0.002954
    65  N   -0.010713
    66  O   -0.601086
 Electronic spatial extent (au):  <R**2>=         219560.6317
 Charge=              1.0000 electrons
 Dipole moment (field-independent basis, Debye):
    X=            -18.1630    Y=             63.7280    Z=            -31.4688  Tot=             73.3583
 Quadrupole moment (field-independent basis, Debye-Ang):
   XX=           -152.2869   YY=            757.6653   ZZ=             34.7055
   XY=           -269.2414   XZ=            118.4909   YZ=           -411.1270
 Traceless Quadrupole moment (field-independent basis, Debye-Ang):
   XX=           -365.6482   YY=            544.3040   ZZ=           -178.6558
   XY=           -269.2414   XZ=            118.4909   YZ=           -411.1270
 Octapole moment (field-independent basis, Debye-Ang**2):
  XXX=           1460.1750  YYY=           8952.3119  ZZZ=           2339.3301  XYY=          -3760.8864
  XXY=          -1461.4575  XXZ=           1132.1064  XZZ=           -425.4609  YZZ=            646.5330
  YYZ=          -4848.4764  XYZ=           1743.5867
 Hexadecapole moment (field-independent basis, Debye-Ang**3):
 XXXX=         -17095.4079 YYYY=         109428.8252 ZZZZ=         -50603.1303 XXXY=          17876.8228
 XXXZ=         -10201.4468 YYYX=         -51396.8501 YYYZ=         -57195.0918 ZZZX=          -1782.3547
 ZZZY=          26660.3329 XXYY=         -16175.7212 XXZZ=         -11675.5864 YYZZ=           5365.1867
 XXYZ=          11185.8288 YYXZ=          24751.0140 ZZXY=          -6250.8160
 N-N= 4.938087211849D+03 E-N=-1.419829681452D+04  KE= 1.849257048680D+03
 Unable to Open any file for archive entry.
 1\1\GINC-LAC-310\SP\RB3LYP\6-31G(d)\C25H41N8O6(1+)\KENGMITH\11-Jun-202
 2\0\\# B3LYP/6-31G* empiricaldispersion=gd3 guess=read geom=check nosy
 mm integral(ultrafinegrid)\\Candidate Structure: Conf:962 Charge calc 
 in gas phase\\1,1\N,0,-2.6983407555,11.8589471677,-3.8327890249\C,0,-2
 .4298602812,10.399334894,-4.0327105709\C,0,-0.9864333808,10.3632891342
 ,-4.5916333165\O,0,-0.2177768901,11.2773838351,-4.3235589629\C,0,-3.51
 09241152,9.784431486,-4.950625551\C,0,-4.9101551634,10.2331398693,-4.5
 793057859\C,0,-5.4668897826,9.9051333999,-3.3334819672\C,0,-5.63909723
 54,11.0375338882,-5.4646001742\C,0,-6.7319282037,10.3740705185,-2.9771
 843454\C,0,-6.9060816481,11.5033219003,-5.1066856966\C,0,-7.4534942075
 ,11.1772215905,-3.8649531267\H,0,-3.5977865734,12.010364222,-3.3722121
 626\H,0,-2.4477043339,9.9187867839,-3.0477961455\H,0,-3.4348283068,8.6
 918300933,-4.8635902621\H,0,-3.3058322941,10.0608039574,-5.988699986\H
 ,0,-4.9156386288,9.2677166986,-2.6438850551\H,0,-5.2167683664,11.28021
 29401,-6.4347467521\H,0,-7.1567790319,10.1065163608,-2.0137617491\H,0,
 -7.4644476314,12.1225137681,-5.8031554265\H,0,-8.4398959653,11.5397895
 657,-3.5897478593\H,0,-1.9231348678,12.2705064856,-3.3053038824\N,0,-0
 .669865996,9.2990010488,-5.3739180946\C,0,0.4543459777,9.3352965968,-6
 .3182972278\C,0,-0.0248676496,9.9360369502,-7.6579570193\O,0,0.4906377
 817,10.9326944221,-8.1489506753\C,0,1.0803470948,7.9423227545,-6.47617
 52427\C,0,2.1833279605,7.8539335148,-7.5492675159\C,0,3.3005767113,8.8
 823347557,-7.3173574892\C,0,2.7438346383,6.4257773151,-7.5960286085\H,
 0,-1.3834438385,8.6005064687,-5.5286771602\H,0,1.1747221476,10.0459134
 452,-5.9152621504\H,0,1.4862648948,7.6459953265,-5.5002101905\H,0,0.28
 93245832,7.2156149604,-6.7189245982\H,0,1.7207746258,8.0684190704,-8.5
 238839684\H,0,2.9367542513,9.9088155192,-7.4282469716\H,0,3.7317995868
 ,8.7717326166,-6.3138411417\H,0,4.1085051327,8.7389823847,-8.042962752
 5\H,0,3.2360624949,6.1687339873,-6.6495386614\H,0,1.9537190464,5.68632
 93328,-7.7751385852\H,0,3.4862253701,6.3244861304,-8.3948828167\N,0,-1
 .0520022611,9.264376866,-8.2678419409\C,0,-1.7699885219,9.8591421851,-
 9.3946364962\C,0,-2.7041420452,10.9584886571,-8.8573962875\O,0,-3.8018
 909346,10.6762497142,-8.3714943014\C,0,-2.5832215096,8.7966306369,-10.
 1297045301\C,0,-3.251706331,9.398541336,-11.3678225596\N,0,-3.79994391
 72,8.4963549851,-12.2243200004\O,0,-3.292236261,10.6078616558,-11.5630
 400656\H,0,-1.5513782169,8.5571223601,-7.7463294293\H,0,-1.0258683163,
 10.2929697788,-10.0645299684\H,0,-1.9388919636,7.9533178118,-10.404258
 2392\H,0,-3.3731488403,8.4245400062,-9.4643249921\H,0,-4.284443231,8.8
 414285585,-13.041289536\H,0,-3.774629088,7.5008875035,-12.0625617623\N
 ,0,-2.2177732023,12.2170515551,-8.9384571356\C,0,-2.9974613488,13.3350
 469066,-8.4354111378\C,0,-3.210228856,13.2549516713,-6.8952834583\O,0,
 -4.1170519775,13.967805153,-6.3768140901\C,0,-4.325701476,13.502260924
 2,-9.2308770315\C,0,-4.4664911405,14.7920519096,-10.0664693366\C,0,-4.
 1497475605,16.1193576783,-9.3510815023\N,0,-4.6404097643,16.0962722465
 ,-7.9648208501\C,0,-4.4138234098,17.0566008412,-7.0704389644\N,0,-4.25
 36928395,18.3396433474,-7.4471623333\N,0,-4.328677657,16.7165369429,-5
 .7755356705\O,0,-2.4161742243,12.510774558,-6.2589619149\H,0,-2.680051
 3804,12.3218611745,-4.8641025205\H,0,-1.2149189142,12.3142014662,-9.04
 49938286\H,0,-2.3656508539,14.2202869632,-8.5808808186\H,0,-5.16810629
 79,13.4151792747,-8.5390847999\H,0,-4.4181435793,12.6593993747,-9.9188
 697316\H,0,-3.8101186154,14.741496717,-10.9430054551\H,0,-5.4931014948
 ,14.828234171,-10.4479812926\H,0,-3.0674857312,16.3076272992,-9.339791
 5588\H,0,-4.6157404653,16.9427174043,-9.9048428502\H,0,-4.6720006564,1
 5.1615490607,-7.5139753428\H,0,-4.0078469597,19.0558825822,-6.78049790
 69\H,0,-4.5085170599,18.6367960065,-8.3769027754\H,0,-4.4260844118,17.
 3970647987,-5.0373563269\H,0,-4.2504142564,15.7205906286,-5.5524797445
 \\Version=ES64L-G16RevC.01\HF=-1866.7398806\RMSD=9.512e-10\Dipole=-2.1
 666947,3.491868,1.1374174\Quadrupole=-271.8505043,404.6767176,-132.826
 2134,-200.1743942,88.0950764,-305.66283\PG=C01 [X(C25H41N8O6)]\\@
 The archive entry for this job was punched.


 THE WISE MAN HAS THE POWER TO REASON AWAY
 WHAT A FOOL BELIEVES.
                     - DOOBIE BROTHERS
 Job cpu time:       0 days  0 hours  5 minutes 15.2 seconds.
 Elapsed time:       0 days  0 hours  1 minutes 19.7 seconds.
 File lengths (MBytes):  RWF=    344 Int=      0 D2E=      0 Chk=     48 Scr=     16
 Normal termination of Gaussian 16 at Sat Jun 11 21:07:43 2022.
