 Entering Gaussian System, Link 0=/opt/software/Gaussian/g16-AVX-C.01/g16/g16
 Input=charge-conf-234.com
 Output=charge-conf-234.log
 Initial command:
 /opt/software/Gaussian/g16-AVX-C.01/g16/l1.exe "/mnt/gs18/scratch/users/kengmith/Gau-10602.inp" -scrdir="/mnt/gs18/scratch/users/kengmith/"
 Entering Link 1 = /opt/software/Gaussian/g16-AVX-C.01/g16/l1.exe PID=     10633.
  
 Copyright (c) 1988-2019, Gaussian, Inc.  All Rights Reserved.
  
 This is part of the Gaussian(R) 16 program.  It is based on
 the Gaussian(R) 09 system (copyright 2009, Gaussian, Inc.),
 the Gaussian(R) 03 system (copyright 2003, Gaussian, Inc.),
 the Gaussian(R) 98 system (copyright 1998, Gaussian, Inc.),
 the Gaussian(R) 94 system (copyright 1995, Gaussian, Inc.),
 the Gaussian 92(TM) system (copyright 1992, Gaussian, Inc.),
 the Gaussian 90(TM) system (copyright 1990, Gaussian, Inc.),
 the Gaussian 88(TM) system (copyright 1988, Gaussian, Inc.),
 the Gaussian 86(TM) system (copyright 1986, Carnegie Mellon
 University), and the Gaussian 82(TM) system (copyright 1983,
 Carnegie Mellon University). Gaussian is a federally registered
 trademark of Gaussian, Inc.
  
 This software contains proprietary and confidential information,
 including trade secrets, belonging to Gaussian, Inc.
  
 This software is provided under written license and may be
 used, copied, transmitted, or stored only in accord with that
 written license.
  
 The following legend is applicable only to US Government
 contracts under FAR:
  
                    RESTRICTED RIGHTS LEGEND
  
 Use, reproduction and disclosure by the US Government is
 subject to restrictions as set forth in subparagraphs (a)
 and (c) of the Commercial Computer Software - Restricted
 Rights clause in FAR 52.227-19.
  
 Gaussian, Inc.
 340 Quinnipiac St., Bldg. 40, Wallingford CT 06492
  
  
 ---------------------------------------------------------------
 Warning -- This program may not be used in any manner that
 competes with the business of Gaussian, Inc. or will provide
 assistance to any competitor of Gaussian, Inc.  The licensee
 of this program is prohibited from giving any competitor of
 Gaussian, Inc. access to this program.  By using this program,
 the user acknowledges that Gaussian, Inc. is engaged in the
 business of creating and licensing software in the field of
 computational chemistry and represents and warrants to the
 licensee that it is not a competitor of Gaussian, Inc. and that
 it will not use this program in any manner prohibited above.
 ---------------------------------------------------------------
  

 Cite this work as:
 Gaussian 16, Revision C.01,
 M. J. Frisch, G. W. Trucks, H. B. Schlegel, G. E. Scuseria, 
 M. A. Robb, J. R. Cheeseman, G. Scalmani, V. Barone, 
 G. A. Petersson, H. Nakatsuji, X. Li, M. Caricato, A. V. Marenich, 
 J. Bloino, B. G. Janesko, R. Gomperts, B. Mennucci, H. P. Hratchian, 
 J. V. Ortiz, A. F. Izmaylov, J. L. Sonnenberg, D. Williams-Young, 
 F. Ding, F. Lipparini, F. Egidi, J. Goings, B. Peng, A. Petrone, 
 T. Henderson, D. Ranasinghe, V. G. Zakrzewski, J. Gao, N. Rega, 
 G. Zheng, W. Liang, M. Hada, M. Ehara, K. Toyota, R. Fukuda, 
 J. Hasegawa, M. Ishida, T. Nakajima, Y. Honda, O. Kitao, H. Nakai, 
 T. Vreven, K. Throssell, J. A. Montgomery, Jr., J. E. Peralta, 
 F. Ogliaro, M. J. Bearpark, J. J. Heyd, E. N. Brothers, K. N. Kudin, 
 V. N. Staroverov, T. A. Keith, R. Kobayashi, J. Normand, 
 K. Raghavachari, A. P. Rendell, J. C. Burant, S. S. Iyengar, 
 J. Tomasi, M. Cossi, J. M. Millam, M. Klene, C. Adamo, R. Cammi, 
 J. W. Ochterski, R. L. Martin, K. Morokuma, O. Farkas, 
 J. B. Foresman, and D. J. Fox, Gaussian, Inc., Wallingford CT, 2019.
 
 ******************************************
 Gaussian 16:  ES64L-G16RevC.01  3-Jul-2019
                11-Jun-2022 
 ******************************************
 %mem=8gb
 %nproc=4
 Will use up to    4 processors via shared memory.
 %chk=conf-234.chk
 ----------------------------------------------------------------------
 # B3LYP/6-31G* empiricaldispersion=gd3 guess=read geom=check nosymm in
 tegral(ultrafinegrid)
 ----------------------------------------------------------------------
 1/29=2,38=1,172=1/1;
 2/12=2,15=1,40=1/2;
 3/5=1,6=6,7=1,11=2,14=-4,25=1,30=1,74=-5,75=-5,116=-2,124=31/1,2,3;
 4/5=1/1;
 5/5=2,38=6/2;
 6/7=2,8=2,9=2,10=2,28=1/1;
 99/5=1,9=1/99;
 ------------------------------------------------------
 Candidate Structure: Conf:234 Charge calc in gas phase
 ------------------------------------------------------
 Structure from the checkpoint file:  "conf-234.chk"
 Charge =  1 Multiplicity = 1
 Redundant internal coordinates found in file.  (old form).
 N,0,1.0395155258,11.055551184,-7.4526862258
 C,0,0.3726486948,11.4291111256,-6.222070887
 C,0,-0.6381318346,10.3951478462,-5.7124396499
 O,0,-1.3501644661,9.720456377,-6.4775749892
 C,0,-0.4302970091,12.757083826,-6.3945898658
 C,0,0.3279477862,13.8289068924,-7.1395988057
 C,0,1.3291249462,14.5746288997,-6.5069167023
 C,0,0.0419871019,14.0818681994,-8.4864315215
 C,0,2.0372198344,15.5516550161,-7.2054535754
 C,0,0.7489236564,15.059949797,-9.1874670883
 C,0,1.7485388237,15.7965427421,-8.5501521773
 H,0,0.4091768241,11.123233845,-8.2472561228
 H,0,1.1409107526,11.5873297794,-5.4513535523
 H,0,-0.7053848858,13.1131672787,-5.392154511
 H,0,-1.3635588997,12.5406666712,-6.9248571888
 H,0,1.5565035822,14.3889992284,-5.4588671011
 H,0,-0.7396754547,13.5102573778,-8.982510183
 H,0,2.8110870511,16.1239858367,-6.7013898743
 H,0,0.5173976379,15.2502411501,-10.2324344487
 H,0,2.2977701559,16.5592867588,-9.0950343539
 H,0,1.380623126,10.098294873,-7.4093197948
 N,0,-0.831416136,10.3129546871,-4.3756368622
 C,0,-1.9085455619,9.486376224,-3.821942193
 C,0,-3.2562047847,9.8746427997,-4.4568091022
 O,0,-4.0901494955,9.0252596509,-4.7492383552
 C,0,-1.9685472605,9.6072271202,-2.2919992046
 C,0,-0.7074375937,9.1401292427,-1.5355914427
 C,0,-0.9152874985,9.3384093653,-0.0268554145
 C,0,-0.3431068471,7.6834920922,-1.8535963792
 H,0,-0.1876814714,10.7766221445,-3.7483372814
 H,0,-1.7547044296,8.4465824022,-4.1199938336
 H,0,-2.1945287283,10.6497244461,-2.0275081237
 H,0,-2.8258263708,9.009027767,-1.9590171376
 H,0,0.1425897855,9.7751160606,-1.8349381959
 H,0,-1.7388570191,8.7108987781,0.3357163882
 H,0,-0.0145392936,9.0624427631,0.5315659609
 H,0,-1.1562056815,10.3805441342,0.2139156518
 H,0,0.5180023658,7.3630164823,-1.2576960698
 H,0,-1.1800922679,7.0142793878,-1.6181938994
 H,0,-0.0833387485,7.5403580378,-2.9083446514
 N,0,-3.4686394003,11.2168659293,-4.6265902049
 C,0,-4.5779114291,11.6777888543,-5.4566332714
 C,0,-4.1775191666,11.5886129648,-6.9405427465
 O,0,-3.7987296499,12.562429702,-7.5904663251
 C,0,-5.0026167977,13.1005847227,-5.1171586806
 C,0,-6.2645496188,13.454950333,-5.9108913987
 N,0,-6.7610227923,14.6985620736,-5.6820895779
 O,0,-6.7844382585,12.6648267711,-6.6916954688
 H,0,-2.66596225,11.828804951,-4.548600819
 H,0,-5.4116007709,10.9968877141,-5.279738607
 H,0,-5.1947198919,13.1826828201,-4.041134569
 H,0,-4.2067290816,13.8080888334,-5.3787181901
 H,0,-7.6003101192,14.9805645194,-6.1688881296
 H,0,-6.3396656613,15.3440837903,-5.0311995249
 N,0,-4.2061607342,10.33865383,-7.4737093714
 C,0,-4.0956296963,10.1615581271,-8.9125725283
 C,0,-2.8524645231,10.9008395292,-9.4609370091
 O,0,-2.8920720557,11.5877701948,-10.478001058
 C,0,-5.4059044184,10.5755958155,-9.6164602585
 C,0,-5.5612778212,10.0674269194,-11.0740079372
 C,0,-6.0005175144,11.159942926,-12.0630156192
 N,0,-4.9234551561,12.1603319614,-12.1747189804
 C,0,-4.2112359545,12.421170541,-13.2693912933
 N,0,-4.7824755701,12.4101084857,-14.4889220866
 N,0,-2.9053571413,12.7011536243,-13.1443320353
 O,0,-1.6960436674,10.6760475837,-8.8772480918
 H,0,-1.7142216698,10.2111274275,-7.9811531328
 H,0,-4.4690792018,9.5584216663,-6.879968732
 H,0,-3.9012434427,9.0951376471,-9.085805199
 H,0,-5.484187907,11.6661662262,-9.5446773999
 H,0,-6.2260288703,10.1910545603,-9.0041620117
 H,0,-4.6195033942,9.6411642385,-11.4404945733
 H,0,-6.3031816853,9.2625075837,-11.1106276572
 H,0,-6.1967626012,10.7296767078,-13.0499000576
 H,0,-6.9152896319,11.6531637828,-11.7175799036
 H,0,-4.3557601507,12.21750699,-11.3220702
 H,0,-4.2254744024,12.458130442,-15.3292141781
 H,0,-5.7848338405,12.4781144311,-14.5852636959
 H,0,-2.4002465556,13.2085322722,-13.855973374
 H,0,-2.4408898772,12.4850063568,-12.2639582279
 Recover connectivity data from disk.
                           ----------------------------
                           !    Current Parameters    !
                           ! (Angstroms and Degrees)  !
 --------------------------                            --------------------------
 ! Name  Definition              Value                                          !
 --------------------------------------------------------------------------------
 ! R1    R(1,2)                  1.4487                                         !
 ! R2    R(1,12)                 1.0165                                         !
 ! R3    R(1,21)                 1.0171                                         !
 ! R4    R(2,3)                  1.5331                                         !
 ! R5    R(2,5)                  1.5614                                         !
 ! R6    R(2,13)                 1.0997                                         !
 ! R7    R(3,4)                  1.244                                          !
 ! R8    R(3,22)                 1.3532                                         !
 ! R9    R(5,6)                  1.5096                                         !
 ! R10   R(5,14)                 1.0988                                         !
 ! R11   R(5,15)                 1.095                                          !
 ! R12   R(6,7)                  1.3996                                         !
 ! R13   R(6,8)                  1.3999                                         !
 ! R14   R(7,9)                  1.3942                                         !
 ! R15   R(7,16)                 1.0884                                         !
 ! R16   R(8,10)                 1.3957                                         !
 ! R17   R(8,17)                 1.088                                          !
 ! R18   R(9,11)                 1.397                                          !
 ! R19   R(9,18)                 1.0865                                         !
 ! R20   R(10,11)                1.3957                                         !
 ! R21   R(10,19)                1.0871                                         !
 ! R22   R(11,20)                1.0864                                         !
 ! R23   R(22,23)                1.4663                                         !
 ! R24   R(22,30)                1.0114                                         !
 ! R25   R(23,24)                1.5395                                         !
 ! R26   R(23,26)                1.5359                                         !
 ! R27   R(23,31)                1.0926                                         !
 ! R28   R(24,25)                1.2257                                         !
 ! R29   R(24,41)                1.3695                                         !
 ! R30   R(26,27)                1.543                                          !
 ! R31   R(26,32)                1.099                                          !
 ! R32   R(26,33)                1.0971                                         !
 ! R33   R(27,28)                1.5358                                         !
 ! R34   R(27,29)                1.5348                                         !
 ! R35   R(27,34)                1.1024                                         !
 ! R36   R(28,35)                1.097                                          !
 ! R37   R(28,36)                1.0951                                         !
 ! R38   R(28,37)                1.0964                                         !
 ! R39   R(29,38)                1.0951                                         !
 ! R40   R(29,39)                1.0972                                         !
 ! R41   R(29,40)                1.0957                                         !
 ! R42   R(41,42)                1.4601                                         !
 ! R43   R(41,49)                1.0123                                         !
 ! R44   R(42,43)                1.5396                                         !
 ! R45   R(42,45)                1.5231                                         !
 ! R46   R(42,50)                1.0909                                         !
 ! R47   R(43,44)                1.2305                                         !
 ! R48   R(43,55)                1.3592                                         !
 ! R49   R(45,46)                1.5323                                         !
 ! R50   R(45,51)                1.0961                                         !
 ! R51   R(45,52)                1.0965                                         !
 ! R52   R(46,47)                1.3585                                         !
 ! R53   R(46,48)                1.2265                                         !
 ! R54   R(47,53)                1.0104                                         !
 ! R55   R(47,54)                1.0089                                         !
 ! R56   R(55,56)                1.4539                                         !
 ! R57   R(55,68)                1.0151                                         !
 ! R58   R(56,57)                1.5468                                         !
 ! R59   R(56,59)                1.5439                                         !
 ! R60   R(56,69)                1.0977                                         !
 ! R61   R(57,58)                1.228                                          !
 ! R62   R(57,66)                1.3147                                         !
 ! R63   R(59,60)                1.5514                                         !
 ! R64   R(59,70)                1.0957                                         !
 ! R65   R(59,71)                1.0933                                         !
 ! R66   R(60,61)                1.5377                                         !
 ! R67   R(60,72)                1.0968                                         !
 ! R68   R(60,73)                1.0953                                         !
 ! R69   R(61,62)                1.4742                                         !
 ! R70   R(61,74)                1.0943                                         !
 ! R71   R(61,75)                1.0952                                         !
 ! R72   R(62,63)                1.3318                                         !
 ! R73   R(62,76)                1.0259                                         !
 ! R74   R(63,64)                1.3467                                         !
 ! R75   R(63,65)                1.3414                                         !
 ! R76   R(64,77)                1.0093                                         !
 ! R77   R(64,78)                1.0093                                         !
 ! R78   R(65,79)                1.0095                                         !
 ! R79   R(65,80)                1.0186                                         !
 ! R80   R(66,67)                1.0097                                         !
 ! A1    A(2,1,12)             111.1857                                         !
 ! A2    A(2,1,21)             111.1517                                         !
 ! A3    A(12,1,21)            107.6952                                         !
 ! A4    A(1,2,3)              114.328                                          !
 ! A5    A(1,2,5)              111.2338                                         !
 ! A6    A(1,2,13)             108.1115                                         !
 ! A7    A(3,2,5)              105.7403                                         !
 ! A8    A(3,2,13)             108.945                                          !
 ! A9    A(5,2,13)             108.3208                                         !
 ! A10   A(2,3,4)              122.5928                                         !
 ! A11   A(2,3,22)             117.6143                                         !
 ! A12   A(4,3,22)             119.531                                          !
 ! A13   A(2,5,6)              113.5844                                         !
 ! A14   A(2,5,14)             107.6717                                         !
 ! A15   A(2,5,15)             108.8871                                         !
 ! A16   A(6,5,14)             110.237                                          !
 ! A17   A(6,5,15)             109.2348                                         !
 ! A18   A(14,5,15)            107.006                                          !
 ! A19   A(5,6,7)              120.9665                                         !
 ! A20   A(5,6,8)              120.034                                          !
 ! A21   A(7,6,8)              118.9973                                         !
 ! A22   A(6,7,9)              120.6772                                         !
 ! A23   A(6,7,16)             119.596                                          !
 ! A24   A(9,7,16)             119.7268                                         !
 ! A25   A(6,8,10)             120.4259                                         !
 ! A26   A(6,8,17)             119.3718                                         !
 ! A27   A(10,8,17)            120.2022                                         !
 ! A28   A(7,9,11)             120.0105                                         !
 ! A29   A(7,9,18)             119.8957                                         !
 ! A30   A(11,9,18)            120.0935                                         !
 ! A31   A(8,10,11)            120.2168                                         !
 ! A32   A(8,10,19)            119.8432                                         !
 ! A33   A(11,10,19)           119.9397                                         !
 ! A34   A(9,11,10)            119.6718                                         !
 ! A35   A(9,11,20)            120.0908                                         !
 ! A36   A(10,11,20)           120.2371                                         !
 ! A37   A(3,22,23)            120.8108                                         !
 ! A38   A(3,22,30)            119.6016                                         !
 ! A39   A(23,22,30)           119.4582                                         !
 ! A40   A(22,23,24)           110.1918                                         !
 ! A41   A(22,23,26)           111.1307                                         !
 ! A42   A(22,23,31)           109.2716                                         !
 ! A43   A(24,23,26)           110.9009                                         !
 ! A44   A(24,23,31)           104.5243                                         !
 ! A45   A(26,23,31)           110.6179                                         !
 ! A46   A(23,24,25)           121.279                                          !
 ! A47   A(23,24,41)           115.7281                                         !
 ! A48   A(25,24,41)           122.9593                                         !
 ! A49   A(23,26,27)           115.6317                                         !
 ! A50   A(23,26,32)           108.8084                                         !
 ! A51   A(23,26,33)           106.8555                                         !
 ! A52   A(27,26,32)           109.709                                          !
 ! A53   A(27,26,33)           108.954                                          !
 ! A54   A(32,26,33)           106.469                                          !
 ! A55   A(26,27,28)           109.3832                                         !
 ! A56   A(26,27,29)           112.3183                                         !
 ! A57   A(26,27,34)           108.8274                                         !
 ! A58   A(28,27,29)           110.989                                          !
 ! A59   A(28,27,34)           107.2612                                         !
 ! A60   A(29,27,34)           107.9001                                         !
 ! A61   A(27,28,35)           110.6353                                         !
 ! A62   A(27,28,36)           110.9201                                         !
 ! A63   A(27,28,37)           111.6035                                         !
 ! A64   A(35,28,36)           107.746                                          !
 ! A65   A(35,28,37)           107.8279                                         !
 ! A66   A(36,28,37)           107.9555                                         !
 ! A67   A(27,29,38)           110.5877                                         !
 ! A68   A(27,29,39)           110.6913                                         !
 ! A69   A(27,29,40)           112.3165                                         !
 ! A70   A(38,29,39)           107.7341                                         !
 ! A71   A(38,29,40)           107.4075                                         !
 ! A72   A(39,29,40)           107.9222                                         !
 ! A73   A(24,41,42)           119.849                                          !
 ! A74   A(24,41,49)           117.3804                                         !
 ! A75   A(42,41,49)           117.0874                                         !
 ! A76   A(41,42,43)           109.3943                                         !
 ! A77   A(41,42,45)           112.3346                                         !
 ! A78   A(41,42,50)           106.9413                                         !
 ! A79   A(43,42,45)           109.9649                                         !
 ! A80   A(43,42,50)           108.5967                                         !
 ! A81   A(45,42,50)           109.5012                                         !
 ! A82   A(42,43,44)           122.9079                                         !
 ! A83   A(42,43,55)           115.2055                                         !
 ! A84   A(44,43,55)           121.8079                                         !
 ! A85   A(42,45,46)           109.2812                                         !
 ! A86   A(42,45,51)           109.7322                                         !
 ! A87   A(42,45,52)           110.3136                                         !
 ! A88   A(46,45,51)           110.2942                                         !
 ! A89   A(46,45,52)           108.9635                                         !
 ! A90   A(51,45,52)           108.2423                                         !
 ! A91   A(45,46,47)           115.1785                                         !
 ! A92   A(45,46,48)           121.9967                                         !
 ! A93   A(47,46,48)           122.8245                                         !
 ! A94   A(46,47,53)           118.5506                                         !
 ! A95   A(46,47,54)           122.8033                                         !
 ! A96   A(53,47,54)           118.6304                                         !
 ! A97   A(43,55,56)           119.9078                                         !
 ! A98   A(43,55,68)           118.8726                                         !
 ! A99   A(56,55,68)           120.326                                          !
 ! A100  A(55,56,57)           110.7149                                         !
 ! A101  A(55,56,59)           110.7323                                         !
 ! A102  A(55,56,69)           106.7361                                         !
 ! A103  A(57,56,59)           113.0956                                         !
 ! A104  A(57,56,69)           105.4284                                         !
 ! A105  A(59,56,69)           109.807                                          !
 ! A106  A(56,57,58)           122.3482                                         !
 ! A107  A(56,57,66)           117.8918                                         !
 ! A108  A(58,57,66)           119.4545                                         !
 ! A109  A(56,59,60)           115.1812                                         !
 ! A110  A(56,59,70)           107.318                                          !
 ! A111  A(56,59,71)           106.6756                                         !
 ! A112  A(60,59,70)           112.3589                                         !
 ! A113  A(60,59,71)           109.6224                                         !
 ! A114  A(70,59,71)           105.0569                                         !
 ! A115  A(59,60,61)           113.5868                                         !
 ! A116  A(59,60,72)           110.8081                                         !
 ! A117  A(59,60,73)           109.8749                                         !
 ! A118  A(61,60,72)           107.8473                                         !
 ! A119  A(61,60,73)           107.8865                                         !
 ! A120  A(72,60,73)           106.5492                                         !
 ! A121  A(60,61,62)           108.7936                                         !
 ! A122  A(60,61,74)           110.6028                                         !
 ! A123  A(60,61,75)           110.8358                                         !
 ! A124  A(62,61,74)           109.2378                                         !
 ! A125  A(62,61,75)           109.1804                                         !
 ! A126  A(74,61,75)           108.1633                                         !
 ! A127  A(61,62,63)           125.8672                                         !
 ! A128  A(61,62,76)           112.2789                                         !
 ! A129  A(63,62,76)           112.1042                                         !
 ! A130  A(62,63,64)           121.0565                                         !
 ! A131  A(62,63,65)           119.0046                                         !
 ! A132  A(64,63,65)           119.9388                                         !
 ! A133  A(63,64,77)           121.2952                                         !
 ! A134  A(63,64,78)           120.4741                                         !
 ! A135  A(77,64,78)           117.7374                                         !
 ! A136  A(63,65,79)           121.7567                                         !
 ! A137  A(63,65,80)           118.699                                          !
 ! A138  A(79,65,80)           119.1967                                         !
 ! A139  A(57,66,67)           117.1876                                         !
 ! D1    D(12,1,2,3)            72.6778                                         !
 ! D2    D(12,1,2,5)           -46.9963                                         !
 ! D3    D(12,1,2,13)         -165.8056                                         !
 ! D4    D(21,1,2,3)           -47.2887                                         !
 ! D5    D(21,1,2,5)          -166.9628                                         !
 ! D6    D(21,1,2,13)           74.2279                                         !
 ! D7    D(1,2,3,4)            -36.0431                                         !
 ! D8    D(1,2,3,22)           149.8702                                         !
 ! D9    D(5,2,3,4)             86.6664                                         !
 ! D10   D(5,2,3,22)           -87.4204                                         !
 ! D11   D(13,2,3,4)          -157.1                                            !
 ! D12   D(13,2,3,22)           28.8133                                         !
 ! D13   D(1,2,5,6)            -44.2142                                         !
 ! D14   D(1,2,5,14)          -166.5724                                         !
 ! D15   D(1,2,5,15)            77.7426                                         !
 ! D16   D(3,2,5,6)           -168.8736                                         !
 ! D17   D(3,2,5,14)            68.7683                                         !
 ! D18   D(3,2,5,15)           -46.9168                                         !
 ! D19   D(13,2,5,6)            74.4696                                         !
 ! D20   D(13,2,5,14)          -47.8885                                         !
 ! D21   D(13,2,5,15)         -163.5736                                         !
 ! D22   D(2,3,22,23)          171.4653                                         !
 ! D23   D(2,3,22,30)          -12.6935                                         !
 ! D24   D(4,3,22,23)           -2.8095                                         !
 ! D25   D(4,3,22,30)          173.0317                                         !
 ! D26   D(2,5,6,7)            -77.4684                                         !
 ! D27   D(2,5,6,8)            101.9864                                         !
 ! D28   D(14,5,6,7)            43.4599                                         !
 ! D29   D(14,5,6,8)          -137.0853                                         !
 ! D30   D(15,5,6,7)           160.7681                                         !
 ! D31   D(15,5,6,8)           -19.7771                                         !
 ! D32   D(5,6,7,9)            179.1896                                         !
 ! D33   D(5,6,7,16)            -0.8025                                         !
 ! D34   D(8,6,7,9)             -0.2707                                         !
 ! D35   D(8,6,7,16)           179.7372                                         !
 ! D36   D(5,6,8,10)          -179.2351                                         !
 ! D37   D(5,6,8,17)             0.9364                                         !
 ! D38   D(7,6,8,10)             0.2304                                         !
 ! D39   D(7,6,8,17)          -179.5981                                         !
 ! D40   D(6,7,9,11)             0.1271                                         !
 ! D41   D(6,7,9,18)           179.9245                                         !
 ! D42   D(16,7,9,11)         -179.8808                                         !
 ! D43   D(16,7,9,18)           -0.0834                                         !
 ! D44   D(6,8,10,11)           -0.0473                                         !
 ! D45   D(6,8,10,19)         -179.8513                                         !
 ! D46   D(17,8,10,11)         179.7799                                         !
 ! D47   D(17,8,10,19)          -0.0241                                         !
 ! D48   D(7,9,11,10)            0.0598                                         !
 ! D49   D(7,9,11,20)          179.8454                                         !
 ! D50   D(18,9,11,10)        -179.7372                                         !
 ! D51   D(18,9,11,20)           0.0484                                         !
 ! D52   D(8,10,11,9)           -0.0994                                         !
 ! D53   D(8,10,11,20)        -179.8847                                         !
 ! D54   D(19,10,11,9)         179.7044                                         !
 ! D55   D(19,10,11,20)         -0.0809                                         !
 ! D56   D(3,22,23,24)         -53.9413                                         !
 ! D57   D(3,22,23,26)        -177.2844                                         !
 ! D58   D(3,22,23,31)          60.3678                                         !
 ! D59   D(30,22,23,24)        130.2116                                         !
 ! D60   D(30,22,23,26)          6.8685                                         !
 ! D61   D(30,22,23,31)       -115.4793                                         !
 ! D62   D(22,23,24,25)        140.7458                                         !
 ! D63   D(22,23,24,41)        -41.2999                                         !
 ! D64   D(26,23,24,25)        -95.7773                                         !
 ! D65   D(26,23,24,41)         82.177                                          !
 ! D66   D(31,23,24,25)         23.4526                                         !
 ! D67   D(31,23,24,41)       -158.5931                                         !
 ! D68   D(22,23,26,27)        -61.5541                                         !
 ! D69   D(22,23,26,32)         62.4028                                         !
 ! D70   D(22,23,26,33)        176.9928                                         !
 ! D71   D(24,23,26,27)        175.51                                           !
 ! D72   D(24,23,26,32)        -60.5332                                         !
 ! D73   D(24,23,26,33)         54.0569                                         !
 ! D74   D(31,23,26,27)         60.0105                                         !
 ! D75   D(31,23,26,32)       -176.0326                                         !
 ! D76   D(31,23,26,33)        -61.4426                                         !
 ! D77   D(23,24,41,42)        167.5745                                         !
 ! D78   D(23,24,41,49)         14.8978                                         !
 ! D79   D(25,24,41,42)        -14.5092                                         !
 ! D80   D(25,24,41,49)       -167.1859                                         !
 ! D81   D(23,26,27,28)        179.3267                                         !
 ! D82   D(23,26,27,29)        -56.9705                                         !
 ! D83   D(23,26,27,34)         62.4355                                         !
 ! D84   D(32,26,27,28)         55.8413                                         !
 ! D85   D(32,26,27,29)        179.5441                                         !
 ! D86   D(32,26,27,34)        -61.0499                                         !
 ! D87   D(33,26,27,28)        -60.3537                                         !
 ! D88   D(33,26,27,29)         63.3491                                         !
 ! D89   D(33,26,27,34)       -177.2449                                         !
 ! D90   D(26,27,28,35)         63.3938                                         !
 ! D91   D(26,27,28,36)       -177.0925                                         !
 ! D92   D(26,27,28,37)        -56.6717                                         !
 ! D93   D(29,27,28,35)        -61.0887                                         !
 ! D94   D(29,27,28,36)         58.425                                          !
 ! D95   D(29,27,28,37)        178.8458                                         !
 ! D96   D(34,27,28,35)       -178.7299                                         !
 ! D97   D(34,27,28,36)        -59.2162                                         !
 ! D98   D(34,27,28,37)         61.2046                                         !
 ! D99   D(26,27,29,38)       -176.5949                                         !
 ! D100  D(26,27,29,39)        -57.2748                                         !
 ! D101  D(26,27,29,40)         63.4294                                         !
 ! D102  D(28,27,29,38)        -53.7925                                         !
 ! D103  D(28,27,29,39)         65.5276                                         !
 ! D104  D(28,27,29,40)       -173.7682                                         !
 ! D105  D(34,27,29,38)         63.459                                          !
 ! D106  D(34,27,29,39)       -177.2209                                         !
 ! D107  D(34,27,29,40)        -56.5168                                         !
 ! D108  D(24,41,42,43)        -79.9411                                         !
 ! D109  D(24,41,42,45)        157.6488                                         !
 ! D110  D(24,41,42,50)         37.4887                                         !
 ! D111  D(49,41,42,43)         72.8134                                         !
 ! D112  D(49,41,42,45)        -49.5967                                         !
 ! D113  D(49,41,42,50)       -169.7567                                         !
 ! D114  D(41,42,43,44)        -99.8744                                         !
 ! D115  D(41,42,43,55)         76.9495                                         !
 ! D116  D(45,42,43,44)         23.9414                                         !
 ! D117  D(45,42,43,55)       -159.2347                                         !
 ! D118  D(50,42,43,44)        143.7412                                         !
 ! D119  D(50,42,43,55)        -39.435                                          !
 ! D120  D(41,42,45,46)       -173.5922                                         !
 ! D121  D(41,42,45,51)        -52.5378                                         !
 ! D122  D(41,42,45,52)         66.632                                          !
 ! D123  D(43,42,45,46)         64.3212                                         !
 ! D124  D(43,42,45,51)       -174.6244                                         !
 ! D125  D(43,42,45,52)        -55.4546                                         !
 ! D126  D(50,42,45,46)        -54.927                                          !
 ! D127  D(50,42,45,51)         66.1274                                         !
 ! D128  D(50,42,45,52)       -174.7029                                         !
 ! D129  D(42,43,55,56)        168.4275                                         !
 ! D130  D(42,43,55,68)         -0.7906                                         !
 ! D131  D(44,43,55,56)        -14.7102                                         !
 ! D132  D(44,43,55,68)        176.0717                                         !
 ! D133  D(42,45,46,47)        179.0524                                         !
 ! D134  D(42,45,46,48)         -0.7477                                         !
 ! D135  D(51,45,46,47)         58.3402                                         !
 ! D136  D(51,45,46,48)       -121.4598                                         !
 ! D137  D(52,45,46,47)        -60.3437                                         !
 ! D138  D(52,45,46,48)        119.8563                                         !
 ! D139  D(45,46,47,53)       -179.1214                                         !
 ! D140  D(45,46,47,54)         -0.5781                                         !
 ! D141  D(48,46,47,53)          0.6768                                         !
 ! D142  D(48,46,47,54)        179.2201                                         !
 ! D143  D(43,55,56,57)         52.4843                                         !
 ! D144  D(43,55,56,59)        -73.7832                                         !
 ! D145  D(43,55,56,69)        166.7341                                         !
 ! D146  D(68,55,56,57)       -138.4561                                         !
 ! D147  D(68,55,56,59)         95.2764                                         !
 ! D148  D(68,55,56,69)        -24.2062                                         !
 ! D149  D(55,56,57,58)       -135.1102                                         !
 ! D150  D(55,56,57,66)         51.2778                                         !
 ! D151  D(59,56,57,58)        -10.1706                                         !
 ! D152  D(59,56,57,66)        176.2174                                         !
 ! D153  D(69,56,57,58)        109.8188                                         !
 ! D154  D(69,56,57,66)        -63.7932                                         !
 ! D155  D(55,56,59,60)       -163.4821                                         !
 ! D156  D(55,56,59,70)         70.5794                                         !
 ! D157  D(55,56,59,71)        -41.5972                                         !
 ! D158  D(57,56,59,60)         71.5877                                         !
 ! D159  D(57,56,59,70)        -54.3508                                         !
 ! D160  D(57,56,59,71)       -166.5274                                         !
 ! D161  D(69,56,59,60)        -45.8632                                         !
 ! D162  D(69,56,59,70)       -171.8018                                         !
 ! D163  D(69,56,59,71)         76.0216                                         !
 ! D164  D(56,57,66,67)        -13.9776                                         !
 ! D165  D(58,57,66,67)        172.2194                                         !
 ! D166  D(56,59,60,61)       -132.0889                                         !
 ! D167  D(56,59,60,72)        -10.5095                                         !
 ! D168  D(56,59,60,73)        106.9675                                         !
 ! D169  D(70,59,60,61)         -8.7859                                         !
 ! D170  D(70,59,60,72)        112.7935                                         !
 ! D171  D(70,59,60,73)       -129.7295                                         !
 ! D172  D(71,59,60,61)        107.6288                                         !
 ! D173  D(71,59,60,72)       -130.7918                                         !
 ! D174  D(71,59,60,73)        -13.3148                                         !
 ! D175  D(59,60,61,62)         65.9794                                         !
 ! D176  D(59,60,61,74)       -174.0367                                         !
 ! D177  D(59,60,61,75)        -54.0763                                         !
 ! D178  D(72,60,61,62)        -57.2368                                         !
 ! D179  D(72,60,61,74)         62.7471                                         !
 ! D180  D(72,60,61,75)       -177.2925                                         !
 ! D181  D(73,60,61,62)       -171.9672                                         !
 ! D182  D(73,60,61,74)        -51.9833                                         !
 ! D183  D(73,60,61,75)         67.9771                                         !
 ! D184  D(60,61,62,63)        115.1707                                         !
 ! D185  D(60,61,62,76)        -27.7705                                         !
 ! D186  D(74,61,62,63)         -5.6562                                         !
 ! D187  D(74,61,62,76)       -148.5975                                         !
 ! D188  D(75,61,62,63)       -123.7528                                         !
 ! D189  D(75,61,62,76)         93.3059                                         !
 ! D190  D(61,62,63,64)         37.7223                                         !
 ! D191  D(61,62,63,65)       -142.4271                                         !
 ! D192  D(76,62,63,64)       -179.2827                                         !
 ! D193  D(76,62,63,65)          0.5679                                         !
 ! D194  D(62,63,64,77)       -169.9704                                         !
 ! D195  D(62,63,64,78)         18.2703                                         !
 ! D196  D(65,63,64,77)         10.1803                                         !
 ! D197  D(65,63,64,78)       -161.5789                                         !
 ! D198  D(62,63,65,79)       -158.168                                          !
 ! D199  D(62,63,65,80)         15.0056                                         !
 ! D200  D(64,63,65,79)         21.6843                                         !
 ! D201  D(64,63,65,80)       -165.142                                          !
 --------------------------------------------------------------------------------
 Symmetry turned off by external request.
 Stoichiometry    C25H41N8O6(1+)
 Framework group  C1[X(C25H41N8O6)]
 Deg. of freedom   234
 Full point group                 C1      NOp   1
                          Input orientation:                          
 ---------------------------------------------------------------------
 Center     Atomic      Atomic             Coordinates (Angstroms)
 Number     Number       Type             X           Y           Z
 ---------------------------------------------------------------------
      1          7           0        1.039516   11.055551   -7.452686
      2          6           0        0.372649   11.429111   -6.222071
      3          6           0       -0.638132   10.395148   -5.712440
      4          8           0       -1.350164    9.720456   -6.477575
      5          6           0       -0.430297   12.757084   -6.394590
      6          6           0        0.327948   13.828907   -7.139599
      7          6           0        1.329125   14.574629   -6.506917
      8          6           0        0.041987   14.081868   -8.486432
      9          6           0        2.037220   15.551655   -7.205454
     10          6           0        0.748924   15.059950   -9.187467
     11          6           0        1.748539   15.796543   -8.550152
     12          1           0        0.409177   11.123234   -8.247256
     13          1           0        1.140911   11.587330   -5.451354
     14          1           0       -0.705385   13.113167   -5.392155
     15          1           0       -1.363559   12.540667   -6.924857
     16          1           0        1.556504   14.388999   -5.458867
     17          1           0       -0.739675   13.510257   -8.982510
     18          1           0        2.811087   16.123986   -6.701390
     19          1           0        0.517398   15.250241  -10.232434
     20          1           0        2.297770   16.559287   -9.095034
     21          1           0        1.380623   10.098295   -7.409320
     22          7           0       -0.831416   10.312955   -4.375637
     23          6           0       -1.908546    9.486376   -3.821942
     24          6           0       -3.256205    9.874643   -4.456809
     25          8           0       -4.090149    9.025260   -4.749238
     26          6           0       -1.968547    9.607227   -2.291999
     27          6           0       -0.707438    9.140129   -1.535591
     28          6           0       -0.915287    9.338409   -0.026855
     29          6           0       -0.343107    7.683492   -1.853596
     30          1           0       -0.187681   10.776622   -3.748337
     31          1           0       -1.754704    8.446582   -4.119994
     32          1           0       -2.194529   10.649724   -2.027508
     33          1           0       -2.825826    9.009028   -1.959017
     34          1           0        0.142590    9.775116   -1.834938
     35          1           0       -1.738857    8.710899    0.335716
     36          1           0       -0.014539    9.062443    0.531566
     37          1           0       -1.156206   10.380544    0.213916
     38          1           0        0.518002    7.363016   -1.257696
     39          1           0       -1.180092    7.014279   -1.618194
     40          1           0       -0.083339    7.540358   -2.908345
     41          7           0       -3.468639   11.216866   -4.626590
     42          6           0       -4.577911   11.677789   -5.456633
     43          6           0       -4.177519   11.588613   -6.940543
     44          8           0       -3.798730   12.562430   -7.590466
     45          6           0       -5.002617   13.100585   -5.117159
     46          6           0       -6.264550   13.454950   -5.910891
     47          7           0       -6.761023   14.698562   -5.682090
     48          8           0       -6.784438   12.664827   -6.691695
     49          1           0       -2.665962   11.828805   -4.548601
     50          1           0       -5.411601   10.996888   -5.279739
     51          1           0       -5.194720   13.182683   -4.041135
     52          1           0       -4.206729   13.808089   -5.378718
     53          1           0       -7.600310   14.980565   -6.168888
     54          1           0       -6.339666   15.344084   -5.031200
     55          7           0       -4.206161   10.338654   -7.473709
     56          6           0       -4.095630   10.161558   -8.912573
     57          6           0       -2.852465   10.900840   -9.460937
     58          8           0       -2.892072   11.587770  -10.478001
     59          6           0       -5.405904   10.575596   -9.616460
     60          6           0       -5.561278   10.067427  -11.074008
     61          6           0       -6.000518   11.159943  -12.063016
     62          7           0       -4.923455   12.160332  -12.174719
     63          6           0       -4.211236   12.421171  -13.269391
     64          7           0       -4.782476   12.410108  -14.488922
     65          7           0       -2.905357   12.701154  -13.144332
     66          8           0       -1.696044   10.676048   -8.877248
     67          1           0       -1.714222   10.211127   -7.981153
     68          1           0       -4.469079    9.558422   -6.879969
     69          1           0       -3.901243    9.095138   -9.085805
     70          1           0       -5.484188   11.666166   -9.544677
     71          1           0       -6.226029   10.191055   -9.004162
     72          1           0       -4.619503    9.641164  -11.440495
     73          1           0       -6.303182    9.262508  -11.110628
     74          1           0       -6.196763   10.729677  -13.049900
     75          1           0       -6.915290   11.653164  -11.717580
     76          1           0       -4.355760   12.217507  -11.322070
     77          1           0       -4.225474   12.458130  -15.329214
     78          1           0       -5.784834   12.478114  -14.585264
     79          1           0       -2.400247   13.208532  -13.855973
     80          1           0       -2.440890   12.485006  -12.263958
 ---------------------------------------------------------------------
 Rotational constants (GHZ):           0.1069713           0.0610807           0.0498663
 Standard basis: 6-31G(d) (6D, 7F)
   667 basis functions,  1256 primitive gaussians,   667 cartesian basis functions
   147 alpha electrons      147 beta electrons
       nuclear repulsion energy      4871.1103826572 Hartrees.
 NAtoms=   80 NActive=   80 NUniq=   80 SFac= 1.00D+00 NAtFMM=   60 NAOKFM=T Big=T
 Integral buffers will be    131072 words long.
 Raffenetti 2 integral format.
 Two-electron integral symmetry is turned off.
 Nuclear repulsion after empirical dispersion term =     4871.0015450197 Hartrees.
 One-electron integrals computed using PRISM.
 NBasis=   667 RedAO= T EigKep=  4.55D-04  NBF=   667
 NBsUse=   667 1.00D-06 EigRej= -1.00D+00 NBFU=   667
 Initial guess from the checkpoint file:  "conf-234.chk"
 B after Tr=     0.000000    0.000000    0.000000
         Rot=    1.000000    0.000000    0.000000    0.000000 Ang=   0.00 deg.
 Requested convergence on RMS density matrix=1.00D-08 within 128 cycles.
 Requested convergence on MAX density matrix=1.00D-06.
 Requested convergence on             energy=1.00D-06.
 No special actions if energy rises.
 SCF Done:  E(RB3LYP) =  -1866.73719061     A.U. after    2 cycles
            NFock=  2  Conv=0.56D-08     -V/T= 2.0095

 **********************************************************************

            Population analysis using the SCF Density.

 **********************************************************************

 Alpha  occ. eigenvalues --  -19.27527 -19.24177 -19.22899 -19.20914 -19.20444
 Alpha  occ. eigenvalues --  -19.19182 -14.51130 -14.49946 -14.48847 -14.46799
 Alpha  occ. eigenvalues --  -14.45143 -14.45030 -14.43477 -14.38792 -10.46573
 Alpha  occ. eigenvalues --  -10.42607 -10.38716 -10.37635 -10.37609 -10.37079
 Alpha  occ. eigenvalues --  -10.34558 -10.34250 -10.32231 -10.31978 -10.31282
 Alpha  occ. eigenvalues --  -10.29845 -10.28710 -10.28262 -10.27536 -10.27284
 Alpha  occ. eigenvalues --  -10.27271 -10.25931 -10.24946 -10.24909 -10.24813
 Alpha  occ. eigenvalues --  -10.24794 -10.24715 -10.24509 -10.24384  -1.19635
 Alpha  occ. eigenvalues --   -1.15093  -1.14517  -1.13086  -1.12109  -1.11019
 Alpha  occ. eigenvalues --   -1.10888  -1.04310  -1.03326  -1.03141  -1.01974
 Alpha  occ. eigenvalues --   -1.01062  -0.98209  -0.96912  -0.91377  -0.90393
 Alpha  occ. eigenvalues --   -0.89596  -0.87287  -0.85200  -0.84894  -0.83326
 Alpha  occ. eigenvalues --   -0.80285  -0.79426  -0.78877  -0.77339  -0.76070
 Alpha  occ. eigenvalues --   -0.75490  -0.73733  -0.72999  -0.72198  -0.71897
 Alpha  occ. eigenvalues --   -0.70667  -0.68953  -0.68502  -0.68156  -0.67415
 Alpha  occ. eigenvalues --   -0.66514  -0.66217  -0.64395  -0.64271  -0.64211
 Alpha  occ. eigenvalues --   -0.63936  -0.63649  -0.61786  -0.61181  -0.60300
 Alpha  occ. eigenvalues --   -0.60180  -0.59350  -0.58685  -0.57406  -0.57203
 Alpha  occ. eigenvalues --   -0.57097  -0.56510  -0.56145  -0.55432  -0.54261
 Alpha  occ. eigenvalues --   -0.54124  -0.53645  -0.53560  -0.52948  -0.52706
 Alpha  occ. eigenvalues --   -0.52310  -0.52040  -0.51647  -0.51202  -0.50520
 Alpha  occ. eigenvalues --   -0.50311  -0.49887  -0.49595  -0.49299  -0.48740
 Alpha  occ. eigenvalues --   -0.48002  -0.47910  -0.47322  -0.47047  -0.46803
 Alpha  occ. eigenvalues --   -0.46500  -0.46140  -0.45948  -0.45594  -0.45349
 Alpha  occ. eigenvalues --   -0.45192  -0.45027  -0.44128  -0.43874  -0.43701
 Alpha  occ. eigenvalues --   -0.43495  -0.41943  -0.41400  -0.41056  -0.40717
 Alpha  occ. eigenvalues --   -0.40516  -0.40334  -0.40195  -0.39904  -0.39264
 Alpha  occ. eigenvalues --   -0.38314  -0.37236  -0.37000  -0.36712  -0.34735
 Alpha  occ. eigenvalues --   -0.34319  -0.33700  -0.33246  -0.32813  -0.31430
 Alpha  occ. eigenvalues --   -0.30813  -0.30036
 Alpha virt. eigenvalues --   -0.11346  -0.09364  -0.09013  -0.07960  -0.06477
 Alpha virt. eigenvalues --   -0.06048  -0.05840  -0.05728  -0.04849  -0.02816
 Alpha virt. eigenvalues --   -0.02773  -0.00591  -0.00324   0.00009   0.00413
 Alpha virt. eigenvalues --    0.00906   0.01572   0.01978   0.02136   0.02916
 Alpha virt. eigenvalues --    0.03343   0.03902   0.04191   0.04509   0.04593
 Alpha virt. eigenvalues --    0.04900   0.05725   0.05976   0.06327   0.06457
 Alpha virt. eigenvalues --    0.06718   0.07168   0.07893   0.08082   0.08207
 Alpha virt. eigenvalues --    0.08542   0.08843   0.09001   0.09249   0.09544
 Alpha virt. eigenvalues --    0.09853   0.10025   0.10307   0.10984   0.11164
 Alpha virt. eigenvalues --    0.11471   0.11658   0.11841   0.11999   0.12957
 Alpha virt. eigenvalues --    0.13161   0.13518   0.13966   0.14187   0.14239
 Alpha virt. eigenvalues --    0.14465   0.14826   0.15626   0.16142   0.16680
 Alpha virt. eigenvalues --    0.16976   0.17726   0.18063   0.18665   0.18708
 Alpha virt. eigenvalues --    0.19324   0.19446   0.19998   0.20208   0.20815
 Alpha virt. eigenvalues --    0.21624   0.24278   0.24782   0.25287   0.25654
 Alpha virt. eigenvalues --    0.26252   0.26982   0.27614   0.28073   0.28209
 Alpha virt. eigenvalues --    0.29414   0.30047   0.31363   0.31728   0.32418
 Alpha virt. eigenvalues --    0.33080   0.33781   0.38402   0.39075   0.39694
 Alpha virt. eigenvalues --    0.40657   0.41302   0.41744   0.42621   0.43228
 Alpha virt. eigenvalues --    0.43417   0.43886   0.44336   0.44556   0.45038
 Alpha virt. eigenvalues --    0.45222   0.45880   0.46212   0.46926   0.47304
 Alpha virt. eigenvalues --    0.47745   0.48403   0.48558   0.48880   0.48972
 Alpha virt. eigenvalues --    0.49543   0.49869   0.50552   0.50741   0.51304
 Alpha virt. eigenvalues --    0.51549   0.52076   0.52517   0.52845   0.53233
 Alpha virt. eigenvalues --    0.53436   0.53628   0.53857   0.54420   0.54595
 Alpha virt. eigenvalues --    0.54877   0.55446   0.55476   0.55867   0.55944
 Alpha virt. eigenvalues --    0.56084   0.56627   0.57242   0.57694   0.57840
 Alpha virt. eigenvalues --    0.58462   0.58583   0.59343   0.59432   0.59854
 Alpha virt. eigenvalues --    0.60154   0.60296   0.60784   0.61097   0.62085
 Alpha virt. eigenvalues --    0.62496   0.62661   0.63528   0.63986   0.64098
 Alpha virt. eigenvalues --    0.64781   0.65250   0.65403   0.66944   0.67230
 Alpha virt. eigenvalues --    0.68394   0.69571   0.70008   0.70126   0.71285
 Alpha virt. eigenvalues --    0.71664   0.72493   0.72812   0.73342   0.73607
 Alpha virt. eigenvalues --    0.73792   0.74039   0.74514   0.74942   0.75463
 Alpha virt. eigenvalues --    0.76114   0.76360   0.76524   0.77048   0.77211
 Alpha virt. eigenvalues --    0.77491   0.77721   0.78199   0.78431   0.78687
 Alpha virt. eigenvalues --    0.78988   0.79156   0.79376   0.79469   0.79928
 Alpha virt. eigenvalues --    0.80217   0.80717   0.80913   0.80999   0.81342
 Alpha virt. eigenvalues --    0.81943   0.82334   0.83069   0.83265   0.83771
 Alpha virt. eigenvalues --    0.84110   0.84331   0.84769   0.85031   0.85471
 Alpha virt. eigenvalues --    0.85784   0.86225   0.86622   0.86844   0.87201
 Alpha virt. eigenvalues --    0.87580   0.87905   0.88153   0.88488   0.89164
 Alpha virt. eigenvalues --    0.89638   0.90582   0.90843   0.91769   0.92211
 Alpha virt. eigenvalues --    0.93276   0.93450   0.93742   0.94211   0.95188
 Alpha virt. eigenvalues --    0.96174   0.96658   0.97116   0.98111   0.98826
 Alpha virt. eigenvalues --    0.99184   0.99920   1.01616   1.02251   1.03129
 Alpha virt. eigenvalues --    1.03903   1.04581   1.05210   1.05601   1.06587
 Alpha virt. eigenvalues --    1.07198   1.08052   1.08758   1.09545   1.09657
 Alpha virt. eigenvalues --    1.10305   1.11027   1.12044   1.12952   1.15013
 Alpha virt. eigenvalues --    1.15683   1.16224   1.16684   1.17732   1.18887
 Alpha virt. eigenvalues --    1.19696   1.19996   1.20233   1.21679   1.21929
 Alpha virt. eigenvalues --    1.22800   1.23693   1.24917   1.25127   1.25930
 Alpha virt. eigenvalues --    1.26264   1.27494   1.27985   1.29332   1.29861
 Alpha virt. eigenvalues --    1.31135   1.31663   1.31850   1.32944   1.34020
 Alpha virt. eigenvalues --    1.34463   1.35127   1.35442   1.36931   1.37453
 Alpha virt. eigenvalues --    1.37962   1.38893   1.39477   1.39988   1.40648
 Alpha virt. eigenvalues --    1.40913   1.42095   1.42562   1.43229   1.43995
 Alpha virt. eigenvalues --    1.44597   1.45443   1.45713   1.46217   1.46728
 Alpha virt. eigenvalues --    1.48626   1.50460   1.51066   1.51761   1.52465
 Alpha virt. eigenvalues --    1.53877   1.54968   1.55362   1.55682   1.56377
 Alpha virt. eigenvalues --    1.57546   1.59094   1.59400   1.60693   1.61845
 Alpha virt. eigenvalues --    1.63081   1.63506   1.64111   1.64402   1.65154
 Alpha virt. eigenvalues --    1.66315   1.67309   1.68170   1.68465   1.68850
 Alpha virt. eigenvalues --    1.69469   1.70312   1.71270   1.71590   1.72306
 Alpha virt. eigenvalues --    1.72762   1.72957   1.73469   1.74101   1.74597
 Alpha virt. eigenvalues --    1.75337   1.75790   1.75885   1.76737   1.77148
 Alpha virt. eigenvalues --    1.77659   1.78132   1.78460   1.78857   1.79627
 Alpha virt. eigenvalues --    1.80162   1.80614   1.81421   1.82297   1.82769
 Alpha virt. eigenvalues --    1.82982   1.83815   1.84370   1.84554   1.85615
 Alpha virt. eigenvalues --    1.86124   1.87188   1.87466   1.87784   1.88292
 Alpha virt. eigenvalues --    1.88669   1.89751   1.89882   1.90982   1.91610
 Alpha virt. eigenvalues --    1.91860   1.92006   1.92442   1.93177   1.93945
 Alpha virt. eigenvalues --    1.94681   1.95003   1.95237   1.95665   1.96598
 Alpha virt. eigenvalues --    1.97463   1.97963   1.98748   1.99517   1.99943
 Alpha virt. eigenvalues --    2.00301   2.00926   2.02233   2.02801   2.03214
 Alpha virt. eigenvalues --    2.04068   2.05067   2.05780   2.06438   2.07329
 Alpha virt. eigenvalues --    2.07434   2.08719   2.09109   2.10039   2.10626
 Alpha virt. eigenvalues --    2.11814   2.13417   2.13472   2.14614   2.15269
 Alpha virt. eigenvalues --    2.16468   2.16622   2.17118   2.17530   2.17653
 Alpha virt. eigenvalues --    2.18428   2.19014   2.19464   2.21384   2.22385
 Alpha virt. eigenvalues --    2.22707   2.23457   2.24917   2.25404   2.25812
 Alpha virt. eigenvalues --    2.26615   2.28209   2.29652   2.31317   2.32443
 Alpha virt. eigenvalues --    2.32514   2.33490   2.33820   2.34317   2.34399
 Alpha virt. eigenvalues --    2.35429   2.36303   2.36998   2.38085   2.39929
 Alpha virt. eigenvalues --    2.40325   2.41138   2.42124   2.42881   2.43853
 Alpha virt. eigenvalues --    2.44732   2.45336   2.45789   2.46900   2.47574
 Alpha virt. eigenvalues --    2.48058   2.48928   2.50489   2.51330   2.51786
 Alpha virt. eigenvalues --    2.52626   2.52937   2.54015   2.54952   2.55853
 Alpha virt. eigenvalues --    2.57006   2.58107   2.58523   2.59755   2.60745
 Alpha virt. eigenvalues --    2.61059   2.61853   2.62315   2.63060   2.64208
 Alpha virt. eigenvalues --    2.66097   2.67151   2.67357   2.68310   2.68740
 Alpha virt. eigenvalues --    2.69768   2.71446   2.72941   2.74091   2.75449
 Alpha virt. eigenvalues --    2.78648   2.80177   2.81957   2.82978   2.86826
 Alpha virt. eigenvalues --    2.88367   2.88748   2.90049   2.92640   2.94716
 Alpha virt. eigenvalues --    2.95430   2.95943   2.98066   2.99522   3.00204
 Alpha virt. eigenvalues --    3.01733   3.02460   3.08140   3.10266   3.11486
 Alpha virt. eigenvalues --    3.35401   3.66317   3.73196   3.73783   3.76992
 Alpha virt. eigenvalues --    3.89396   3.90904   3.94182   3.94563   3.97311
 Alpha virt. eigenvalues --    4.02751   4.03478   4.06094   4.06695   4.08461
 Alpha virt. eigenvalues --    4.10249   4.10650   4.11267   4.17219   4.18555
 Alpha virt. eigenvalues --    4.19040   4.21554   4.24581   4.27357   4.27923
 Alpha virt. eigenvalues --    4.31219   4.32806   4.35401   4.37470   4.38775
 Alpha virt. eigenvalues --    4.41571   4.43283   4.44461   4.49494   4.54170
 Alpha virt. eigenvalues --    4.55878   4.59151   4.63328   4.65079   4.66699
          Condensed to atoms (all electrons):
 Mulliken charges:
               1
     1  N   -0.713825
     2  C   -0.044626
     3  C    0.609705
     4  O   -0.570018
     5  C   -0.433771
     6  C    0.213859
     7  C   -0.172901
     8  C   -0.189039
     9  C   -0.128525
    10  C   -0.128129
    11  C   -0.125836
    12  H    0.336157
    13  H    0.146853
    14  H    0.135241
    15  H    0.189997
    16  H    0.117370
    17  H    0.138463
    18  H    0.140246
    19  H    0.119512
    20  H    0.138135
    21  H    0.308979
    22  N   -0.629858
    23  C   -0.014953
    24  C    0.625824
    25  O   -0.533013
    26  C   -0.302953
    27  C   -0.083734
    28  C   -0.443851
    29  C   -0.451670
    30  H    0.347993
    31  H    0.197395
    32  H    0.140940
    33  H    0.177653
    34  H    0.113406
    35  H    0.155562
    36  H    0.159697
    37  H    0.145729
    38  H    0.161535
    39  H    0.157069
    40  H    0.147700
    41  N   -0.612206
    42  C   -0.053281
    43  C    0.662957
    44  O   -0.546358
    45  C   -0.399097
    46  C    0.639532
    47  N   -0.756167
    48  O   -0.519953
    49  H    0.338427
    50  H    0.207495
    51  H    0.181958
    52  H    0.186377
    53  H    0.352561
    54  H    0.347066
    55  N   -0.613882
    56  C   -0.086926
    57  C    0.680061
    58  O   -0.544983
    59  C   -0.292604
    60  C   -0.289131
    61  C   -0.173398
    62  N   -0.590960
    63  C    0.776164
    64  N   -0.747622
    65  N   -0.769721
    66  O   -0.605678
    67  H    0.484637
    68  H    0.375642
    69  H    0.186492
    70  H    0.191627
    71  H    0.183639
    72  H    0.159695
    73  H    0.175882
    74  H    0.166860
    75  H    0.193039
    76  H    0.409168
    77  H    0.377531
    78  H    0.383217
    79  H    0.369122
    80  H    0.414500
 Sum of Mulliken charges =   1.00000
 Mulliken charges with hydrogens summed into heavy atoms:
               1
     1  N   -0.068690
     2  C    0.102227
     3  C    0.609705
     4  O   -0.570018
     5  C   -0.108533
     6  C    0.213859
     7  C   -0.055532
     8  C   -0.050576
     9  C    0.011721
    10  C   -0.008617
    11  C    0.012299
    22  N   -0.281865
    23  C    0.182442
    24  C    0.625824
    25  O   -0.533013
    26  C    0.015640
    27  C    0.029673
    28  C    0.017137
    29  C    0.014634
    41  N   -0.273779
    42  C    0.154215
    43  C    0.662957
    44  O   -0.546358
    45  C   -0.030762
    46  C    0.639532
    47  N   -0.056539
    48  O   -0.519953
    55  N   -0.238240
    56  C    0.099565
    57  C    0.680061
    58  O   -0.544983
    59  C    0.082662
    60  C    0.046446
    61  C    0.186501
    62  N   -0.181792
    63  C    0.776164
    64  N    0.013125
    65  N    0.013901
    66  O   -0.121041
 Electronic spatial extent (au):  <R**2>=         226178.4366
 Charge=              1.0000 electrons
 Dipole moment (field-independent basis, Debye):
    X=            -17.0962    Y=             58.5789    Z=            -46.4332  Tot=             76.6799
 Quadrupole moment (field-independent basis, Debye-Ang):
   XX=           -138.5763   YY=            508.6045   ZZ=            374.8120
   XY=           -219.3294   XZ=            202.9607   YZ=           -570.6590
 Traceless Quadrupole moment (field-independent basis, Debye-Ang):
   XX=           -386.8563   YY=            260.3245   ZZ=            126.5319
   XY=           -219.3294   XZ=            202.9607   YZ=           -570.6590
 Octapole moment (field-independent basis, Debye-Ang**2):
  XXX=           1208.6441  YYY=           1596.6813  ZZZ=          -3593.6881  XYY=          -2292.4467
  XXY=          -1448.7672  XXZ=            583.8307  XZZ=          -2142.5753  YZZ=           4767.9191
  YYZ=          -5525.5132  XYZ=           2471.1414
 Hexadecapole moment (field-independent basis, Debye-Ang**3):
 XXXX=         -14528.7653 YYYY=         -63160.7301 ZZZZ=          36176.7588 XXXY=          12509.1318
 XXXZ=          -8073.0161 YYYX=         -18646.7532 YYYZ=         -32952.2338 ZZZX=          23839.1476
 ZZZY=         -46522.0864 XXYY=         -18016.0410 XXZZ=          -3454.1356 YYZZ=          46499.8954
 XXYZ=           6537.8578 YYXZ=          25832.7550 ZZXY=         -26117.4392
 N-N= 4.871001545020D+03 E-N=-1.406318196034D+04  KE= 1.849247940818D+03
 Unable to Open any file for archive entry.
 1\1\GINC-QML-002\SP\RB3LYP\6-31G(d)\C25H41N8O6(1+)\KENGMITH\11-Jun-202
 2\0\\# B3LYP/6-31G* empiricaldispersion=gd3 guess=read geom=check nosy
 mm integral(ultrafinegrid)\\Candidate Structure: Conf:234 Charge calc 
 in gas phase\\1,1\N,0,1.0395155258,11.055551184,-7.4526862258\C,0,0.37
 26486948,11.4291111256,-6.222070887\C,0,-0.6381318346,10.3951478462,-5
 .7124396499\O,0,-1.3501644661,9.720456377,-6.4775749892\C,0,-0.4302970
 091,12.757083826,-6.3945898658\C,0,0.3279477862,13.8289068924,-7.13959
 88057\C,0,1.3291249462,14.5746288997,-6.5069167023\C,0,0.0419871019,14
 .0818681994,-8.4864315215\C,0,2.0372198344,15.5516550161,-7.2054535754
 \C,0,0.7489236564,15.059949797,-9.1874670883\C,0,1.7485388237,15.79654
 27421,-8.5501521773\H,0,0.4091768241,11.123233845,-8.2472561228\H,0,1.
 1409107526,11.5873297794,-5.4513535523\H,0,-0.7053848858,13.1131672787
 ,-5.392154511\H,0,-1.3635588997,12.5406666712,-6.9248571888\H,0,1.5565
 035822,14.3889992284,-5.4588671011\H,0,-0.7396754547,13.5102573778,-8.
 982510183\H,0,2.8110870511,16.1239858367,-6.7013898743\H,0,0.517397637
 9,15.2502411501,-10.2324344487\H,0,2.2977701559,16.5592867588,-9.09503
 43539\H,0,1.380623126,10.098294873,-7.4093197948\N,0,-0.831416136,10.3
 129546871,-4.3756368622\C,0,-1.9085455619,9.486376224,-3.821942193\C,0
 ,-3.2562047847,9.8746427997,-4.4568091022\O,0,-4.0901494955,9.02525965
 09,-4.7492383552\C,0,-1.9685472605,9.6072271202,-2.2919992046\C,0,-0.7
 074375937,9.1401292427,-1.5355914427\C,0,-0.9152874985,9.3384093653,-0
 .0268554145\C,0,-0.3431068471,7.6834920922,-1.8535963792\H,0,-0.187681
 4714,10.7766221445,-3.7483372814\H,0,-1.7547044296,8.4465824022,-4.119
 9938336\H,0,-2.1945287283,10.6497244461,-2.0275081237\H,0,-2.825826370
 8,9.009027767,-1.9590171376\H,0,0.1425897855,9.7751160606,-1.834938195
 9\H,0,-1.7388570191,8.7108987781,0.3357163882\H,0,-0.0145392936,9.0624
 427631,0.5315659609\H,0,-1.1562056815,10.3805441342,0.2139156518\H,0,0
 .5180023658,7.3630164823,-1.2576960698\H,0,-1.1800922679,7.0142793878,
 -1.6181938994\H,0,-0.0833387485,7.5403580378,-2.9083446514\N,0,-3.4686
 394003,11.2168659293,-4.6265902049\C,0,-4.5779114291,11.6777888543,-5.
 4566332714\C,0,-4.1775191666,11.5886129648,-6.9405427465\O,0,-3.798729
 6499,12.562429702,-7.5904663251\C,0,-5.0026167977,13.1005847227,-5.117
 1586806\C,0,-6.2645496188,13.454950333,-5.9108913987\N,0,-6.7610227923
 ,14.6985620736,-5.6820895779\O,0,-6.7844382585,12.6648267711,-6.691695
 4688\H,0,-2.66596225,11.828804951,-4.548600819\H,0,-5.4116007709,10.99
 68877141,-5.279738607\H,0,-5.1947198919,13.1826828201,-4.041134569\H,0
 ,-4.2067290816,13.8080888334,-5.3787181901\H,0,-7.6003101192,14.980564
 5194,-6.1688881296\H,0,-6.3396656613,15.3440837903,-5.0311995249\N,0,-
 4.2061607342,10.33865383,-7.4737093714\C,0,-4.0956296963,10.1615581271
 ,-8.9125725283\C,0,-2.8524645231,10.9008395292,-9.4609370091\O,0,-2.89
 20720557,11.5877701948,-10.478001058\C,0,-5.4059044184,10.5755958155,-
 9.6164602585\C,0,-5.5612778212,10.0674269194,-11.0740079372\C,0,-6.000
 5175144,11.159942926,-12.0630156192\N,0,-4.9234551561,12.1603319614,-1
 2.1747189804\C,0,-4.2112359545,12.421170541,-13.2693912933\N,0,-4.7824
 755701,12.4101084857,-14.4889220866\N,0,-2.9053571413,12.7011536243,-1
 3.1443320353\O,0,-1.6960436674,10.6760475837,-8.8772480918\H,0,-1.7142
 216698,10.2111274275,-7.9811531328\H,0,-4.4690792018,9.5584216663,-6.8
 79968732\H,0,-3.9012434427,9.0951376471,-9.085805199\H,0,-5.484187907,
 11.6661662262,-9.5446773999\H,0,-6.2260288703,10.1910545603,-9.0041620
 117\H,0,-4.6195033942,9.6411642385,-11.4404945733\H,0,-6.3031816853,9.
 2625075837,-11.1106276572\H,0,-6.1967626012,10.7296767078,-13.04990005
 76\H,0,-6.9152896319,11.6531637828,-11.7175799036\H,0,-4.3557601507,12
 .21750699,-11.3220702\H,0,-4.2254744024,12.458130442,-15.3292141781\H,
 0,-5.7848338405,12.4781144311,-14.5852636959\H,0,-2.4002465556,13.2085
 322722,-13.855973374\H,0,-2.4408898772,12.4850063568,-12.2639582279\\V
 ersion=ES64L-G16RevC.01\HF=-1866.7371906\RMSD=5.606e-09\Dipole=-1.8406
 865,1.1101743,-4.6363629\Quadrupole=-287.6182136,193.5448504,94.073363
 1,-163.0660546,150.8962848,-424.2709899\PG=C01 [X(C25H41N8O6)]\\@
 The archive entry for this job was punched.


 Ideas are like rabbits. You get a couple and learn
 how to handle them, and pretty soon you have a dozen.
                                    -- John Steinbeck
 Job cpu time:       0 days  0 hours  5 minutes  7.6 seconds.
 Elapsed time:       0 days  0 hours  1 minutes 17.7 seconds.
 File lengths (MBytes):  RWF=    344 Int=      0 D2E=      0 Chk=     56 Scr=     16
 Normal termination of Gaussian 16 at Sat Jun 11 21:07:41 2022.
