 Entering Gaussian System, Link 0=/opt/software/Gaussian/g16-AVX-C.01/g16/g16
 Input=charge-conf-123.com
 Output=charge-conf-123.log
 Initial command:
 /opt/software/Gaussian/g16-AVX-C.01/g16/l1.exe "/mnt/gs18/scratch/users/kengmith/Gau-34980.inp" -scrdir="/mnt/gs18/scratch/users/kengmith/"
 Entering Link 1 = /opt/software/Gaussian/g16-AVX-C.01/g16/l1.exe PID=     35002.
  
 Copyright (c) 1988-2019, Gaussian, Inc.  All Rights Reserved.
  
 This is part of the Gaussian(R) 16 program.  It is based on
 the Gaussian(R) 09 system (copyright 2009, Gaussian, Inc.),
 the Gaussian(R) 03 system (copyright 2003, Gaussian, Inc.),
 the Gaussian(R) 98 system (copyright 1998, Gaussian, Inc.),
 the Gaussian(R) 94 system (copyright 1995, Gaussian, Inc.),
 the Gaussian 92(TM) system (copyright 1992, Gaussian, Inc.),
 the Gaussian 90(TM) system (copyright 1990, Gaussian, Inc.),
 the Gaussian 88(TM) system (copyright 1988, Gaussian, Inc.),
 the Gaussian 86(TM) system (copyright 1986, Carnegie Mellon
 University), and the Gaussian 82(TM) system (copyright 1983,
 Carnegie Mellon University). Gaussian is a federally registered
 trademark of Gaussian, Inc.
  
 This software contains proprietary and confidential information,
 including trade secrets, belonging to Gaussian, Inc.
  
 This software is provided under written license and may be
 used, copied, transmitted, or stored only in accord with that
 written license.
  
 The following legend is applicable only to US Government
 contracts under FAR:
  
                    RESTRICTED RIGHTS LEGEND
  
 Use, reproduction and disclosure by the US Government is
 subject to restrictions as set forth in subparagraphs (a)
 and (c) of the Commercial Computer Software - Restricted
 Rights clause in FAR 52.227-19.
  
 Gaussian, Inc.
 340 Quinnipiac St., Bldg. 40, Wallingford CT 06492
  
  
 ---------------------------------------------------------------
 Warning -- This program may not be used in any manner that
 competes with the business of Gaussian, Inc. or will provide
 assistance to any competitor of Gaussian, Inc.  The licensee
 of this program is prohibited from giving any competitor of
 Gaussian, Inc. access to this program.  By using this program,
 the user acknowledges that Gaussian, Inc. is engaged in the
 business of creating and licensing software in the field of
 computational chemistry and represents and warrants to the
 licensee that it is not a competitor of Gaussian, Inc. and that
 it will not use this program in any manner prohibited above.
 ---------------------------------------------------------------
  

 Cite this work as:
 Gaussian 16, Revision C.01,
 M. J. Frisch, G. W. Trucks, H. B. Schlegel, G. E. Scuseria, 
 M. A. Robb, J. R. Cheeseman, G. Scalmani, V. Barone, 
 G. A. Petersson, H. Nakatsuji, X. Li, M. Caricato, A. V. Marenich, 
 J. Bloino, B. G. Janesko, R. Gomperts, B. Mennucci, H. P. Hratchian, 
 J. V. Ortiz, A. F. Izmaylov, J. L. Sonnenberg, D. Williams-Young, 
 F. Ding, F. Lipparini, F. Egidi, J. Goings, B. Peng, A. Petrone, 
 T. Henderson, D. Ranasinghe, V. G. Zakrzewski, J. Gao, N. Rega, 
 G. Zheng, W. Liang, M. Hada, M. Ehara, K. Toyota, R. Fukuda, 
 J. Hasegawa, M. Ishida, T. Nakajima, Y. Honda, O. Kitao, H. Nakai, 
 T. Vreven, K. Throssell, J. A. Montgomery, Jr., J. E. Peralta, 
 F. Ogliaro, M. J. Bearpark, J. J. Heyd, E. N. Brothers, K. N. Kudin, 
 V. N. Staroverov, T. A. Keith, R. Kobayashi, J. Normand, 
 K. Raghavachari, A. P. Rendell, J. C. Burant, S. S. Iyengar, 
 J. Tomasi, M. Cossi, J. M. Millam, M. Klene, C. Adamo, R. Cammi, 
 J. W. Ochterski, R. L. Martin, K. Morokuma, O. Farkas, 
 J. B. Foresman, and D. J. Fox, Gaussian, Inc., Wallingford CT, 2019.
 
 ******************************************
 Gaussian 16:  ES64L-G16RevC.01  3-Jul-2019
                11-Jun-2022 
 ******************************************
 %mem=8gb
 %nproc=4
 Will use up to    4 processors via shared memory.
 %chk=conf-123.chk
 ----------------------------------------------------------------------
 # B3LYP/6-31G* empiricaldispersion=gd3 guess=read geom=check nosymm in
 tegral(ultrafinegrid)
 ----------------------------------------------------------------------
 1/29=2,38=1,172=1/1;
 2/12=2,15=1,40=1/2;
 3/5=1,6=6,7=1,11=2,14=-4,25=1,30=1,74=-5,75=-5,116=-2,124=31/1,2,3;
 4/5=1/1;
 5/5=2,38=6/2;
 6/7=2,8=2,9=2,10=2,28=1/1;
 99/5=1,9=1/99;
 ------------------------------------------------------
 Candidate Structure: Conf:123 Charge calc in gas phase
 ------------------------------------------------------
 Structure from the checkpoint file:  "conf-123.chk"
 Charge =  1 Multiplicity = 1
 Redundant internal coordinates found in file.  (old form).
 N,0,-2.0344899731,9.9665295084,-8.5032776062
 C,0,-1.8638277934,8.8513833321,-7.5203527519
 C,0,-3.2172475735,8.8196369738,-6.7707650538
 O,0,-4.2414346903,9.0726989502,-7.3970801074
 C,0,-0.6018661959,9.1064366896,-6.673621548
 C,0,0.6358068395,9.2963781514,-7.5272989812
 C,0,1.4122298145,8.1956792435,-7.912790504
 C,0,0.9835268219,10.5744703744,-7.9895610218
 C,0,2.5204224456,8.3664798184,-8.7426829498
 C,0,2.0874154491,10.7420167258,-8.8278404796
 C,0,2.859319115,9.6412869453,-9.2029996818
 H,0,-1.2615746937,10.0817448507,-9.166241998
 H,0,-1.7581640957,7.9224229593,-8.0905774302
 H,0,-0.463401428,8.2466252031,-6.0073780601
 H,0,-0.7744825196,9.992852644,-6.0531638237
 H,0,1.1545703201,7.2012106012,-7.5539405056
 H,0,0.382234787,11.437746773,-7.7155601813
 H,0,3.1200753816,7.5064829958,-9.0267024765
 H,0,2.3420665512,11.7363358057,-9.1830512214
 H,0,3.7225829503,9.7741252346,-9.8487387104
 H,0,-2.0900358939,10.8651256821,-7.9714972348
 N,0,-3.208804905,8.5678985319,-5.4404901511
 C,0,-4.4406103103,8.7011905468,-4.651998302
 C,0,-5.0207179184,10.1315102614,-4.7318036112
 O,0,-6.2206297204,10.3264828657,-4.6343497665
 C,0,-4.1982670559,8.2959382552,-3.1913904961
 C,0,-3.734056433,6.8420315217,-2.9691340573
 C,0,-3.5105347577,6.5996932574,-1.4692310949
 C,0,-4.7229325305,5.82178578,-3.5492660052
 H,0,-2.3413192502,8.3777721457,-4.9594051962
 H,0,-5.2113854641,8.072300634,-5.1024950384
 H,0,-3.4688251674,8.9896064693,-2.7478122862
 H,0,-5.1435443408,8.458806617,-2.6598403449
 H,0,-2.765360709,6.6996544072,-3.4753205871
 H,0,-4.4512835819,6.7086364953,-0.9154770156
 H,0,-3.1321614886,5.5879908356,-1.2877715679
 H,0,-2.7896403754,7.3107008954,-1.0483271838
 H,0,-5.7206608879,5.9578046073,-3.1136693775
 H,0,-4.8165781823,5.9067793204,-4.6375033755
 H,0,-4.3980348305,4.7998205639,-3.3263390077
 N,0,-4.0989343318,11.1378244347,-4.8710981549
 C,0,-4.4831820448,12.3938189997,-5.489249771
 C,0,-3.4539870146,12.6620210871,-6.6167564834
 O,0,-2.4278340864,11.949610554,-6.6954419298
 C,0,-4.6017870583,13.5348795517,-4.4497680448
 C,0,-5.5499087962,14.6514433744,-4.8822807092
 N,0,-6.1272789459,15.3496662427,-3.8777501271
 O,0,-5.7677747004,14.926272108,-6.0660534587
 H,0,-3.1504501662,10.867964106,-5.1037619076
 H,0,-5.4678910378,12.2535610091,-5.9484978717
 H,0,-4.9588480511,13.0826186573,-3.5194129317
 H,0,-3.6182750427,13.9723492062,-4.2336260496
 H,0,-6.7831064055,16.0812524303,-4.1183746068
 H,0,-6.054507217,15.0714379779,-2.9104542311
 N,0,-3.7566825306,13.6395465826,-7.466091995
 C,0,-2.9933596124,14.0128827484,-8.6647843133
 C,0,-2.4458956119,12.7397625386,-9.3800489443
 O,0,-1.197144284,12.5462238926,-9.4052700733
 C,0,-1.9348067995,15.0949763084,-8.381406437
 C,0,-1.623801376,16.0270116452,-9.5743314951
 C,0,-0.689889009,15.4987931619,-10.6780732562
 N,0,-1.2137073348,14.3478876921,-11.4314471302
 C,0,-2.2232279972,14.3746779802,-12.3040176249
 N,0,-2.4571776261,15.484489902,-13.0370821989
 N,0,-2.9960316719,13.291940318,-12.4575749697
 O,0,-3.3134531454,12.0200926425,-9.9478678336
 H,0,-2.9254118601,9.909549307,-9.0129989022
 H,0,-4.594468254,14.1840017041,-7.228277744
 H,0,-3.7494739054,14.4210430766,-9.3454572071
 H,0,-1.0234114958,14.6089318706,-8.018456986
 H,0,-2.3169071419,15.7276029597,-7.5717558054
 H,0,-2.5641341786,16.3618023645,-10.0352044983
 H,0,-1.1410247853,16.9316927732,-9.1834961679
 H,0,-0.4380461163,16.3105704322,-11.3692904625
 H,0,0.2522234977,15.1546417499,-10.2444224412
 H,0,-1.0590893639,13.4582887099,-10.9381717089
 H,0,-3.260155694,15.5438958392,-13.6452169405
 H,0,-1.7305694567,16.1725238664,-13.1676640202
 H,0,-3.6524192836,13.2394215568,-13.2236116078
 H,0,-3.1241905141,12.638258405,-11.6642029161
 Recover connectivity data from disk.
                           ----------------------------
                           !    Current Parameters    !
                           ! (Angstroms and Degrees)  !
 --------------------------                            --------------------------
 ! Name  Definition              Value                                          !
 --------------------------------------------------------------------------------
 ! R1    R(1,2)                  1.4963                                         !
 ! R2    R(1,12)                 1.0248                                         !
 ! R3    R(1,21)                 1.0456                                         !
 ! R4    R(2,3)                  1.5475                                         !
 ! R5    R(2,5)                  1.541                                          !
 ! R6    R(2,13)                 1.0951                                         !
 ! R7    R(3,4)                  1.2269                                         !
 ! R8    R(3,22)                 1.3539                                         !
 ! R9    R(5,6)                  1.5155                                         !
 ! R10   R(5,14)                 1.0965                                         !
 ! R11   R(5,15)                 1.0957                                         !
 ! R12   R(6,7)                  1.4011                                         !
 ! R13   R(6,8)                  1.4029                                         !
 ! R14   R(7,9)                  1.395                                          !
 ! R15   R(7,16)                 1.0882                                         !
 ! R16   R(8,10)                 1.3962                                         !
 ! R17   R(8,17)                 1.0871                                         !
 ! R18   R(9,11)                 1.3971                                         !
 ! R19   R(9,18)                 1.0862                                         !
 ! R20   R(10,11)                1.3958                                         !
 ! R21   R(10,19)                1.0861                                         !
 ! R22   R(11,20)                1.0862                                         !
 ! R23   R(22,23)                1.4686                                         !
 ! R24   R(22,30)                1.01                                           !
 ! R25   R(23,24)                1.5455                                         !
 ! R26   R(23,26)                1.535                                          !
 ! R27   R(23,31)                1.092                                          !
 ! R28   R(24,25)                1.2195                                         !
 ! R29   R(24,41)                1.3718                                         !
 ! R30   R(26,27)                1.5423                                         !
 ! R31   R(26,32)                1.1                                            !
 ! R32   R(26,33)                1.0966                                         !
 ! R33   R(27,28)                1.5357                                         !
 ! R34   R(27,29)                1.5347                                         !
 ! R35   R(27,34)                1.1022                                         !
 ! R36   R(28,35)                1.0971                                         !
 ! R37   R(28,36)                1.0953                                         !
 ! R38   R(28,37)                1.0965                                         !
 ! R39   R(29,38)                1.0971                                         !
 ! R40   R(29,39)                1.0956                                         !
 ! R41   R(29,40)                1.0953                                         !
 ! R42   R(41,42)                1.4516                                         !
 ! R43   R(41,49)                1.0132                                         !
 ! R44   R(42,43)                1.55                                           !
 ! R45   R(42,45)                1.5481                                         !
 ! R46   R(42,50)                1.0956                                         !
 ! R47   R(43,44)                1.2517                                         !
 ! R48   R(43,55)                1.3299                                         !
 ! R49   R(45,46)                1.5273                                         !
 ! R50   R(45,51)                1.0943                                         !
 ! R51   R(45,52)                1.0979                                         !
 ! R52   R(46,47)                1.3528                                         !
 ! R53   R(46,48)                1.2346                                         !
 ! R54   R(47,53)                1.0115                                         !
 ! R55   R(47,54)                1.0091                                         !
 ! R56   R(55,56)                1.4693                                         !
 ! R57   R(55,68)                1.0271                                         !
 ! R58   R(56,57)                1.5595                                         !
 ! R59   R(56,59)                1.5401                                         !
 ! R60   R(56,69)                1.0962                                         !
 ! R61   R(57,58)                1.2639                                         !
 ! R62   R(57,66)                1.2621                                         !
 ! R63   R(59,60)                1.5455                                         !
 ! R64   R(59,70)                1.0948                                         !
 ! R65   R(59,71)                1.0962                                         !
 ! R66   R(60,61)                1.5393                                         !
 ! R67   R(60,72)                1.0994                                         !
 ! R68   R(60,73)                1.0974                                         !
 ! R69   R(61,62)                1.4719                                         !
 ! R70   R(61,74)                1.0955                                         !
 ! R71   R(61,75)                1.0927                                         !
 ! R72   R(62,63)                1.3346                                         !
 ! R73   R(62,76)                1.0289                                         !
 ! R74   R(63,64)                1.3505                                         !
 ! R75   R(63,65)                1.3391                                         !
 ! R76   R(64,77)                1.009                                          !
 ! R77   R(64,78)                1.0092                                         !
 ! R78   R(65,79)                1.0102                                         !
 ! R79   R(65,80)                1.0359                                         !
 ! R80   R(66,67)                2.3407                                         !
 ! A1    A(2,1,12)             115.0079                                         !
 ! A2    A(2,1,21)             108.207                                          !
 ! A3    A(12,1,21)            105.8105                                         !
 ! A4    A(1,2,3)              103.5175                                         !
 ! A5    A(1,2,5)              109.3305                                         !
 ! A6    A(1,2,13)             107.527                                          !
 ! A7    A(3,2,5)              116.9673                                         !
 ! A8    A(3,2,13)             108.6151                                         !
 ! A9    A(5,2,13)             110.3345                                         !
 ! A10   A(2,3,4)              118.5936                                         !
 ! A11   A(2,3,22)             118.314                                          !
 ! A12   A(4,3,22)             123.0337                                         !
 ! A13   A(2,5,6)              112.3362                                         !
 ! A14   A(2,5,14)             107.9084                                         !
 ! A15   A(2,5,15)             108.424                                          !
 ! A16   A(6,5,14)             109.7196                                         !
 ! A17   A(6,5,15)             110.2584                                         !
 ! A18   A(14,5,15)            108.0712                                         !
 ! A19   A(5,6,7)              120.6043                                         !
 ! A20   A(5,6,8)              120.147                                          !
 ! A21   A(7,6,8)              119.1903                                         !
 ! A22   A(6,7,9)              120.5129                                         !
 ! A23   A(6,7,16)             119.7366                                         !
 ! A24   A(9,7,16)             119.7477                                         !
 ! A25   A(6,8,10)             120.2074                                         !
 ! A26   A(6,8,17)             120.2186                                         !
 ! A27   A(10,8,17)            119.5599                                         !
 ! A28   A(7,9,11)             120.0289                                         !
 ! A29   A(7,9,18)             119.8136                                         !
 ! A30   A(11,9,18)            120.1572                                         !
 ! A31   A(8,10,11)            120.2643                                         !
 ! A32   A(8,10,19)            119.4448                                         !
 ! A33   A(11,10,19)           120.2906                                         !
 ! A34   A(9,11,10)            119.7938                                         !
 ! A35   A(9,11,20)            120.0164                                         !
 ! A36   A(10,11,20)           120.1896                                         !
 ! A37   A(3,22,23)            120.359                                          !
 ! A38   A(3,22,30)            120.5545                                         !
 ! A39   A(23,22,30)           118.7996                                         !
 ! A40   A(22,23,24)           111.7829                                         !
 ! A41   A(22,23,26)           110.7618                                         !
 ! A42   A(22,23,31)           108.5572                                         !
 ! A43   A(24,23,26)           110.6531                                         !
 ! A44   A(24,23,31)           104.2841                                         !
 ! A45   A(26,23,31)           110.6049                                         !
 ! A46   A(23,24,25)           120.8723                                         !
 ! A47   A(23,24,41)           115.5896                                         !
 ! A48   A(25,24,41)           123.5029                                         !
 ! A49   A(23,26,27)           115.6902                                         !
 ! A50   A(23,26,32)           108.7783                                         !
 ! A51   A(23,26,33)           106.6135                                         !
 ! A52   A(27,26,32)           109.6793                                         !
 ! A53   A(27,26,33)           109.2441                                         !
 ! A54   A(32,26,33)           106.4085                                         !
 ! A55   A(26,27,28)           109.4699                                         !
 ! A56   A(26,27,29)           112.2263                                         !
 ! A57   A(26,27,34)           108.6698                                         !
 ! A58   A(28,27,29)           110.982                                          !
 ! A59   A(28,27,34)           107.4718                                         !
 ! A60   A(29,27,34)           107.8676                                         !
 ! A61   A(27,28,35)           110.6412                                         !
 ! A62   A(27,28,36)           110.9685                                         !
 ! A63   A(27,28,37)           111.6089                                         !
 ! A64   A(35,28,36)           107.7185                                         !
 ! A65   A(35,28,37)           107.7954                                         !
 ! A66   A(36,28,37)           107.9525                                         !
 ! A67   A(27,29,38)           110.6992                                         !
 ! A68   A(27,29,39)           112.2708                                         !
 ! A69   A(27,29,40)           110.6224                                         !
 ! A70   A(38,29,39)           107.8801                                         !
 ! A71   A(38,29,40)           107.7354                                         !
 ! A72   A(39,29,40)           107.4523                                         !
 ! A73   A(24,41,42)           120.0057                                         !
 ! A74   A(24,41,49)           117.1921                                         !
 ! A75   A(42,41,49)           112.3617                                         !
 ! A76   A(41,42,43)           106.482                                          !
 ! A77   A(41,42,45)           111.8442                                         !
 ! A78   A(41,42,50)           107.7974                                         !
 ! A79   A(43,42,45)           114.3161                                         !
 ! A80   A(43,42,50)           108.303                                          !
 ! A81   A(45,42,50)           107.8769                                         !
 ! A82   A(42,43,44)           119.4462                                         !
 ! A83   A(42,43,55)           116.1445                                         !
 ! A84   A(44,43,55)           124.3896                                         !
 ! A85   A(42,45,46)           113.3444                                         !
 ! A86   A(42,45,51)           106.9313                                         !
 ! A87   A(42,45,52)           110.9314                                         !
 ! A88   A(46,45,51)           109.8969                                         !
 ! A89   A(46,45,52)           108.696                                          !
 ! A90   A(51,45,52)           106.8333                                         !
 ! A91   A(45,46,47)           115.5946                                         !
 ! A92   A(45,46,48)           122.9424                                         !
 ! A93   A(47,46,48)           121.4517                                         !
 ! A94   A(46,47,53)           118.2533                                         !
 ! A95   A(46,47,54)           122.5954                                         !
 ! A96   A(53,47,54)           118.3052                                         !
 ! A97   A(43,55,56)           126.1251                                         !
 ! A98   A(43,55,68)           115.3053                                         !
 ! A99   A(56,55,68)           118.5529                                         !
 ! A100  A(55,56,57)           110.4329                                         !
 ! A101  A(55,56,59)           112.6747                                         !
 ! A102  A(55,56,69)           104.0546                                         !
 ! A103  A(57,56,59)           114.6261                                         !
 ! A104  A(57,56,69)           105.1479                                         !
 ! A105  A(59,56,69)           109.0714                                         !
 ! A106  A(56,57,58)           118.75                                           !
 ! A107  A(56,57,66)           115.5004                                         !
 ! A108  A(58,57,66)           125.6502                                         !
 ! A109  A(56,59,60)           114.8365                                         !
 ! A110  A(56,59,70)           108.7391                                         !
 ! A111  A(56,59,71)           107.5659                                         !
 ! A112  A(60,59,70)           110.8613                                         !
 ! A113  A(60,59,71)           106.99                                           !
 ! A114  A(70,59,71)           107.5483                                         !
 ! A115  A(59,60,61)           117.9445                                         !
 ! A116  A(59,60,72)           109.5787                                         !
 ! A117  A(59,60,73)           108.1071                                         !
 ! A118  A(61,60,72)           108.8345                                         !
 ! A119  A(61,60,73)           105.7449                                         !
 ! A120  A(72,60,73)           105.934                                          !
 ! A121  A(60,61,62)           114.7971                                         !
 ! A122  A(60,61,74)           109.7313                                         !
 ! A123  A(60,61,75)           110.2795                                         !
 ! A124  A(62,61,74)           109.7709                                         !
 ! A125  A(62,61,75)           105.2887                                         !
 ! A126  A(74,61,75)           106.5926                                         !
 ! A127  A(61,62,63)           126.0239                                         !
 ! A128  A(61,62,76)           112.1597                                         !
 ! A129  A(63,62,76)           116.3895                                         !
 ! A130  A(62,63,64)           120.1604                                         !
 ! A131  A(62,63,65)           119.6881                                         !
 ! A132  A(64,63,65)           120.1491                                         !
 ! A133  A(63,64,77)           120.8903                                         !
 ! A134  A(63,64,78)           120.3842                                         !
 ! A135  A(77,64,78)           117.0557                                         !
 ! A136  A(63,65,79)           120.2652                                         !
 ! A137  A(63,65,80)           119.5898                                         !
 ! A138  A(79,65,80)           117.8771                                         !
 ! A139  A(57,66,67)           102.7381                                         !
 ! D1    D(12,1,2,3)          -174.1196                                         !
 ! D2    D(12,1,2,5)            60.5284                                         !
 ! D3    D(12,1,2,13)          -59.2717                                         !
 ! D4    D(21,1,2,3)            67.8513                                         !
 ! D5    D(21,1,2,5)           -57.5007                                         !
 ! D6    D(21,1,2,13)         -177.3008                                         !
 ! D7    D(1,2,3,4)             35.3689                                         !
 ! D8    D(1,2,3,22)          -141.9297                                         !
 ! D9    D(5,2,3,4)            155.6538                                         !
 ! D10   D(5,2,3,22)           -21.6447                                         !
 ! D11   D(13,2,3,4)           -78.6984                                         !
 ! D12   D(13,2,3,22)          104.003                                          !
 ! D13   D(1,2,5,6)            -55.362                                          !
 ! D14   D(1,2,5,14)          -176.4353                                         !
 ! D15   D(1,2,5,15)            66.7405                                         !
 ! D16   D(3,2,5,6)           -172.5179                                         !
 ! D17   D(3,2,5,14)            66.4088                                         !
 ! D18   D(3,2,5,15)           -50.4154                                         !
 ! D19   D(13,2,5,6)            62.6957                                         !
 ! D20   D(13,2,5,14)          -58.3776                                         !
 ! D21   D(13,2,5,15)         -175.2018                                         !
 ! D22   D(2,3,22,23)          171.9019                                         !
 ! D23   D(2,3,22,30)           -1.8723                                         !
 ! D24   D(4,3,22,23)           -5.2686                                         !
 ! D25   D(4,3,22,30)         -179.0428                                         !
 ! D26   D(2,5,6,7)            -88.4981                                         !
 ! D27   D(2,5,6,8)             88.6999                                         !
 ! D28   D(14,5,6,7)            31.5297                                         !
 ! D29   D(14,5,6,8)          -151.2722                                         !
 ! D30   D(15,5,6,7)           150.4469                                         !
 ! D31   D(15,5,6,8)           -32.355                                          !
 ! D32   D(5,6,7,9)            177.422                                          !
 ! D33   D(5,6,7,16)            -3.1915                                         !
 ! D34   D(8,6,7,9)              0.1974                                         !
 ! D35   D(8,6,7,16)           179.5839                                         !
 ! D36   D(5,6,8,10)          -176.9755                                         !
 ! D37   D(5,6,8,17)             1.6498                                         !
 ! D38   D(7,6,8,10)             0.2621                                         !
 ! D39   D(7,6,8,17)           178.8873                                         !
 ! D40   D(6,7,9,11)            -0.389                                          !
 ! D41   D(6,7,9,18)           179.4083                                         !
 ! D42   D(16,7,9,11)         -179.7755                                         !
 ! D43   D(16,7,9,18)            0.0218                                         !
 ! D44   D(6,8,10,11)           -0.532                                          !
 ! D45   D(6,8,10,19)          179.6494                                         !
 ! D46   D(17,8,10,11)        -179.1663                                         !
 ! D47   D(17,8,10,19)           1.0152                                         !
 ! D48   D(7,9,11,10)            0.1195                                         !
 ! D49   D(7,9,11,20)          179.9659                                         !
 ! D50   D(18,9,11,10)        -179.6771                                         !
 ! D51   D(18,9,11,20)           0.1693                                         !
 ! D52   D(8,10,11,9)            0.3398                                         !
 ! D53   D(8,10,11,20)        -179.5064                                         !
 ! D54   D(19,10,11,9)        -179.8432                                         !
 ! D55   D(19,10,11,20)          0.3106                                         !
 ! D56   D(3,22,23,24)         -58.9983                                         !
 ! D57   D(3,22,23,26)         177.1044                                         !
 ! D58   D(3,22,23,31)          55.4852                                         !
 ! D59   D(30,22,23,24)        114.884                                          !
 ! D60   D(30,22,23,26)         -9.0133                                         !
 ! D61   D(30,22,23,31)       -130.6325                                         !
 ! D62   D(22,23,24,25)        150.2886                                         !
 ! D63   D(22,23,24,41)        -31.795                                          !
 ! D64   D(26,23,24,25)        -85.7529                                         !
 ! D65   D(26,23,24,41)         92.1634                                         !
 ! D66   D(31,23,24,25)         33.1979                                         !
 ! D67   D(31,23,24,41)       -148.8858                                         !
 ! D68   D(22,23,26,27)        -60.5486                                         !
 ! D69   D(22,23,26,32)         63.3873                                         !
 ! D70   D(22,23,26,33)        177.7688                                         !
 ! D71   D(24,23,26,27)        174.9091                                         !
 ! D72   D(24,23,26,32)        -61.1549                                         !
 ! D73   D(24,23,26,33)         53.2265                                         !
 ! D74   D(31,23,26,27)         59.8588                                         !
 ! D75   D(31,23,26,32)       -176.2052                                         !
 ! D76   D(31,23,26,33)        -61.8237                                         !
 ! D77   D(23,24,41,42)        154.6895                                         !
 ! D78   D(23,24,41,49)         12.4471                                         !
 ! D79   D(25,24,41,42)        -27.4553                                         !
 ! D80   D(25,24,41,49)       -169.6977                                         !
 ! D81   D(23,26,27,28)        178.9435                                         !
 ! D82   D(23,26,27,29)        -57.3639                                         !
 ! D83   D(23,26,27,34)         61.8407                                         !
 ! D84   D(32,26,27,28)         55.4787                                         !
 ! D85   D(32,26,27,29)        179.1714                                         !
 ! D86   D(32,26,27,34)        -61.6241                                         !
 ! D87   D(33,26,27,28)        -60.7922                                         !
 ! D88   D(33,26,27,29)         62.9005                                         !
 ! D89   D(33,26,27,34)       -177.895                                          !
 ! D90   D(26,27,28,35)         63.2971                                         !
 ! D91   D(26,27,28,36)       -177.1884                                         !
 ! D92   D(26,27,28,37)        -56.7348                                         !
 ! D93   D(29,27,28,35)        -61.1245                                         !
 ! D94   D(29,27,28,36)         58.3899                                         !
 ! D95   D(29,27,28,37)        178.8435                                         !
 ! D96   D(34,27,28,35)       -178.8485                                         !
 ! D97   D(34,27,28,36)        -59.334                                          !
 ! D98   D(34,27,28,37)         61.1196                                         !
 ! D99   D(26,27,29,38)        -57.3587                                         !
 ! D100  D(26,27,29,39)         63.266                                          !
 ! D101  D(26,27,29,40)       -176.7079                                         !
 ! D102  D(28,27,29,38)         65.4847                                         !
 ! D103  D(28,27,29,39)       -173.8905                                         !
 ! D104  D(28,27,29,40)        -53.8645                                         !
 ! D105  D(34,27,29,38)       -177.0325                                         !
 ! D106  D(34,27,29,39)        -56.4077                                         !
 ! D107  D(34,27,29,40)         63.6183                                         !
 ! D108  D(24,41,42,43)       -127.4651                                         !
 ! D109  D(24,41,42,45)        106.9971                                         !
 ! D110  D(24,41,42,50)        -11.429                                          !
 ! D111  D(49,41,42,43)         16.4534                                         !
 ! D112  D(49,41,42,45)       -109.0844                                         !
 ! D113  D(49,41,42,50)        132.4896                                         !
 ! D114  D(41,42,43,44)        -10.0737                                         !
 ! D115  D(41,42,43,55)        168.3867                                         !
 ! D116  D(45,42,43,44)        113.9472                                         !
 ! D117  D(45,42,43,55)        -67.5924                                         !
 ! D118  D(50,42,43,44)       -125.77                                           !
 ! D119  D(50,42,43,55)         52.6904                                         !
 ! D120  D(41,42,45,46)       -154.6241                                         !
 ! D121  D(41,42,45,51)        -33.369                                          !
 ! D122  D(41,42,45,52)         82.769                                          !
 ! D123  D(43,42,45,46)         84.2747                                         !
 ! D124  D(43,42,45,51)       -154.4701                                         !
 ! D125  D(43,42,45,52)        -38.3322                                         !
 ! D126  D(50,42,45,46)        -36.2453                                         !
 ! D127  D(50,42,45,51)         85.0098                                         !
 ! D128  D(50,42,45,52)       -158.8523                                         !
 ! D129  D(42,43,55,56)       -175.2439                                         !
 ! D130  D(42,43,55,68)          6.2743                                         !
 ! D131  D(44,43,55,56)          3.1314                                         !
 ! D132  D(44,43,55,68)       -175.3504                                         !
 ! D133  D(42,45,46,47)        153.4254                                         !
 ! D134  D(42,45,46,48)        -27.7837                                         !
 ! D135  D(51,45,46,47)         33.8524                                         !
 ! D136  D(51,45,46,48)       -147.3567                                         !
 ! D137  D(52,45,46,47)        -82.7378                                         !
 ! D138  D(52,45,46,48)         96.0531                                         !
 ! D139  D(45,46,47,53)       -178.274                                          !
 ! D140  D(45,46,47,54)         -8.9929                                         !
 ! D141  D(48,46,47,53)          2.9154                                         !
 ! D142  D(48,46,47,54)        172.1966                                         !
 ! D143  D(43,55,56,57)         38.4394                                         !
 ! D144  D(43,55,56,59)        -91.1714                                         !
 ! D145  D(43,55,56,69)        150.8181                                         !
 ! D146  D(68,55,56,57)       -143.1231                                         !
 ! D147  D(68,55,56,59)         87.266                                          !
 ! D148  D(68,55,56,69)        -30.7445                                         !
 ! D149  D(55,56,57,58)       -113.1303                                         !
 ! D150  D(55,56,57,66)         70.2902                                         !
 ! D151  D(59,56,57,58)         15.4283                                         !
 ! D152  D(59,56,57,66)       -161.1512                                         !
 ! D153  D(69,56,57,58)        135.1951                                         !
 ! D154  D(69,56,57,66)        -41.3844                                         !
 ! D155  D(55,56,59,60)       -150.0532                                         !
 ! D156  D(55,56,59,70)         85.1003                                         !
 ! D157  D(55,56,59,71)        -31.0898                                         !
 ! D158  D(57,56,59,60)         82.522                                          !
 ! D159  D(57,56,59,70)        -42.3244                                         !
 ! D160  D(57,56,59,71)       -158.5146                                         !
 ! D161  D(69,56,59,60)        -35.0346                                         !
 ! D162  D(69,56,59,70)       -159.8811                                         !
 ! D163  D(69,56,59,71)         83.9288                                         !
 ! D164  D(56,57,66,67)       -125.895                                          !
 ! D165  D(58,57,66,67)         57.7958                                         !
 ! D166  D(56,59,60,61)        -79.0079                                         !
 ! D167  D(56,59,60,72)         46.1997                                         !
 ! D168  D(56,59,60,73)        161.2147                                         !
 ! D169  D(70,59,60,61)         44.7178                                         !
 ! D170  D(70,59,60,72)        169.9254                                         !
 ! D171  D(70,59,60,73)        -75.0596                                         !
 ! D172  D(71,59,60,61)        161.7072                                         !
 ! D173  D(71,59,60,72)        -73.0852                                         !
 ! D174  D(71,59,60,73)         41.9298                                         !
 ! D175  D(59,60,61,62)         64.5489                                         !
 ! D176  D(59,60,61,74)       -171.2871                                         !
 ! D177  D(59,60,61,75)        -54.1607                                         !
 ! D178  D(72,60,61,62)        -61.0236                                         !
 ! D179  D(72,60,61,74)         63.1403                                         !
 ! D180  D(72,60,61,75)       -179.7332                                         !
 ! D181  D(73,60,61,62)       -174.4478                                         !
 ! D182  D(73,60,61,74)        -50.2839                                         !
 ! D183  D(73,60,61,75)         66.8425                                         !
 ! D184  D(60,61,62,63)         70.6164                                         !
 ! D185  D(60,61,62,76)        -82.2008                                         !
 ! D186  D(74,61,62,63)        -53.5266                                         !
 ! D187  D(74,61,62,76)        153.6562                                         !
 ! D188  D(75,61,62,63)       -167.9102                                         !
 ! D189  D(75,61,62,76)         39.2726                                         !
 ! D190  D(61,62,63,64)         31.132                                          !
 ! D191  D(61,62,63,65)       -149.4409                                         !
 ! D192  D(76,62,63,64)       -177.0519                                         !
 ! D193  D(76,62,63,65)          2.3752                                         !
 ! D194  D(62,63,64,77)       -175.0629                                         !
 ! D195  D(62,63,64,78)         20.0956                                         !
 ! D196  D(65,63,64,77)          5.5127                                         !
 ! D197  D(65,63,64,78)       -159.3288                                         !
 ! D198  D(62,63,65,79)       -169.0367                                         !
 ! D199  D(62,63,65,80)         28.4257                                         !
 ! D200  D(64,63,65,79)         10.3904                                         !
 ! D201  D(64,63,65,80)       -152.1472                                         !
 --------------------------------------------------------------------------------
 Symmetry turned off by external request.
 Stoichiometry    C25H41N8O6(1+)
 Framework group  C1[X(C25H41N8O6)]
 Deg. of freedom   234
 Full point group                 C1      NOp   1
                          Input orientation:                          
 ---------------------------------------------------------------------
 Center     Atomic      Atomic             Coordinates (Angstroms)
 Number     Number       Type             X           Y           Z
 ---------------------------------------------------------------------
      1          7           0       -2.034490    9.966530   -8.503278
      2          6           0       -1.863828    8.851383   -7.520353
      3          6           0       -3.217248    8.819637   -6.770765
      4          8           0       -4.241435    9.072699   -7.397080
      5          6           0       -0.601866    9.106437   -6.673622
      6          6           0        0.635807    9.296378   -7.527299
      7          6           0        1.412230    8.195679   -7.912791
      8          6           0        0.983527   10.574470   -7.989561
      9          6           0        2.520422    8.366480   -8.742683
     10          6           0        2.087415   10.742017   -8.827840
     11          6           0        2.859319    9.641287   -9.203000
     12          1           0       -1.261575   10.081745   -9.166242
     13          1           0       -1.758164    7.922423   -8.090577
     14          1           0       -0.463401    8.246625   -6.007378
     15          1           0       -0.774483    9.992853   -6.053164
     16          1           0        1.154570    7.201211   -7.553941
     17          1           0        0.382235   11.437747   -7.715560
     18          1           0        3.120075    7.506483   -9.026702
     19          1           0        2.342067   11.736336   -9.183051
     20          1           0        3.722583    9.774125   -9.848739
     21          1           0       -2.090036   10.865126   -7.971497
     22          7           0       -3.208805    8.567899   -5.440490
     23          6           0       -4.440610    8.701191   -4.651998
     24          6           0       -5.020718   10.131510   -4.731804
     25          8           0       -6.220630   10.326483   -4.634350
     26          6           0       -4.198267    8.295938   -3.191390
     27          6           0       -3.734056    6.842032   -2.969134
     28          6           0       -3.510535    6.599693   -1.469231
     29          6           0       -4.722933    5.821786   -3.549266
     30          1           0       -2.341319    8.377772   -4.959405
     31          1           0       -5.211385    8.072301   -5.102495
     32          1           0       -3.468825    8.989606   -2.747812
     33          1           0       -5.143544    8.458807   -2.659840
     34          1           0       -2.765361    6.699654   -3.475321
     35          1           0       -4.451284    6.708636   -0.915477
     36          1           0       -3.132161    5.587991   -1.287772
     37          1           0       -2.789640    7.310701   -1.048327
     38          1           0       -5.720661    5.957805   -3.113669
     39          1           0       -4.816578    5.906779   -4.637503
     40          1           0       -4.398035    4.799821   -3.326339
     41          7           0       -4.098934   11.137824   -4.871098
     42          6           0       -4.483182   12.393819   -5.489250
     43          6           0       -3.453987   12.662021   -6.616756
     44          8           0       -2.427834   11.949611   -6.695442
     45          6           0       -4.601787   13.534880   -4.449768
     46          6           0       -5.549909   14.651443   -4.882281
     47          7           0       -6.127279   15.349666   -3.877750
     48          8           0       -5.767775   14.926272   -6.066053
     49          1           0       -3.150450   10.867964   -5.103762
     50          1           0       -5.467891   12.253561   -5.948498
     51          1           0       -4.958848   13.082619   -3.519413
     52          1           0       -3.618275   13.972349   -4.233626
     53          1           0       -6.783106   16.081252   -4.118375
     54          1           0       -6.054507   15.071438   -2.910454
     55          7           0       -3.756683   13.639547   -7.466092
     56          6           0       -2.993360   14.012883   -8.664784
     57          6           0       -2.445896   12.739763   -9.380049
     58          8           0       -1.197144   12.546224   -9.405270
     59          6           0       -1.934807   15.094976   -8.381406
     60          6           0       -1.623801   16.027012   -9.574331
     61          6           0       -0.689889   15.498793  -10.678073
     62          7           0       -1.213707   14.347888  -11.431447
     63          6           0       -2.223228   14.374678  -12.304018
     64          7           0       -2.457178   15.484490  -13.037082
     65          7           0       -2.996032   13.291940  -12.457575
     66          8           0       -3.313453   12.020093   -9.947868
     67          1           0       -2.925412    9.909549   -9.012999
     68          1           0       -4.594468   14.184002   -7.228278
     69          1           0       -3.749474   14.421043   -9.345457
     70          1           0       -1.023411   14.608932   -8.018457
     71          1           0       -2.316907   15.727603   -7.571756
     72          1           0       -2.564134   16.361802  -10.035204
     73          1           0       -1.141025   16.931693   -9.183496
     74          1           0       -0.438046   16.310570  -11.369290
     75          1           0        0.252223   15.154642  -10.244422
     76          1           0       -1.059089   13.458289  -10.938172
     77          1           0       -3.260156   15.543896  -13.645217
     78          1           0       -1.730569   16.172524  -13.167664
     79          1           0       -3.652419   13.239422  -13.223612
     80          1           0       -3.124191   12.638258  -11.664203
 ---------------------------------------------------------------------
 Rotational constants (GHZ):           0.1053940           0.0662322           0.0465722
 Standard basis: 6-31G(d) (6D, 7F)
   667 basis functions,  1256 primitive gaussians,   667 cartesian basis functions
   147 alpha electrons      147 beta electrons
       nuclear repulsion energy      4877.0419832737 Hartrees.
 NAtoms=   80 NActive=   80 NUniq=   80 SFac= 1.00D+00 NAtFMM=   60 NAOKFM=T Big=T
 Integral buffers will be    131072 words long.
 Raffenetti 2 integral format.
 Two-electron integral symmetry is turned off.
 Nuclear repulsion after empirical dispersion term =     4876.9300892086 Hartrees.
 One-electron integrals computed using PRISM.
 NBasis=   667 RedAO= T EigKep=  4.64D-04  NBF=   667
 NBsUse=   667 1.00D-06 EigRej= -1.00D+00 NBFU=   667
 Initial guess from the checkpoint file:  "conf-123.chk"
 B after Tr=     0.000000    0.000000    0.000000
         Rot=    1.000000    0.000000    0.000000    0.000000 Ang=   0.00 deg.
 Requested convergence on RMS density matrix=1.00D-08 within 128 cycles.
 Requested convergence on MAX density matrix=1.00D-06.
 Requested convergence on             energy=1.00D-06.
 No special actions if energy rises.
 SCF Done:  E(RB3LYP) =  -1866.74465096     A.U. after    2 cycles
            NFock=  2  Conv=0.82D-08     -V/T= 2.0094

 **********************************************************************

            Population analysis using the SCF Density.

 **********************************************************************

 Alpha  occ. eigenvalues --  -19.22460 -19.22226 -19.21333 -19.19101 -19.18564
 Alpha  occ. eigenvalues --  -19.18423 -14.52047 -14.50096 -14.48085 -14.47716
 Alpha  occ. eigenvalues --  -14.46902 -14.45038 -14.44997 -14.43217 -10.45382
 Alpha  occ. eigenvalues --  -10.39725 -10.38901 -10.38840 -10.36716 -10.36281
 Alpha  occ. eigenvalues --  -10.36032 -10.33605 -10.32551 -10.31726 -10.31460
 Alpha  occ. eigenvalues --  -10.30514 -10.29226 -10.28895 -10.28694 -10.27450
 Alpha  occ. eigenvalues --  -10.27348 -10.27105 -10.27097 -10.27086 -10.27033
 Alpha  occ. eigenvalues --  -10.26941 -10.26908 -10.24195 -10.24176  -1.14884
 Alpha  occ. eigenvalues --   -1.14013  -1.13746  -1.12844  -1.11950  -1.11037
 Alpha  occ. eigenvalues --   -1.07706  -1.03535  -1.03190  -1.02649  -1.01884
 Alpha  occ. eigenvalues --   -1.01543  -1.00212  -0.99741  -0.94207  -0.89982
 Alpha  occ. eigenvalues --   -0.89297  -0.88438  -0.87051  -0.84040  -0.83670
 Alpha  occ. eigenvalues --   -0.82595  -0.81747  -0.78872  -0.76680  -0.76061
 Alpha  occ. eigenvalues --   -0.75219  -0.74929  -0.72843  -0.70948  -0.70130
 Alpha  occ. eigenvalues --   -0.69994  -0.69058  -0.68919  -0.67736  -0.67435
 Alpha  occ. eigenvalues --   -0.66927  -0.66646  -0.65897  -0.65466  -0.64163
 Alpha  occ. eigenvalues --   -0.63902  -0.63083  -0.62730  -0.62242  -0.60969
 Alpha  occ. eigenvalues --   -0.59871  -0.59305  -0.58929  -0.58393  -0.57640
 Alpha  occ. eigenvalues --   -0.57055  -0.56359  -0.55542  -0.55275  -0.54537
 Alpha  occ. eigenvalues --   -0.54319  -0.53981  -0.53609  -0.53494  -0.52999
 Alpha  occ. eigenvalues --   -0.52748  -0.52191  -0.51952  -0.51667  -0.51166
 Alpha  occ. eigenvalues --   -0.50485  -0.50264  -0.50133  -0.49623  -0.49214
 Alpha  occ. eigenvalues --   -0.49021  -0.48685  -0.48466  -0.47912  -0.47252
 Alpha  occ. eigenvalues --   -0.46853  -0.46506  -0.46195  -0.45723  -0.45562
 Alpha  occ. eigenvalues --   -0.45379  -0.44939  -0.44654  -0.44224  -0.43975
 Alpha  occ. eigenvalues --   -0.43214  -0.42994  -0.42659  -0.42218  -0.40757
 Alpha  occ. eigenvalues --   -0.40259  -0.40138  -0.39850  -0.37803  -0.37350
 Alpha  occ. eigenvalues --   -0.36732  -0.36348  -0.36266  -0.35835  -0.35247
 Alpha  occ. eigenvalues --   -0.34732  -0.33682  -0.33247  -0.32888  -0.32729
 Alpha  occ. eigenvalues --   -0.32154  -0.32076
 Alpha virt. eigenvalues --   -0.10270  -0.09345  -0.08779  -0.08528  -0.08063
 Alpha virt. eigenvalues --   -0.06897  -0.06535  -0.05651  -0.05318  -0.03013
 Alpha virt. eigenvalues --   -0.02712  -0.00653  -0.00361   0.00467   0.00570
 Alpha virt. eigenvalues --    0.01267   0.01523   0.01855   0.02051   0.02589
 Alpha virt. eigenvalues --    0.02855   0.03793   0.04237   0.04900   0.05131
 Alpha virt. eigenvalues --    0.05364   0.05642   0.05859   0.06159   0.06257
 Alpha virt. eigenvalues --    0.06571   0.06847   0.07197   0.07476   0.08059
 Alpha virt. eigenvalues --    0.08279   0.08334   0.08544   0.08679   0.08984
 Alpha virt. eigenvalues --    0.09376   0.09565   0.10187   0.10570   0.10918
 Alpha virt. eigenvalues --    0.11412   0.11713   0.11924   0.12311   0.12731
 Alpha virt. eigenvalues --    0.13018   0.13367   0.13539   0.13738   0.14579
 Alpha virt. eigenvalues --    0.14620   0.14915   0.15074   0.15519   0.15932
 Alpha virt. eigenvalues --    0.16041   0.16909   0.17156   0.17690   0.18276
 Alpha virt. eigenvalues --    0.18849   0.19362   0.19759   0.20448   0.21175
 Alpha virt. eigenvalues --    0.22918   0.23455   0.23788   0.24786   0.25068
 Alpha virt. eigenvalues --    0.25902   0.26847   0.26976   0.27586   0.27719
 Alpha virt. eigenvalues --    0.29041   0.30564   0.30979   0.31539   0.33847
 Alpha virt. eigenvalues --    0.34202   0.35566   0.36571   0.38081   0.39605
 Alpha virt. eigenvalues --    0.40379   0.41158   0.41575   0.42781   0.42885
 Alpha virt. eigenvalues --    0.43365   0.43503   0.43679   0.44048   0.44450
 Alpha virt. eigenvalues --    0.44718   0.44846   0.45530   0.45717   0.45933
 Alpha virt. eigenvalues --    0.46539   0.46915   0.47315   0.48257   0.48384
 Alpha virt. eigenvalues --    0.49203   0.49328   0.49838   0.50005   0.50413
 Alpha virt. eigenvalues --    0.51078   0.51298   0.51417   0.51704   0.52102
 Alpha virt. eigenvalues --    0.52638   0.53041   0.53345   0.53557   0.53809
 Alpha virt. eigenvalues --    0.54036   0.54326   0.55432   0.55631   0.56079
 Alpha virt. eigenvalues --    0.56404   0.56786   0.56880   0.56904   0.57308
 Alpha virt. eigenvalues --    0.58164   0.58192   0.58473   0.58906   0.59842
 Alpha virt. eigenvalues --    0.60567   0.60809   0.61423   0.61571   0.62539
 Alpha virt. eigenvalues --    0.63614   0.63851   0.63946   0.64454   0.64962
 Alpha virt. eigenvalues --    0.65305   0.65490   0.66185   0.66855   0.67342
 Alpha virt. eigenvalues --    0.68801   0.69022   0.69885   0.70223   0.70587
 Alpha virt. eigenvalues --    0.71375   0.71730   0.72313   0.72691   0.72899
 Alpha virt. eigenvalues --    0.73272   0.73812   0.74850   0.75148   0.75276
 Alpha virt. eigenvalues --    0.75846   0.76061   0.76124   0.76627   0.77124
 Alpha virt. eigenvalues --    0.77347   0.77663   0.77904   0.78599   0.78760
 Alpha virt. eigenvalues --    0.79002   0.79371   0.79604   0.80258   0.80548
 Alpha virt. eigenvalues --    0.80922   0.81352   0.81537   0.82095   0.82256
 Alpha virt. eigenvalues --    0.82779   0.82960   0.83513   0.83995   0.84150
 Alpha virt. eigenvalues --    0.84309   0.84639   0.85065   0.85316   0.85915
 Alpha virt. eigenvalues --    0.86139   0.86395   0.86925   0.87202   0.87254
 Alpha virt. eigenvalues --    0.87681   0.88318   0.89163   0.89301   0.89807
 Alpha virt. eigenvalues --    0.90616   0.91112   0.91232   0.92235   0.92639
 Alpha virt. eigenvalues --    0.93288   0.93694   0.94314   0.94714   0.95993
 Alpha virt. eigenvalues --    0.96167   0.96939   0.97470   0.98404   0.99138
 Alpha virt. eigenvalues --    0.99940   1.00430   1.01071   1.01563   1.02686
 Alpha virt. eigenvalues --    1.02948   1.03635   1.04642   1.05759   1.05842
 Alpha virt. eigenvalues --    1.06868   1.07315   1.07984   1.08842   1.09782
 Alpha virt. eigenvalues --    1.10945   1.11403   1.11854   1.12589   1.12932
 Alpha virt. eigenvalues --    1.14153   1.14693   1.15807   1.16672   1.17089
 Alpha virt. eigenvalues --    1.17317   1.17984   1.18276   1.19063   1.19382
 Alpha virt. eigenvalues --    1.21189   1.22505   1.22537   1.23430   1.24200
 Alpha virt. eigenvalues --    1.24765   1.26602   1.27300   1.28747   1.29508
 Alpha virt. eigenvalues --    1.30370   1.31585   1.32806   1.33042   1.34399
 Alpha virt. eigenvalues --    1.35215   1.35361   1.35638   1.36388   1.37467
 Alpha virt. eigenvalues --    1.38811   1.39089   1.39852   1.40124   1.40295
 Alpha virt. eigenvalues --    1.41040   1.41611   1.42012   1.42798   1.43444
 Alpha virt. eigenvalues --    1.43856   1.44390   1.45239   1.45783   1.47745
 Alpha virt. eigenvalues --    1.48210   1.49360   1.49595   1.51090   1.52222
 Alpha virt. eigenvalues --    1.53674   1.55410   1.55961   1.56580   1.57558
 Alpha virt. eigenvalues --    1.57788   1.58607   1.59764   1.60519   1.61407
 Alpha virt. eigenvalues --    1.63102   1.63730   1.64495   1.65108   1.65724
 Alpha virt. eigenvalues --    1.66198   1.66904   1.67839   1.68356   1.68917
 Alpha virt. eigenvalues --    1.69188   1.69866   1.70447   1.71342   1.71501
 Alpha virt. eigenvalues --    1.71792   1.72098   1.72647   1.73105   1.73284
 Alpha virt. eigenvalues --    1.73787   1.75386   1.75818   1.76458   1.76997
 Alpha virt. eigenvalues --    1.77733   1.77923   1.78301   1.79077   1.79962
 Alpha virt. eigenvalues --    1.80639   1.81237   1.81618   1.81728   1.82342
 Alpha virt. eigenvalues --    1.83101   1.83414   1.84359   1.84702   1.84993
 Alpha virt. eigenvalues --    1.85374   1.85872   1.86816   1.87879   1.88276
 Alpha virt. eigenvalues --    1.88906   1.89302   1.89607   1.90076   1.90681
 Alpha virt. eigenvalues --    1.90827   1.92230   1.92735   1.93069   1.93498
 Alpha virt. eigenvalues --    1.93893   1.94329   1.95460   1.95869   1.96971
 Alpha virt. eigenvalues --    1.97545   1.97861   1.98189   1.99234   1.99401
 Alpha virt. eigenvalues --    2.00473   2.01069   2.01262   2.02334   2.03256
 Alpha virt. eigenvalues --    2.04087   2.05230   2.06207   2.06588   2.07208
 Alpha virt. eigenvalues --    2.07382   2.08588   2.08756   2.10523   2.10687
 Alpha virt. eigenvalues --    2.11597   2.12862   2.13400   2.13934   2.14667
 Alpha virt. eigenvalues --    2.15023   2.15880   2.16273   2.17097   2.18378
 Alpha virt. eigenvalues --    2.18596   2.19710   2.20483   2.20675   2.22046
 Alpha virt. eigenvalues --    2.22886   2.23043   2.23862   2.24142   2.25347
 Alpha virt. eigenvalues --    2.26642   2.27698   2.28119   2.28849   2.30274
 Alpha virt. eigenvalues --    2.30853   2.31287   2.33244   2.33530   2.34842
 Alpha virt. eigenvalues --    2.35495   2.36541   2.36937   2.38311   2.39545
 Alpha virt. eigenvalues --    2.40255   2.41118   2.42412   2.43069   2.44207
 Alpha virt. eigenvalues --    2.44804   2.45406   2.46136   2.46963   2.47633
 Alpha virt. eigenvalues --    2.48612   2.48907   2.49287   2.50047   2.51206
 Alpha virt. eigenvalues --    2.51851   2.51930   2.52791   2.53261   2.54716
 Alpha virt. eigenvalues --    2.56859   2.57073   2.57917   2.58656   2.59739
 Alpha virt. eigenvalues --    2.61812   2.62133   2.62542   2.63251   2.63945
 Alpha virt. eigenvalues --    2.64775   2.65183   2.66676   2.67388   2.68191
 Alpha virt. eigenvalues --    2.68629   2.69310   2.70989   2.72385   2.74874
 Alpha virt. eigenvalues --    2.76044   2.79289   2.80766   2.84490   2.88042
 Alpha virt. eigenvalues --    2.88291   2.88988   2.92351   2.92637   2.93709
 Alpha virt. eigenvalues --    2.94584   2.95097   2.97082   2.97863   2.98464
 Alpha virt. eigenvalues --    2.98972   3.05036   3.07839   3.09322   3.12069
 Alpha virt. eigenvalues --    3.32721   3.69079   3.72022   3.78435   3.86702
 Alpha virt. eigenvalues --    3.88064   3.92556   3.93398   3.97069   3.98604
 Alpha virt. eigenvalues --    4.01025   4.01460   4.03877   4.04848   4.06216
 Alpha virt. eigenvalues --    4.08875   4.10219   4.12831   4.14223   4.16964
 Alpha virt. eigenvalues --    4.17566   4.21219   4.22688   4.24819   4.25943
 Alpha virt. eigenvalues --    4.27847   4.29763   4.32930   4.33530   4.37689
 Alpha virt. eigenvalues --    4.41125   4.45940   4.47195   4.50284   4.51432
 Alpha virt. eigenvalues --    4.54458   4.57357   4.62484   4.65332   4.67537
          Condensed to atoms (all electrons):
 Mulliken charges:
               1
     1  N   -0.786775
     2  C   -0.087009
     3  C    0.639144
     4  O   -0.510710
     5  C   -0.404122
     6  C    0.133265
     7  C   -0.179568
     8  C   -0.206848
     9  C   -0.127616
    10  C   -0.128120
    11  C   -0.125444
    12  H    0.404450
    13  H    0.211095
    14  H    0.168755
    15  H    0.194317
    16  H    0.134101
    17  H    0.173604
    18  H    0.152448
    19  H    0.142899
    20  H    0.149781
    21  H    0.482524
    22  N   -0.650047
    23  C   -0.024131
    24  C    0.604548
    25  O   -0.503229
    26  C   -0.306025
    27  C   -0.077034
    28  C   -0.443493
    29  C   -0.451920
    30  H    0.350217
    31  H    0.205600
    32  H    0.137851
    33  H    0.180448
    34  H    0.108284
    35  H    0.155369
    36  H    0.157276
    37  H    0.143602
    38  H    0.158234
    39  H    0.148366
    40  H    0.158135
    41  N   -0.613184
    42  C   -0.056871
    43  C    0.620426
    44  O   -0.609769
    45  C   -0.377616
    46  C    0.631380
    47  N   -0.736493
    48  O   -0.532539
    49  H    0.343454
    50  H    0.218270
    51  H    0.191457
    52  H    0.189631
    53  H    0.361656
    54  H    0.356523
    55  N   -0.615328
    56  C    0.010119
    57  C    0.540079
    58  O   -0.609544
    59  C   -0.269060
    60  C   -0.280978
    61  C   -0.161550
    62  N   -0.603045
    63  C    0.775512
    64  N   -0.757651
    65  N   -0.779431
    66  O   -0.601390
    67  H    0.419127
    68  H    0.401201
    69  H    0.147276
    70  H    0.175799
    71  H    0.150533
    72  H    0.147809
    73  H    0.165752
    74  H    0.155138
    75  H    0.193125
    76  H    0.397770
    77  H    0.372304
    78  H    0.378164
    79  H    0.358094
    80  H    0.421633
 Sum of Mulliken charges =   1.00000
 Mulliken charges with hydrogens summed into heavy atoms:
               1
     1  N    0.519326
     2  C    0.124086
     3  C    0.639144
     4  O   -0.510710
     5  C   -0.041051
     6  C    0.133265
     7  C   -0.045466
     8  C   -0.033244
     9  C    0.024832
    10  C    0.014779
    11  C    0.024337
    22  N   -0.299831
    23  C    0.181469
    24  C    0.604548
    25  O   -0.503229
    26  C    0.012274
    27  C    0.031250
    28  C    0.012754
    29  C    0.012815
    41  N   -0.269729
    42  C    0.161399
    43  C    0.620426
    44  O   -0.609769
    45  C    0.003471
    46  C    0.631380
    47  N   -0.018313
    48  O   -0.532539
    55  N   -0.214127
    56  C    0.157395
    57  C    0.540079
    58  O   -0.609544
    59  C    0.057271
    60  C    0.032582
    61  C    0.186713
    62  N   -0.205275
    63  C    0.775512
    64  N   -0.007183
    65  N    0.000296
    66  O   -0.601390
 Electronic spatial extent (au):  <R**2>=         222044.6697
 Charge=              1.0000 electrons
 Dipole moment (field-independent basis, Debye):
    X=             -9.0040    Y=             62.0806    Z=            -41.9455  Tot=             75.4619
 Quadrupole moment (field-independent basis, Debye-Ang):
   XX=           -203.0608   YY=            654.6093   ZZ=            247.2228
   XY=           -141.4069   XZ=             64.4942   YZ=           -578.9904
 Traceless Quadrupole moment (field-independent basis, Debye-Ang):
   XX=           -435.9846   YY=            421.6855   ZZ=             14.2991
   XY=           -141.4069   XZ=             64.4942   YZ=           -578.9904
 Octapole moment (field-independent basis, Debye-Ang**2):
  XXX=           1750.9408  YYY=           5491.5808  ZZZ=           -996.1155  XYY=          -1700.4340
  XXY=          -2095.4528  XXZ=           1490.9184  XZZ=           -287.4075  YZZ=           4254.0339
  YYZ=          -6881.9628  XYZ=           1081.2662
 Hexadecapole moment (field-independent basis, Debye-Ang**3):
 XXXX=         -16813.0240 YYYY=          16660.4363 ZZZZ=          -5765.8152 XXXY=          18999.9348
 XXXZ=         -10805.0379 YYYX=         -16480.4395 YYYZ=         -71225.5811 ZZZX=           2793.7673
 ZZZY=         -28375.9413 XXYY=         -25013.0607 XXZZ=         -13821.2288 YYZZ=          57594.8769
 XXYZ=          16653.1224 YYXZ=          14260.4649 ZZXY=          -7272.9408
 N-N= 4.876930089209D+03 E-N=-1.407459441081D+04  KE= 1.849294598766D+03
 Unable to Open any file for archive entry.
 1\1\GINC-QML-003\SP\RB3LYP\6-31G(d)\C25H41N8O6(1+)\KENGMITH\11-Jun-202
 2\0\\# B3LYP/6-31G* empiricaldispersion=gd3 guess=read geom=check nosy
 mm integral(ultrafinegrid)\\Candidate Structure: Conf:123 Charge calc 
 in gas phase\\1,1\N,0,-2.0344899731,9.9665295084,-8.5032776062\C,0,-1.
 8638277934,8.8513833321,-7.5203527519\C,0,-3.2172475735,8.8196369738,-
 6.7707650538\O,0,-4.2414346903,9.0726989502,-7.3970801074\C,0,-0.60186
 61959,9.1064366896,-6.673621548\C,0,0.6358068395,9.2963781514,-7.52729
 89812\C,0,1.4122298145,8.1956792435,-7.912790504\C,0,0.9835268219,10.5
 744703744,-7.9895610218\C,0,2.5204224456,8.3664798184,-8.7426829498\C,
 0,2.0874154491,10.7420167258,-8.8278404796\C,0,2.859319115,9.641286945
 3,-9.2029996818\H,0,-1.2615746937,10.0817448507,-9.166241998\H,0,-1.75
 81640957,7.9224229593,-8.0905774302\H,0,-0.463401428,8.2466252031,-6.0
 073780601\H,0,-0.7744825196,9.992852644,-6.0531638237\H,0,1.1545703201
 ,7.2012106012,-7.5539405056\H,0,0.382234787,11.437746773,-7.7155601813
 \H,0,3.1200753816,7.5064829958,-9.0267024765\H,0,2.3420665512,11.73633
 58057,-9.1830512214\H,0,3.7225829503,9.7741252346,-9.8487387104\H,0,-2
 .0900358939,10.8651256821,-7.9714972348\N,0,-3.208804905,8.5678985319,
 -5.4404901511\C,0,-4.4406103103,8.7011905468,-4.651998302\C,0,-5.02071
 79184,10.1315102614,-4.7318036112\O,0,-6.2206297204,10.3264828657,-4.6
 343497665\C,0,-4.1982670559,8.2959382552,-3.1913904961\C,0,-3.73405643
 3,6.8420315217,-2.9691340573\C,0,-3.5105347577,6.5996932574,-1.4692310
 949\C,0,-4.7229325305,5.82178578,-3.5492660052\H,0,-2.3413192502,8.377
 7721457,-4.9594051962\H,0,-5.2113854641,8.072300634,-5.1024950384\H,0,
 -3.4688251674,8.9896064693,-2.7478122862\H,0,-5.1435443408,8.458806617
 ,-2.6598403449\H,0,-2.765360709,6.6996544072,-3.4753205871\H,0,-4.4512
 835819,6.7086364953,-0.9154770156\H,0,-3.1321614886,5.5879908356,-1.28
 77715679\H,0,-2.7896403754,7.3107008954,-1.0483271838\H,0,-5.720660887
 9,5.9578046073,-3.1136693775\H,0,-4.8165781823,5.9067793204,-4.6375033
 755\H,0,-4.3980348305,4.7998205639,-3.3263390077\N,0,-4.0989343318,11.
 1378244347,-4.8710981549\C,0,-4.4831820448,12.3938189997,-5.489249771\
 C,0,-3.4539870146,12.6620210871,-6.6167564834\O,0,-2.4278340864,11.949
 610554,-6.6954419298\C,0,-4.6017870583,13.5348795517,-4.4497680448\C,0
 ,-5.5499087962,14.6514433744,-4.8822807092\N,0,-6.1272789459,15.349666
 2427,-3.8777501271\O,0,-5.7677747004,14.926272108,-6.0660534587\H,0,-3
 .1504501662,10.867964106,-5.1037619076\H,0,-5.4678910378,12.2535610091
 ,-5.9484978717\H,0,-4.9588480511,13.0826186573,-3.5194129317\H,0,-3.61
 82750427,13.9723492062,-4.2336260496\H,0,-6.7831064055,16.0812524303,-
 4.1183746068\H,0,-6.054507217,15.0714379779,-2.9104542311\N,0,-3.75668
 25306,13.6395465826,-7.466091995\C,0,-2.9933596124,14.0128827484,-8.66
 47843133\C,0,-2.4458956119,12.7397625386,-9.3800489443\O,0,-1.19714428
 4,12.5462238926,-9.4052700733\C,0,-1.9348067995,15.0949763084,-8.38140
 6437\C,0,-1.623801376,16.0270116452,-9.5743314951\C,0,-0.689889009,15.
 4987931619,-10.6780732562\N,0,-1.2137073348,14.3478876921,-11.43144713
 02\C,0,-2.2232279972,14.3746779802,-12.3040176249\N,0,-2.4571776261,15
 .484489902,-13.0370821989\N,0,-2.9960316719,13.291940318,-12.457574969
 7\O,0,-3.3134531454,12.0200926425,-9.9478678336\H,0,-2.9254118601,9.90
 9549307,-9.0129989022\H,0,-4.594468254,14.1840017041,-7.228277744\H,0,
 -3.7494739054,14.4210430766,-9.3454572071\H,0,-1.0234114958,14.6089318
 706,-8.018456986\H,0,-2.3169071419,15.7276029597,-7.5717558054\H,0,-2.
 5641341786,16.3618023645,-10.0352044983\H,0,-1.1410247853,16.931692773
 2,-9.1834961679\H,0,-0.4380461163,16.3105704322,-11.3692904625\H,0,0.2
 522234977,15.1546417499,-10.2444224412\H,0,-1.0590893639,13.4582887099
 ,-10.9381717089\H,0,-3.260155694,15.5438958392,-13.6452169405\H,0,-1.7
 305694567,16.1725238664,-13.1676640202\H,0,-3.6524192836,13.2394215568
 ,-13.2236116078\H,0,-3.1241905141,12.638258405,-11.6642029161\\Version
 =ES64L-G16RevC.01\HF=-1866.744651\RMSD=8.227e-09\Dipole=1.4072793,2.88
 33301,-2.7938395\Quadrupole=-324.1438341,313.512828,10.6310061,-105.13
 25793,47.949865,-430.4651499\PG=C01 [X(C25H41N8O6)]\\@
 The archive entry for this job was punched.


 10 WHATSOEVER THY HAND FINDETH TO DO, DO IT WITH THY  
 MIGHT. FOR THERE IS NO WORK, NOR DEVICE, NOR KNOWLEDGE, NOR  
 WISDOM, IN THE GRAVE, WHITHER THOU GOEST.                    
 11 I RETURNED AND SAW UNDER THE SUN, THAT THE RACE IS NOT TO 
 THE SWIFT, NOR THE BATTLE TO THE STRONG, NEITHER YET BREAD TO
 THE WISE, NOR YET RICHES TO MEN OF UNDERSTANDING, NOR YET    
 FAVOR TO MEN OF SKILL. BUT TIME AND CHANCE HAPPEN TO THEM ALL.
 12 FOR MAN ALSO KNOWETH NOT HIS TIME. AS THE FISHES   
 THAT ARE TAKEN IN AN EVIL NET, AND AS THE BIRDS THAT ARE     
 CAUGHT IN THE SNARE. SO ARE THE SONS OF MEN SNARED IN AN EVIL
 TIME, WHEN IT FALLETH SUDDENLY UPON THEM.
                                         ECCLESIASTES 9
 Job cpu time:       0 days  0 hours  5 minutes  6.0 seconds.
 Elapsed time:       0 days  0 hours  1 minutes 17.2 seconds.
 File lengths (MBytes):  RWF=    344 Int=      0 D2E=      0 Chk=     48 Scr=     16
 Normal termination of Gaussian 16 at Sat Jun 11 21:07:40 2022.
