 Entering Gaussian System, Link 0=/opt/software/Gaussian/g16-AVX-C.01/g16/g16
 Input=charge-conf-211.com
 Output=charge-conf-211.log
 Initial command:
 /opt/software/Gaussian/g16-AVX-C.01/g16/l1.exe "/mnt/gs18/scratch/users/kengmith/Gau-10622.inp" -scrdir="/mnt/gs18/scratch/users/kengmith/"
 Entering Link 1 = /opt/software/Gaussian/g16-AVX-C.01/g16/l1.exe PID=     10649.
  
 Copyright (c) 1988-2019, Gaussian, Inc.  All Rights Reserved.
  
 This is part of the Gaussian(R) 16 program.  It is based on
 the Gaussian(R) 09 system (copyright 2009, Gaussian, Inc.),
 the Gaussian(R) 03 system (copyright 2003, Gaussian, Inc.),
 the Gaussian(R) 98 system (copyright 1998, Gaussian, Inc.),
 the Gaussian(R) 94 system (copyright 1995, Gaussian, Inc.),
 the Gaussian 92(TM) system (copyright 1992, Gaussian, Inc.),
 the Gaussian 90(TM) system (copyright 1990, Gaussian, Inc.),
 the Gaussian 88(TM) system (copyright 1988, Gaussian, Inc.),
 the Gaussian 86(TM) system (copyright 1986, Carnegie Mellon
 University), and the Gaussian 82(TM) system (copyright 1983,
 Carnegie Mellon University). Gaussian is a federally registered
 trademark of Gaussian, Inc.
  
 This software contains proprietary and confidential information,
 including trade secrets, belonging to Gaussian, Inc.
  
 This software is provided under written license and may be
 used, copied, transmitted, or stored only in accord with that
 written license.
  
 The following legend is applicable only to US Government
 contracts under FAR:
  
                    RESTRICTED RIGHTS LEGEND
  
 Use, reproduction and disclosure by the US Government is
 subject to restrictions as set forth in subparagraphs (a)
 and (c) of the Commercial Computer Software - Restricted
 Rights clause in FAR 52.227-19.
  
 Gaussian, Inc.
 340 Quinnipiac St., Bldg. 40, Wallingford CT 06492
  
  
 ---------------------------------------------------------------
 Warning -- This program may not be used in any manner that
 competes with the business of Gaussian, Inc. or will provide
 assistance to any competitor of Gaussian, Inc.  The licensee
 of this program is prohibited from giving any competitor of
 Gaussian, Inc. access to this program.  By using this program,
 the user acknowledges that Gaussian, Inc. is engaged in the
 business of creating and licensing software in the field of
 computational chemistry and represents and warrants to the
 licensee that it is not a competitor of Gaussian, Inc. and that
 it will not use this program in any manner prohibited above.
 ---------------------------------------------------------------
  

 Cite this work as:
 Gaussian 16, Revision C.01,
 M. J. Frisch, G. W. Trucks, H. B. Schlegel, G. E. Scuseria, 
 M. A. Robb, J. R. Cheeseman, G. Scalmani, V. Barone, 
 G. A. Petersson, H. Nakatsuji, X. Li, M. Caricato, A. V. Marenich, 
 J. Bloino, B. G. Janesko, R. Gomperts, B. Mennucci, H. P. Hratchian, 
 J. V. Ortiz, A. F. Izmaylov, J. L. Sonnenberg, D. Williams-Young, 
 F. Ding, F. Lipparini, F. Egidi, J. Goings, B. Peng, A. Petrone, 
 T. Henderson, D. Ranasinghe, V. G. Zakrzewski, J. Gao, N. Rega, 
 G. Zheng, W. Liang, M. Hada, M. Ehara, K. Toyota, R. Fukuda, 
 J. Hasegawa, M. Ishida, T. Nakajima, Y. Honda, O. Kitao, H. Nakai, 
 T. Vreven, K. Throssell, J. A. Montgomery, Jr., J. E. Peralta, 
 F. Ogliaro, M. J. Bearpark, J. J. Heyd, E. N. Brothers, K. N. Kudin, 
 V. N. Staroverov, T. A. Keith, R. Kobayashi, J. Normand, 
 K. Raghavachari, A. P. Rendell, J. C. Burant, S. S. Iyengar, 
 J. Tomasi, M. Cossi, J. M. Millam, M. Klene, C. Adamo, R. Cammi, 
 J. W. Ochterski, R. L. Martin, K. Morokuma, O. Farkas, 
 J. B. Foresman, and D. J. Fox, Gaussian, Inc., Wallingford CT, 2019.
 
 ******************************************
 Gaussian 16:  ES64L-G16RevC.01  3-Jul-2019
                11-Jun-2022 
 ******************************************
 %mem=8gb
 %nproc=4
 Will use up to    4 processors via shared memory.
 %chk=conf-211.chk
 ----------------------------------------------------------------------
 # B3LYP/6-31G* empiricaldispersion=gd3 guess=read geom=check nosymm in
 tegral(ultrafinegrid)
 ----------------------------------------------------------------------
 1/29=2,38=1,172=1/1;
 2/12=2,15=1,40=1/2;
 3/5=1,6=6,7=1,11=2,14=-4,25=1,30=1,74=-5,75=-5,116=-2,124=31/1,2,3;
 4/5=1/1;
 5/5=2,38=6/2;
 6/7=2,8=2,9=2,10=2,28=1/1;
 99/5=1,9=1/99;
 ------------------------------------------------------
 Candidate Structure: Conf:211 Charge calc in gas phase
 ------------------------------------------------------
 Structure from the checkpoint file:  "conf-211.chk"
 Charge =  1 Multiplicity = 1
 Redundant internal coordinates found in file.  (old form).
 N,0,-0.5115084095,10.0930234463,-8.0657816758
 C,0,0.123824065,10.3054040445,-6.7216432177
 C,0,-0.7650231485,9.4916862478,-5.757522179
 O,0,-1.4271593478,8.5596359602,-6.2137735746
 C,0,0.312434421,11.8070671762,-6.4180444429
 C,0,0.8523067875,12.5437984879,-7.6270249078
 C,0,2.2222164306,12.558585233,-7.9201085245
 C,0,-0.0472854365,13.1252684596,-8.5318112027
 C,0,2.6838078835,13.1471176836,-9.0990405473
 C,0,0.4108438867,13.6914800822,-9.7216312369
 C,0,1.7782202935,13.7065048367,-10.0047992861
 H,0,0.1159805808,10.3442984516,-8.8333223384
 H,0,1.1037669539,9.8165487044,-6.7747743518
 H,0,1.0087980906,11.8883736944,-5.5744020183
 H,0,-0.6489768883,12.2291392935,-6.1203206165
 H,0,2.9306823174,12.1160624702,-7.2224181997
 H,0,-1.1081749712,13.1123979504,-8.3029097626
 H,0,3.7487821845,13.164072243,-9.3124956497
 H,0,-0.3094773501,14.0924060461,-10.4275136386
 H,0,2.1395454425,14.1497453814,-10.9283325952
 H,0,-1.4002410125,10.6331371296,-8.2569666138
 N,0,-0.7969373276,9.8454780515,-4.4547142629
 C,0,-1.7661200593,9.2136444827,-3.541530691
 C,0,-3.185774137,9.2844729957,-4.1479538279
 O,0,-3.9793836989,8.3588421329,-4.0402590919
 C,0,-1.7120518672,9.8687340064,-2.1549233405
 C,0,-0.3565913574,9.7785314495,-1.4236586478
 C,0,-0.4591625572,10.4918643006,-0.06751816
 C,0,0.1141706181,8.32835986,-1.2484667234
 H,0,-0.2671859251,10.6432037017,-4.130853673
 H,0,-1.5450568209,8.1461676296,-3.4755841047
 H,0,-2.0136830865,10.9219921173,-2.2478343455
 H,0,-2.4817368438,9.3798546686,-1.5449958412
 H,0,0.4028119148,10.3112518873,-2.019363478
 H,0,-1.1886362494,9.9892589644,0.5795283892
 H,0,0.5054441021,10.4872116973,0.4510718894
 H,0,-0.7760112446,11.5351353545,-0.1828677788
 H,0,-0.6343816358,7.740875845,-0.7023409359
 H,0,0.2974519798,7.8321635154,-2.2079252343
 H,0,1.047634996,8.2925440292,-0.6768390059
 N,0,-3.4733625338,10.4434837967,-4.8112441041
 C,0,-4.3724834368,10.3774049413,-5.9468372999
 C,0,-3.904941087,11.4394137194,-6.958415143
 O,0,-2.8083674156,12.0059574505,-6.8015839478
 C,0,-5.8659063341,10.4674527286,-5.5394888805
 C,0,-6.66466521,9.5592244845,-6.4609860466
 N,0,-6.9066976962,8.3214078952,-5.9702868222
 O,0,-6.9918672355,9.9168498333,-7.5967827545
 H,0,-2.7198208643,11.104993619,-4.965867899
 H,0,-4.2117459822,9.4050260746,-6.4363908718
 H,0,-5.9478451538,10.1507205827,-4.4988011302
 H,0,-6.24535889,11.4890979296,-5.625272381
 H,0,-7.2886879239,7.6262993406,-6.598582314
 H,0,-6.417953388,8.0006343103,-5.1426932084
 N,0,-4.7218982652,11.6755924495,-7.9914747762
 C,0,-4.3177460594,12.5263753642,-9.104661172
 C,0,-3.0519857334,11.9837947318,-9.8497493539
 O,0,-2.6679434774,12.6928874395,-10.8382336575
 C,0,-4.2012683398,14.0248700839,-8.6748363661
 C,0,-5.3029516175,14.9426983362,-9.251880361
 C,0,-4.9592004155,15.5578747276,-10.6216111487
 N,0,-4.417976023,14.5611888262,-11.5452350334
 C,0,-4.9950172069,14.0026971428,-12.5975704994
 N,0,-6.0253273554,14.5699387379,-13.2592986038
 N,0,-4.5238992621,12.8113459415,-13.0232769753
 O,0,-2.5422085523,10.9084258032,-9.4829067058
 H,0,-0.7951176348,9.105718829,-8.1293427747
 H,0,-5.5895293322,11.1332010628,-8.058832544
 H,0,-5.1269942295,12.4368193764,-9.8381837913
 H,0,-3.211814336,14.4137548295,-8.9414826581
 H,0,-4.2480839483,14.0584993381,-7.5851559863
 H,0,-6.2460313548,14.3856501465,-9.3234126284
 H,0,-5.4879333731,15.7792874421,-8.5676263137
 H,0,-5.8391199529,16.0470327931,-11.0511004638
 H,0,-4.1929701884,16.3313080361,-10.4998128815
 H,0,-3.6076027954,13.9924872397,-11.1862559449
 H,0,-6.6003837294,14.0191332111,-13.8791581645
 H,0,-6.3579810851,15.4888808873,-13.0128506099
 H,0,-4.6190774786,12.5530239506,-13.9953164593
 H,0,-3.7369534161,12.4209982948,-12.4965150393
 Recover connectivity data from disk.
                           ----------------------------
                           !    Current Parameters    !
                           ! (Angstroms and Degrees)  !
 --------------------------                            --------------------------
 ! Name  Definition              Value                                          !
 --------------------------------------------------------------------------------
 ! R1    R(1,2)                  1.5018                                         !
 ! R2    R(1,12)                 1.0227                                         !
 ! R3    R(1,21)                 1.0574                                         !
 ! R4    R(2,3)                  1.5433                                         !
 ! R5    R(2,5)                  1.5436                                         !
 ! R6    R(2,13)                 1.0964                                         !
 ! R7    R(3,4)                  1.231                                          !
 ! R8    R(3,22)                 1.3504                                         !
 ! R9    R(5,6)                  1.5152                                         !
 ! R10   R(5,14)                 1.0969                                         !
 ! R11   R(5,15)                 1.0914                                         !
 ! R12   R(6,7)                  1.401                                          !
 ! R13   R(6,8)                  1.4021                                         !
 ! R14   R(7,9)                  1.3962                                         !
 ! R15   R(7,16)                 1.0884                                         !
 ! R16   R(8,10)                 1.395                                          !
 ! R17   R(8,17)                 1.0854                                         !
 ! R18   R(9,11)                 1.3976                                         !
 ! R19   R(9,18)                 1.0863                                         !
 ! R20   R(10,11)                1.3965                                         !
 ! R21   R(10,19)                1.0853                                         !
 ! R22   R(11,20)                1.0862                                         !
 ! R23   R(22,23)                1.4739                                         !
 ! R24   R(22,30)                1.0109                                         !
 ! R25   R(23,24)                1.5454                                         !
 ! R26   R(23,26)                1.5345                                         !
 ! R27   R(23,31)                1.0921                                         !
 ! R28   R(24,25)                1.224                                          !
 ! R29   R(24,41)                1.366                                          !
 ! R30   R(26,27)                1.5428                                         !
 ! R31   R(26,32)                1.0995                                         !
 ! R32   R(26,33)                1.097                                          !
 ! R33   R(27,28)                1.5357                                         !
 ! R34   R(27,29)                1.5347                                         !
 ! R35   R(27,34)                1.1024                                         !
 ! R36   R(28,35)                1.097                                          !
 ! R37   R(28,36)                1.0952                                         !
 ! R38   R(28,37)                1.0964                                         !
 ! R39   R(29,38)                1.0971                                         !
 ! R40   R(29,39)                1.0956                                         !
 ! R41   R(29,40)                1.0952                                         !
 ! R42   R(41,42)                1.45                                           !
 ! R43   R(41,49)                1.0146                                         !
 ! R44   R(42,43)                1.5394                                         !
 ! R45   R(42,45)                1.5506                                         !
 ! R46   R(42,50)                1.1005                                         !
 ! R47   R(43,44)                1.2442                                         !
 ! R48   R(43,55)                1.3381                                         !
 ! R49   R(45,46)                1.5205                                         !
 ! R50   R(45,51)                1.0909                                         !
 ! R51   R(45,52)                1.0932                                         !
 ! R52   R(46,47)                1.3533                                         !
 ! R53   R(46,48)                1.2349                                         !
 ! R54   R(47,53)                1.0119                                         !
 ! R55   R(47,54)                1.0133                                         !
 ! R56   R(55,56)                1.4582                                         !
 ! R57   R(55,68)                1.0254                                         !
 ! R58   R(56,57)                1.5658                                         !
 ! R59   R(56,59)                1.5633                                         !
 ! R60   R(56,69)                1.0959                                         !
 ! R61   R(57,58)                1.2757                                         !
 ! R62   R(57,66)                1.2453                                         !
 ! R63   R(59,60)                1.5457                                         !
 ! R64   R(59,70)                1.0961                                         !
 ! R65   R(59,71)                1.0912                                         !
 ! R66   R(60,61)                1.5404                                         !
 ! R67   R(60,72)                1.0976                                         !
 ! R68   R(60,73)                1.0965                                         !
 ! R69   R(61,62)                1.4627                                         !
 ! R70   R(61,74)                1.0945                                         !
 ! R71   R(61,75)                1.0955                                         !
 ! R72   R(62,63)                1.3237                                         !
 ! R73   R(62,76)                1.0531                                         !
 ! R74   R(63,64)                1.3495                                         !
 ! R75   R(63,65)                1.35                                           !
 ! R76   R(64,77)                1.0091                                         !
 ! R77   R(64,78)                1.0079                                         !
 ! R78   R(65,79)                1.0103                                         !
 ! R79   R(65,80)                1.0243                                         !
 ! R80   R(66,67)                2.8521                                         !
 ! A1    A(2,1,12)             112.1717                                         !
 ! A2    A(2,1,21)             116.4327                                         !
 ! A3    A(12,1,21)            104.7428                                         !
 ! A4    A(1,2,3)              103.9407                                         !
 ! A5    A(1,2,5)              111.4257                                         !
 ! A6    A(1,2,13)             105.7644                                         !
 ! A7    A(3,2,5)              117.4154                                         !
 ! A8    A(3,2,13)             108.0563                                         !
 ! A9    A(5,2,13)             109.5165                                         !
 ! A10   A(2,3,4)              118.5207                                         !
 ! A11   A(2,3,22)             118.5672                                         !
 ! A12   A(4,3,22)             122.9051                                         !
 ! A13   A(2,5,6)              111.0765                                         !
 ! A14   A(2,5,14)             107.5141                                         !
 ! A15   A(2,5,15)             108.7985                                         !
 ! A16   A(6,5,14)             110.5745                                         !
 ! A17   A(6,5,15)             110.0901                                         !
 ! A18   A(14,5,15)            108.7089                                         !
 ! A19   A(5,6,7)              121.3622                                         !
 ! A20   A(5,6,8)              119.2034                                         !
 ! A21   A(7,6,8)              119.2079                                         !
 ! A22   A(6,7,9)              120.2896                                         !
 ! A23   A(6,7,16)             119.8752                                         !
 ! A24   A(9,7,16)             119.8336                                         !
 ! A25   A(6,8,10)             120.5294                                         !
 ! A26   A(6,8,17)             119.0846                                         !
 ! A27   A(10,8,17)            120.3759                                         !
 ! A28   A(7,9,11)             120.1138                                         !
 ! A29   A(7,9,18)             119.7771                                         !
 ! A30   A(11,9,18)            120.1083                                         !
 ! A31   A(8,10,11)            119.9251                                         !
 ! A32   A(8,10,19)            119.1238                                         !
 ! A33   A(11,10,19)           120.932                                          !
 ! A34   A(9,11,10)            119.9156                                         !
 ! A35   A(9,11,20)            119.9189                                         !
 ! A36   A(10,11,20)           120.1653                                         !
 ! A37   A(3,22,23)            120.0642                                         !
 ! A38   A(3,22,30)            120.2289                                         !
 ! A39   A(23,22,30)           118.972                                          !
 ! A40   A(22,23,24)           109.9555                                         !
 ! A41   A(22,23,26)           110.712                                          !
 ! A42   A(22,23,31)           108.8635                                         !
 ! A43   A(24,23,26)           111.5547                                         !
 ! A44   A(24,23,31)           104.7406                                         !
 ! A45   A(26,23,31)           110.8286                                         !
 ! A46   A(23,24,25)           121.7649                                         !
 ! A47   A(23,24,41)           115.0138                                         !
 ! A48   A(25,24,41)           123.2199                                         !
 ! A49   A(23,26,27)           115.7409                                         !
 ! A50   A(23,26,32)           108.8393                                         !
 ! A51   A(23,26,33)           106.7042                                         !
 ! A52   A(27,26,32)           109.6991                                         !
 ! A53   A(27,26,33)           109.0772                                         !
 ! A54   A(32,26,33)           106.3438                                         !
 ! A55   A(26,27,28)           109.4342                                         !
 ! A56   A(26,27,29)           112.2629                                         !
 ! A57   A(26,27,34)           108.7132                                         !
 ! A58   A(28,27,29)           111.0136                                         !
 ! A59   A(28,27,34)           107.3808                                         !
 ! A60   A(29,27,34)           107.8781                                         !
 ! A61   A(27,28,35)           110.6376                                         !
 ! A62   A(27,28,36)           110.9372                                         !
 ! A63   A(27,28,37)           111.6155                                         !
 ! A64   A(35,28,36)           107.7248                                         !
 ! A65   A(35,28,37)           107.8089                                         !
 ! A66   A(36,28,37)           107.9624                                         !
 ! A67   A(27,29,38)           110.7023                                         !
 ! A68   A(27,29,39)           112.2901                                         !
 ! A69   A(27,29,40)           110.6059                                         !
 ! A70   A(38,29,39)           107.9109                                         !
 ! A71   A(38,29,40)           107.7106                                         !
 ! A72   A(39,29,40)           107.4391                                         !
 ! A73   A(24,41,42)           118.1759                                         !
 ! A74   A(24,41,49)           118.0895                                         !
 ! A75   A(42,41,49)           111.7724                                         !
 ! A76   A(41,42,43)           107.1503                                         !
 ! A77   A(41,42,45)           112.8826                                         !
 ! A78   A(41,42,50)           107.3439                                         !
 ! A79   A(43,42,45)           115.156                                          !
 ! A80   A(43,42,50)           105.8367                                         !
 ! A81   A(45,42,50)           107.9904                                         !
 ! A82   A(42,43,44)           119.933                                          !
 ! A83   A(42,43,55)           116.3384                                         !
 ! A84   A(44,43,55)           123.7144                                         !
 ! A85   A(42,45,46)           108.1827                                         !
 ! A86   A(42,45,51)           107.8239                                         !
 ! A87   A(42,45,52)           111.5898                                         !
 ! A88   A(46,45,51)           111.4235                                         !
 ! A89   A(46,45,52)           109.1665                                         !
 ! A90   A(51,45,52)           108.6702                                         !
 ! A91   A(45,46,47)           114.8677                                         !
 ! A92   A(45,46,48)           121.5743                                         !
 ! A93   A(47,46,48)           123.4337                                         !
 ! A94   A(46,47,53)           118.0795                                         !
 ! A95   A(46,47,54)           119.9626                                         !
 ! A96   A(53,47,54)           118.1498                                         !
 ! A97   A(43,55,56)           121.5437                                         !
 ! A98   A(43,55,68)           118.2909                                         !
 ! A99   A(56,55,68)           119.5359                                         !
 ! A100  A(55,56,57)           112.6523                                         !
 ! A101  A(55,56,59)           111.7171                                         !
 ! A102  A(55,56,69)           104.9888                                         !
 ! A103  A(57,56,59)           113.7514                                         !
 ! A104  A(57,56,69)           104.4845                                         !
 ! A105  A(59,56,69)           108.5054                                         !
 ! A106  A(56,57,58)           114.8009                                         !
 ! A107  A(56,57,66)           119.3383                                         !
 ! A108  A(58,57,66)           125.8032                                         !
 ! A109  A(56,59,60)           114.4216                                         !
 ! A110  A(56,59,70)           109.9057                                         !
 ! A111  A(56,59,71)           107.5125                                         !
 ! A112  A(60,59,70)           109.9941                                         !
 ! A113  A(60,59,71)           108.9007                                         !
 ! A114  A(70,59,71)           105.7079                                         !
 ! A115  A(59,60,61)           114.2085                                         !
 ! A116  A(59,60,72)           109.5947                                         !
 ! A117  A(59,60,73)           109.8967                                         !
 ! A118  A(61,60,72)           109.6616                                         !
 ! A119  A(61,60,73)           106.7292                                         !
 ! A120  A(72,60,73)           106.4347                                         !
 ! A121  A(60,61,62)           111.8359                                         !
 ! A122  A(60,61,74)           110.3652                                         !
 ! A123  A(60,61,75)           109.8267                                         !
 ! A124  A(62,61,74)           110.7458                                         !
 ! A125  A(62,61,75)           107.0066                                         !
 ! A126  A(74,61,75)           106.8815                                         !
 ! A127  A(61,62,63)           128.9166                                         !
 ! A128  A(61,62,76)           115.9429                                         !
 ! A129  A(63,62,76)           112.2468                                         !
 ! A130  A(62,63,64)           123.0437                                         !
 ! A131  A(62,63,65)           118.0916                                         !
 ! A132  A(64,63,65)           118.8647                                         !
 ! A133  A(63,64,77)           120.4539                                         !
 ! A134  A(63,64,78)           121.0187                                         !
 ! A135  A(77,64,78)           117.3727                                         !
 ! A136  A(63,65,79)           119.7472                                         !
 ! A137  A(63,65,80)           116.2481                                         !
 ! A138  A(79,65,80)           118.0183                                         !
 ! A139  A(57,66,67)           159.4496                                         !
 ! D1    D(12,1,2,3)          -163.2896                                         !
 ! D2    D(12,1,2,5)            69.3346                                         !
 ! D3    D(12,1,2,13)          -49.5917                                         !
 ! D4    D(21,1,2,3)            76.0821                                         !
 ! D5    D(21,1,2,5)           -51.2936                                         !
 ! D6    D(21,1,2,13)         -170.2199                                         !
 ! D7    D(1,2,3,4)             23.6096                                         !
 ! D8    D(1,2,3,22)          -155.4501                                         !
 ! D9    D(5,2,3,4)            147.1656                                         !
 ! D10   D(5,2,3,22)           -31.8941                                         !
 ! D11   D(13,2,3,4)           -88.4365                                         !
 ! D12   D(13,2,3,22)           92.5038                                         !
 ! D13   D(1,2,5,6)            -43.8892                                         !
 ! D14   D(1,2,5,14)          -164.9901                                         !
 ! D15   D(1,2,5,15)            77.4468                                         !
 ! D16   D(3,2,5,6)           -163.5646                                         !
 ! D17   D(3,2,5,14)            75.3344                                         !
 ! D18   D(3,2,5,15)           -42.2286                                         !
 ! D19   D(13,2,5,6)            72.773                                          !
 ! D20   D(13,2,5,14)          -48.3279                                         !
 ! D21   D(13,2,5,15)         -165.8909                                         !
 ! D22   D(2,3,22,23)          171.7522                                         !
 ! D23   D(2,3,22,30)            1.6729                                         !
 ! D24   D(4,3,22,23)           -7.2638                                         !
 ! D25   D(4,3,22,30)         -177.343                                          !
 ! D26   D(2,5,6,7)            -82.8943                                         !
 ! D27   D(2,5,6,8)             91.5943                                         !
 ! D28   D(14,5,6,7)            36.3908                                         !
 ! D29   D(14,5,6,8)          -149.1206                                         !
 ! D30   D(15,5,6,7)           156.5299                                         !
 ! D31   D(15,5,6,8)           -28.9815                                         !
 ! D32   D(5,6,7,9)            174.5537                                         !
 ! D33   D(5,6,7,16)            -5.9055                                         !
 ! D34   D(8,6,7,9)              0.0653                                         !
 ! D35   D(8,6,7,16)           179.6062                                         !
 ! D36   D(5,6,8,10)          -173.4808                                         !
 ! D37   D(5,6,8,17)             5.3713                                         !
 ! D38   D(7,6,8,10)             1.1279                                         !
 ! D39   D(7,6,8,17)           179.9799                                         !
 ! D40   D(6,7,9,11)            -1.0309                                         !
 ! D41   D(6,7,9,18)           179.2955                                         !
 ! D42   D(16,7,9,11)          179.428                                          !
 ! D43   D(16,7,9,18)           -0.2456                                         !
 ! D44   D(6,8,10,11)           -1.3529                                         !
 ! D45   D(6,8,10,19)          177.072                                          !
 ! D46   D(17,8,10,11)         179.8099                                         !
 ! D47   D(17,8,10,19)          -1.7651                                         !
 ! D48   D(7,9,11,10)            0.8094                                         !
 ! D49   D(7,9,11,20)         -179.0456                                         !
 ! D50   D(18,9,11,10)        -179.5181                                         !
 ! D51   D(18,9,11,20)           0.627                                          !
 ! D52   D(8,10,11,9)            0.3777                                         !
 ! D53   D(8,10,11,20)        -179.7677                                         !
 ! D54   D(19,10,11,9)        -178.0182                                         !
 ! D55   D(19,10,11,20)          1.8364                                         !
 ! D56   D(3,22,23,24)         -50.6461                                         !
 ! D57   D(3,22,23,26)        -174.3673                                         !
 ! D58   D(3,22,23,31)          63.5661                                         !
 ! D59   D(30,22,23,24)        119.5573                                         !
 ! D60   D(30,22,23,26)         -4.1639                                         !
 ! D61   D(30,22,23,31)       -126.2306                                         !
 ! D62   D(22,23,24,25)        141.4913                                         !
 ! D63   D(22,23,24,41)        -38.0865                                         !
 ! D64   D(26,23,24,25)        -95.2801                                         !
 ! D65   D(26,23,24,41)         85.1421                                         !
 ! D66   D(31,23,24,25)         24.6703                                         !
 ! D67   D(31,23,24,41)       -154.9074                                         !
 ! D68   D(22,23,26,27)        -60.6799                                         !
 ! D69   D(22,23,26,32)         63.3691                                         !
 ! D70   D(22,23,26,33)        177.7512                                         !
 ! D71   D(24,23,26,27)        176.523                                          !
 ! D72   D(24,23,26,32)        -59.428                                          !
 ! D73   D(24,23,26,33)         54.954                                          !
 ! D74   D(31,23,26,27)         60.2287                                         !
 ! D75   D(31,23,26,32)       -175.7223                                         !
 ! D76   D(31,23,26,33)        -61.3403                                         !
 ! D77   D(23,24,41,42)        147.7046                                         !
 ! D78   D(23,24,41,49)          7.9885                                         !
 ! D79   D(25,24,41,42)        -31.8663                                         !
 ! D80   D(25,24,41,49)       -171.5824                                         !
 ! D81   D(23,26,27,28)        179.2628                                         !
 ! D82   D(23,26,27,29)        -57.0043                                         !
 ! D83   D(23,26,27,34)         62.2644                                         !
 ! D84   D(32,26,27,28)         55.6623                                         !
 ! D85   D(32,26,27,29)        179.3952                                         !
 ! D86   D(32,26,27,34)        -61.3361                                         !
 ! D87   D(33,26,27,28)        -60.4469                                         !
 ! D88   D(33,26,27,29)         63.286                                          !
 ! D89   D(33,26,27,34)       -177.4453                                         !
 ! D90   D(26,27,28,35)         63.4008                                         !
 ! D91   D(26,27,28,36)       -177.0995                                         !
 ! D92   D(26,27,28,37)        -56.6502                                         !
 ! D93   D(29,27,28,35)        -61.0642                                         !
 ! D94   D(29,27,28,36)         58.4355                                         !
 ! D95   D(29,27,28,37)        178.8848                                         !
 ! D96   D(34,27,28,35)       -178.7638                                         !
 ! D97   D(34,27,28,36)        -59.2641                                         !
 ! D98   D(34,27,28,37)         61.1851                                         !
 ! D99   D(26,27,29,38)        -57.423                                          !
 ! D100  D(26,27,29,39)         63.2565                                         !
 ! D101  D(26,27,29,40)       -176.7327                                         !
 ! D102  D(28,27,29,38)         65.4237                                         !
 ! D103  D(28,27,29,39)       -173.8968                                         !
 ! D104  D(28,27,29,40)        -53.8859                                         !
 ! D105  D(34,27,29,38)       -177.1796                                         !
 ! D106  D(34,27,29,39)        -56.5                                            !
 ! D107  D(34,27,29,40)         63.5108                                         !
 ! D108  D(24,41,42,43)       -146.3598                                         !
 ! D109  D(24,41,42,45)         85.8252                                         !
 ! D110  D(24,41,42,50)        -33.0577                                         !
 ! D111  D(49,41,42,43)         -4.2561                                         !
 ! D112  D(49,41,42,45)       -132.0711                                         !
 ! D113  D(49,41,42,50)        109.046                                          !
 ! D114  D(41,42,43,44)         10.8981                                         !
 ! D115  D(41,42,43,55)       -170.4221                                         !
 ! D116  D(45,42,43,44)        137.3757                                         !
 ! D117  D(45,42,43,55)        -43.9445                                         !
 ! D118  D(50,42,43,44)       -103.4216                                         !
 ! D119  D(50,42,43,55)         75.2582                                         !
 ! D120  D(41,42,45,46)       -143.7933                                         !
 ! D121  D(41,42,45,51)        -23.1666                                         !
 ! D122  D(41,42,45,52)         96.0996                                         !
 ! D123  D(43,42,45,46)         92.7149                                         !
 ! D124  D(43,42,45,51)       -146.6583                                         !
 ! D125  D(43,42,45,52)        -27.3922                                         !
 ! D126  D(50,42,45,46)        -25.2866                                         !
 ! D127  D(50,42,45,51)         95.3402                                         !
 ! D128  D(50,42,45,52)       -145.3937                                         !
 ! D129  D(42,43,55,56)       -171.9424                                         !
 ! D130  D(42,43,55,68)         -1.0825                                         !
 ! D131  D(44,43,55,56)          6.6822                                         !
 ! D132  D(44,43,55,68)        177.5421                                         !
 ! D133  D(42,45,46,47)         95.5361                                         !
 ! D134  D(42,45,46,48)        -80.5425                                         !
 ! D135  D(51,45,46,47)        -22.821                                          !
 ! D136  D(51,45,46,48)        161.1003                                         !
 ! D137  D(52,45,46,47)       -142.8502                                         !
 ! D138  D(52,45,46,48)         41.0711                                         !
 ! D139  D(45,46,47,53)       -169.4696                                         !
 ! D140  D(45,46,47,54)        -11.8386                                         !
 ! D141  D(48,46,47,53)          6.5269                                         !
 ! D142  D(48,46,47,54)        164.1579                                         !
 ! D143  D(43,55,56,57)         60.3716                                         !
 ! D144  D(43,55,56,59)        -69.1227                                         !
 ! D145  D(43,55,56,69)        173.4698                                         !
 ! D146  D(68,55,56,57)       -110.377                                          !
 ! D147  D(68,55,56,59)        120.1287                                         !
 ! D148  D(68,55,56,69)          2.7212                                         !
 ! D149  D(55,56,57,58)        179.5248                                         !
 ! D150  D(55,56,57,66)          2.1258                                         !
 ! D151  D(59,56,57,58)        -52.0347                                         !
 ! D152  D(59,56,57,66)        130.5663                                         !
 ! D153  D(69,56,57,58)         66.118                                          !
 ! D154  D(69,56,57,66)       -111.281                                          !
 ! D155  D(55,56,59,60)       -109.3961                                         !
 ! D156  D(55,56,59,70)        126.2844                                         !
 ! D157  D(55,56,59,71)         11.6902                                         !
 ! D158  D(57,56,59,60)        121.6871                                         !
 ! D159  D(57,56,59,70)         -2.6325                                         !
 ! D160  D(57,56,59,71)       -117.2267                                         !
 ! D161  D(69,56,59,60)          5.8735                                         !
 ! D162  D(69,56,59,70)       -118.4461                                         !
 ! D163  D(69,56,59,71)        126.9597                                         !
 ! D164  D(56,57,66,67)        -95.5508                                         !
 ! D165  D(58,57,66,67)         87.3608                                         !
 ! D166  D(56,59,60,61)        -88.9938                                         !
 ! D167  D(56,59,60,72)         34.4851                                         !
 ! D168  D(56,59,60,73)        151.1146                                         !
 ! D169  D(70,59,60,61)         35.2787                                         !
 ! D170  D(70,59,60,72)        158.7577                                         !
 ! D171  D(70,59,60,73)        -84.6129                                         !
 ! D172  D(71,59,60,61)        150.6889                                         !
 ! D173  D(71,59,60,72)        -85.8322                                         !
 ! D174  D(71,59,60,73)         30.7973                                         !
 ! D175  D(59,60,61,62)         46.2786                                         !
 ! D176  D(59,60,61,74)        170.0434                                         !
 ! D177  D(59,60,61,75)        -72.3686                                         !
 ! D178  D(72,60,61,62)        -77.1643                                         !
 ! D179  D(72,60,61,74)         46.6005                                         !
 ! D180  D(72,60,61,75)        164.1885                                         !
 ! D181  D(73,60,61,62)        167.9311                                         !
 ! D182  D(73,60,61,74)        -68.3041                                         !
 ! D183  D(73,60,61,75)         49.2839                                         !
 ! D184  D(60,61,62,63)        106.6941                                         !
 ! D185  D(60,61,62,76)        -52.3579                                         !
 ! D186  D(74,61,62,63)        -16.8564                                         !
 ! D187  D(74,61,62,76)       -175.9084                                         !
 ! D188  D(75,61,62,63)       -132.9973                                         !
 ! D189  D(75,61,62,76)         67.9507                                         !
 ! D190  D(61,62,63,64)         22.6698                                         !
 ! D191  D(61,62,63,65)       -157.4216                                         !
 ! D192  D(76,62,63,64)       -177.6554                                         !
 ! D193  D(76,62,63,65)          2.2531                                         !
 ! D194  D(62,63,64,77)       -162.8968                                         !
 ! D195  D(62,63,64,78)          4.4992                                         !
 ! D196  D(65,63,64,77)         17.1954                                         !
 ! D197  D(65,63,64,78)       -175.4087                                         !
 ! D198  D(62,63,65,79)       -152.6284                                         !
 ! D199  D(62,63,65,80)         -0.3701                                         !
 ! D200  D(64,63,65,79)         27.284                                          !
 ! D201  D(64,63,65,80)        179.5423                                         !
 --------------------------------------------------------------------------------
 Symmetry turned off by external request.
 Stoichiometry    C25H41N8O6(1+)
 Framework group  C1[X(C25H41N8O6)]
 Deg. of freedom   234
 Full point group                 C1      NOp   1
                          Input orientation:                          
 ---------------------------------------------------------------------
 Center     Atomic      Atomic             Coordinates (Angstroms)
 Number     Number       Type             X           Y           Z
 ---------------------------------------------------------------------
      1          7           0       -0.511508   10.093023   -8.065782
      2          6           0        0.123824   10.305404   -6.721643
      3          6           0       -0.765023    9.491686   -5.757522
      4          8           0       -1.427159    8.559636   -6.213774
      5          6           0        0.312434   11.807067   -6.418044
      6          6           0        0.852307   12.543798   -7.627025
      7          6           0        2.222216   12.558585   -7.920109
      8          6           0       -0.047285   13.125268   -8.531811
      9          6           0        2.683808   13.147118   -9.099041
     10          6           0        0.410844   13.691480   -9.721631
     11          6           0        1.778220   13.706505  -10.004799
     12          1           0        0.115981   10.344298   -8.833322
     13          1           0        1.103767    9.816549   -6.774774
     14          1           0        1.008798   11.888374   -5.574402
     15          1           0       -0.648977   12.229139   -6.120321
     16          1           0        2.930682   12.116062   -7.222418
     17          1           0       -1.108175   13.112398   -8.302910
     18          1           0        3.748782   13.164072   -9.312496
     19          1           0       -0.309477   14.092406  -10.427514
     20          1           0        2.139545   14.149745  -10.928333
     21          1           0       -1.400241   10.633137   -8.256967
     22          7           0       -0.796937    9.845478   -4.454714
     23          6           0       -1.766120    9.213644   -3.541531
     24          6           0       -3.185774    9.284473   -4.147954
     25          8           0       -3.979384    8.358842   -4.040259
     26          6           0       -1.712052    9.868734   -2.154923
     27          6           0       -0.356591    9.778531   -1.423659
     28          6           0       -0.459163   10.491864   -0.067518
     29          6           0        0.114171    8.328360   -1.248467
     30          1           0       -0.267186   10.643204   -4.130854
     31          1           0       -1.545057    8.146168   -3.475584
     32          1           0       -2.013683   10.921992   -2.247834
     33          1           0       -2.481737    9.379855   -1.544996
     34          1           0        0.402812   10.311252   -2.019363
     35          1           0       -1.188636    9.989259    0.579528
     36          1           0        0.505444   10.487212    0.451072
     37          1           0       -0.776011   11.535135   -0.182868
     38          1           0       -0.634382    7.740876   -0.702341
     39          1           0        0.297452    7.832164   -2.207925
     40          1           0        1.047635    8.292544   -0.676839
     41          7           0       -3.473363   10.443484   -4.811244
     42          6           0       -4.372483   10.377405   -5.946837
     43          6           0       -3.904941   11.439414   -6.958415
     44          8           0       -2.808367   12.005957   -6.801584
     45          6           0       -5.865906   10.467453   -5.539489
     46          6           0       -6.664665    9.559224   -6.460986
     47          7           0       -6.906698    8.321408   -5.970287
     48          8           0       -6.991867    9.916850   -7.596783
     49          1           0       -2.719821   11.104994   -4.965868
     50          1           0       -4.211746    9.405026   -6.436391
     51          1           0       -5.947845   10.150721   -4.498801
     52          1           0       -6.245359   11.489098   -5.625272
     53          1           0       -7.288688    7.626299   -6.598582
     54          1           0       -6.417953    8.000634   -5.142693
     55          7           0       -4.721898   11.675592   -7.991475
     56          6           0       -4.317746   12.526375   -9.104661
     57          6           0       -3.051986   11.983795   -9.849749
     58          8           0       -2.667943   12.692887  -10.838234
     59          6           0       -4.201268   14.024870   -8.674836
     60          6           0       -5.302952   14.942698   -9.251880
     61          6           0       -4.959200   15.557875  -10.621611
     62          7           0       -4.417976   14.561189  -11.545235
     63          6           0       -4.995017   14.002697  -12.597570
     64          7           0       -6.025327   14.569939  -13.259299
     65          7           0       -4.523899   12.811346  -13.023277
     66          8           0       -2.542209   10.908426   -9.482907
     67          1           0       -0.795118    9.105719   -8.129343
     68          1           0       -5.589529   11.133201   -8.058833
     69          1           0       -5.126994   12.436819   -9.838184
     70          1           0       -3.211814   14.413755   -8.941483
     71          1           0       -4.248084   14.058499   -7.585156
     72          1           0       -6.246031   14.385650   -9.323413
     73          1           0       -5.487933   15.779287   -8.567626
     74          1           0       -5.839120   16.047033  -11.051100
     75          1           0       -4.192970   16.331308  -10.499813
     76          1           0       -3.607603   13.992487  -11.186256
     77          1           0       -6.600384   14.019133  -13.879158
     78          1           0       -6.357981   15.488881  -13.012851
     79          1           0       -4.619077   12.553024  -13.995316
     80          1           0       -3.736953   12.420998  -12.496515
 ---------------------------------------------------------------------
 Rotational constants (GHZ):           0.1205734           0.0617388           0.0460177
 Standard basis: 6-31G(d) (6D, 7F)
   667 basis functions,  1256 primitive gaussians,   667 cartesian basis functions
   147 alpha electrons      147 beta electrons
       nuclear repulsion energy      4892.4673122240 Hartrees.
 NAtoms=   80 NActive=   80 NUniq=   80 SFac= 1.00D+00 NAtFMM=   60 NAOKFM=T Big=T
 Integral buffers will be    131072 words long.
 Raffenetti 2 integral format.
 Two-electron integral symmetry is turned off.
 Nuclear repulsion after empirical dispersion term =     4892.3537374348 Hartrees.
 One-electron integrals computed using PRISM.
 NBasis=   667 RedAO= T EigKep=  4.49D-04  NBF=   667
 NBsUse=   667 1.00D-06 EigRej= -1.00D+00 NBFU=   667
 Initial guess from the checkpoint file:  "conf-211.chk"
 B after Tr=     0.000000    0.000000    0.000000
         Rot=    1.000000    0.000000    0.000000    0.000000 Ang=   0.00 deg.
 Requested convergence on RMS density matrix=1.00D-08 within 128 cycles.
 Requested convergence on MAX density matrix=1.00D-06.
 Requested convergence on             energy=1.00D-06.
 No special actions if energy rises.
 SCF Done:  E(RB3LYP) =  -1866.74581937     A.U. after    2 cycles
            NFock=  2  Conv=0.73D-08     -V/T= 2.0094

 **********************************************************************

            Population analysis using the SCF Density.

 **********************************************************************

 Alpha  occ. eigenvalues --  -19.23450 -19.21412 -19.20240 -19.19874 -19.19162
 Alpha  occ. eigenvalues --  -19.18437 -14.53415 -14.49649 -14.47744 -14.47704
 Alpha  occ. eigenvalues --  -14.47257 -14.44224 -14.43514 -14.43419 -10.44968
 Alpha  occ. eigenvalues --  -10.40709 -10.38022 -10.37259 -10.37070 -10.36925
 Alpha  occ. eigenvalues --  -10.36874 -10.33821 -10.32515 -10.32482 -10.31632
 Alpha  occ. eigenvalues --  -10.30319 -10.28867 -10.28709 -10.27923 -10.27762
 Alpha  occ. eigenvalues --  -10.27730 -10.27594 -10.27466 -10.27235 -10.26991
 Alpha  occ. eigenvalues --  -10.26932 -10.26866 -10.24701 -10.24577  -1.15924
 Alpha  occ. eigenvalues --   -1.13589  -1.13231  -1.12018  -1.11579  -1.11330
 Alpha  occ. eigenvalues --   -1.08643  -1.03998  -1.03742  -1.02526  -1.01478
 Alpha  occ. eigenvalues --   -1.01066  -1.00622  -0.98437  -0.94315  -0.90515
 Alpha  occ. eigenvalues --   -0.89408  -0.88878  -0.86887  -0.84359  -0.83276
 Alpha  occ. eigenvalues --   -0.82637  -0.82162  -0.78235  -0.76408  -0.76288
 Alpha  occ. eigenvalues --   -0.75684  -0.75051  -0.73336  -0.70911  -0.70577
 Alpha  occ. eigenvalues --   -0.70361  -0.69047  -0.68715  -0.67649  -0.67130
 Alpha  occ. eigenvalues --   -0.66894  -0.66276  -0.65679  -0.65243  -0.64698
 Alpha  occ. eigenvalues --   -0.63713  -0.62634  -0.62258  -0.61516  -0.61472
 Alpha  occ. eigenvalues --   -0.59963  -0.59731  -0.59433  -0.59295  -0.57889
 Alpha  occ. eigenvalues --   -0.57592  -0.56363  -0.55923  -0.55019  -0.54506
 Alpha  occ. eigenvalues --   -0.54135  -0.53872  -0.53605  -0.53485  -0.53089
 Alpha  occ. eigenvalues --   -0.52826  -0.52079  -0.51825  -0.51537  -0.51303
 Alpha  occ. eigenvalues --   -0.51073  -0.50218  -0.50078  -0.49687  -0.49388
 Alpha  occ. eigenvalues --   -0.49066  -0.48912  -0.48716  -0.47564  -0.47224
 Alpha  occ. eigenvalues --   -0.46905  -0.46723  -0.46253  -0.46062  -0.45485
 Alpha  occ. eigenvalues --   -0.45281  -0.44780  -0.44690  -0.44294  -0.44084
 Alpha  occ. eigenvalues --   -0.43365  -0.43073  -0.42583  -0.42084  -0.40847
 Alpha  occ. eigenvalues --   -0.40705  -0.40450  -0.40228  -0.37885  -0.37533
 Alpha  occ. eigenvalues --   -0.37430  -0.36636  -0.35808  -0.34995  -0.34780
 Alpha  occ. eigenvalues --   -0.34204  -0.33699  -0.33335  -0.33018  -0.32951
 Alpha  occ. eigenvalues --   -0.32703  -0.31985
 Alpha virt. eigenvalues --   -0.10302  -0.09370  -0.08739  -0.08530  -0.07361
 Alpha virt. eigenvalues --   -0.06536  -0.06066  -0.05544  -0.04760  -0.03662
 Alpha virt. eigenvalues --   -0.02554  -0.01925   0.00193   0.00617   0.00860
 Alpha virt. eigenvalues --    0.01336   0.01401   0.01656   0.01929   0.02263
 Alpha virt. eigenvalues --    0.02284   0.02999   0.03758   0.04048   0.04467
 Alpha virt. eigenvalues --    0.04666   0.04913   0.05332   0.05561   0.05647
 Alpha virt. eigenvalues --    0.05944   0.07073   0.07348   0.07586   0.07831
 Alpha virt. eigenvalues --    0.07910   0.08264   0.08406   0.08960   0.09116
 Alpha virt. eigenvalues --    0.09433   0.09633   0.09788   0.10498   0.11091
 Alpha virt. eigenvalues --    0.11397   0.11554   0.11839   0.12335   0.12413
 Alpha virt. eigenvalues --    0.12698   0.13252   0.13612   0.14120   0.14505
 Alpha virt. eigenvalues --    0.14966   0.15425   0.15730   0.16141   0.16247
 Alpha virt. eigenvalues --    0.16588   0.16933   0.17233   0.18065   0.18247
 Alpha virt. eigenvalues --    0.19056   0.19379   0.20184   0.20421   0.21544
 Alpha virt. eigenvalues --    0.23030   0.23526   0.23752   0.24778   0.25361
 Alpha virt. eigenvalues --    0.25879   0.26726   0.27708   0.27879   0.29685
 Alpha virt. eigenvalues --    0.29731   0.30703   0.31558   0.32058   0.33936
 Alpha virt. eigenvalues --    0.35074   0.36172   0.37339   0.38597   0.39995
 Alpha virt. eigenvalues --    0.40286   0.40622   0.41397   0.42545   0.42843
 Alpha virt. eigenvalues --    0.43211   0.43472   0.44146   0.44341   0.44353
 Alpha virt. eigenvalues --    0.44881   0.45189   0.45834   0.46364   0.46555
 Alpha virt. eigenvalues --    0.46788   0.47447   0.47464   0.48164   0.48515
 Alpha virt. eigenvalues --    0.48656   0.49365   0.49409   0.50032   0.50363
 Alpha virt. eigenvalues --    0.50780   0.50810   0.51899   0.52185   0.52456
 Alpha virt. eigenvalues --    0.53039   0.53160   0.53573   0.53700   0.53905
 Alpha virt. eigenvalues --    0.54304   0.55385   0.55470   0.55741   0.55821
 Alpha virt. eigenvalues --    0.56062   0.56522   0.56763   0.57098   0.57611
 Alpha virt. eigenvalues --    0.57892   0.58541   0.59022   0.59328   0.59878
 Alpha virt. eigenvalues --    0.60386   0.60644   0.60998   0.61411   0.62100
 Alpha virt. eigenvalues --    0.62512   0.63112   0.63560   0.64293   0.64625
 Alpha virt. eigenvalues --    0.65302   0.65881   0.65946   0.66220   0.67321
 Alpha virt. eigenvalues --    0.68268   0.68923   0.69551   0.70193   0.70564
 Alpha virt. eigenvalues --    0.71169   0.71686   0.71811   0.72029   0.72580
 Alpha virt. eigenvalues --    0.73113   0.73770   0.73919   0.74433   0.74986
 Alpha virt. eigenvalues --    0.75348   0.75707   0.76047   0.76183   0.76755
 Alpha virt. eigenvalues --    0.76919   0.77132   0.77301   0.77779   0.77838
 Alpha virt. eigenvalues --    0.78588   0.79026   0.79361   0.79586   0.79689
 Alpha virt. eigenvalues --    0.80472   0.80826   0.81379   0.81823   0.81947
 Alpha virt. eigenvalues --    0.82511   0.82650   0.82727   0.83907   0.84081
 Alpha virt. eigenvalues --    0.84341   0.84937   0.85228   0.85516   0.85636
 Alpha virt. eigenvalues --    0.86101   0.86344   0.86898   0.87014   0.87531
 Alpha virt. eigenvalues --    0.88478   0.88755   0.89164   0.89411   0.90173
 Alpha virt. eigenvalues --    0.90560   0.91013   0.91967   0.92238   0.92820
 Alpha virt. eigenvalues --    0.93788   0.94472   0.94759   0.94928   0.95613
 Alpha virt. eigenvalues --    0.96716   0.97514   0.97979   0.98303   0.98990
 Alpha virt. eigenvalues --    1.00314   1.00705   1.01470   1.01903   1.02755
 Alpha virt. eigenvalues --    1.02957   1.04356   1.04817   1.06166   1.06501
 Alpha virt. eigenvalues --    1.07315   1.08131   1.08820   1.09671   1.10311
 Alpha virt. eigenvalues --    1.11142   1.11843   1.12500   1.13345   1.13509
 Alpha virt. eigenvalues --    1.14270   1.15321   1.16241   1.16604   1.17450
 Alpha virt. eigenvalues --    1.17900   1.18815   1.19779   1.20145   1.20824
 Alpha virt. eigenvalues --    1.21430   1.22410   1.23960   1.24967   1.26019
 Alpha virt. eigenvalues --    1.26749   1.27667   1.29006   1.29465   1.30054
 Alpha virt. eigenvalues --    1.30909   1.31766   1.31942   1.33436   1.34168
 Alpha virt. eigenvalues --    1.34984   1.35682   1.35809   1.36922   1.37574
 Alpha virt. eigenvalues --    1.38298   1.38874   1.39270   1.39753   1.40047
 Alpha virt. eigenvalues --    1.41002   1.41221   1.41551   1.42505   1.42935
 Alpha virt. eigenvalues --    1.43221   1.44390   1.44651   1.46014   1.46803
 Alpha virt. eigenvalues --    1.48204   1.48872   1.49727   1.50472   1.51399
 Alpha virt. eigenvalues --    1.52506   1.53226   1.54339   1.56019   1.57538
 Alpha virt. eigenvalues --    1.58182   1.58852   1.59458   1.61283   1.62360
 Alpha virt. eigenvalues --    1.63001   1.63270   1.64739   1.65204   1.66059
 Alpha virt. eigenvalues --    1.66443   1.67180   1.68006   1.68343   1.68719
 Alpha virt. eigenvalues --    1.69430   1.70380   1.70718   1.71171   1.71689
 Alpha virt. eigenvalues --    1.72134   1.72406   1.72974   1.73183   1.73874
 Alpha virt. eigenvalues --    1.74314   1.74993   1.75885   1.76655   1.76985
 Alpha virt. eigenvalues --    1.77752   1.78488   1.79015   1.79492   1.80085
 Alpha virt. eigenvalues --    1.80377   1.80966   1.81572   1.81870   1.81914
 Alpha virt. eigenvalues --    1.82276   1.83210   1.83812   1.84938   1.85344
 Alpha virt. eigenvalues --    1.86170   1.86761   1.86880   1.87620   1.87932
 Alpha virt. eigenvalues --    1.88538   1.89009   1.89466   1.90230   1.90967
 Alpha virt. eigenvalues --    1.91727   1.92051   1.92572   1.92975   1.94384
 Alpha virt. eigenvalues --    1.94728   1.94906   1.95389   1.96431   1.96971
 Alpha virt. eigenvalues --    1.97587   1.97847   1.98298   1.98423   2.00119
 Alpha virt. eigenvalues --    2.00973   2.01627   2.02514   2.02729   2.03726
 Alpha virt. eigenvalues --    2.04608   2.05936   2.06513   2.06617   2.06942
 Alpha virt. eigenvalues --    2.07111   2.08299   2.08763   2.09261   2.09946
 Alpha virt. eigenvalues --    2.10621   2.11981   2.13911   2.14563   2.15423
 Alpha virt. eigenvalues --    2.15991   2.16621   2.16711   2.17552   2.18183
 Alpha virt. eigenvalues --    2.19195   2.19563   2.20097   2.20378   2.21957
 Alpha virt. eigenvalues --    2.22624   2.23104   2.23359   2.23650   2.25374
 Alpha virt. eigenvalues --    2.26358   2.27103   2.27492   2.29338   2.30593
 Alpha virt. eigenvalues --    2.31191   2.32153   2.33602   2.33837   2.34392
 Alpha virt. eigenvalues --    2.35645   2.36334   2.37126   2.38026   2.39189
 Alpha virt. eigenvalues --    2.39728   2.41516   2.42128   2.43107   2.44384
 Alpha virt. eigenvalues --    2.44715   2.45029   2.46231   2.47434   2.48263
 Alpha virt. eigenvalues --    2.48723   2.49427   2.50580   2.51113   2.51201
 Alpha virt. eigenvalues --    2.51775   2.52709   2.53179   2.54639   2.55630
 Alpha virt. eigenvalues --    2.56098   2.56867   2.57845   2.57966   2.59115
 Alpha virt. eigenvalues --    2.60353   2.60883   2.62589   2.63577   2.64269
 Alpha virt. eigenvalues --    2.64729   2.64812   2.65571   2.66653   2.67634
 Alpha virt. eigenvalues --    2.68830   2.70239   2.70479   2.71726   2.72755
 Alpha virt. eigenvalues --    2.74916   2.79628   2.80838   2.84494   2.87485
 Alpha virt. eigenvalues --    2.90159   2.91222   2.91933   2.92003   2.92882
 Alpha virt. eigenvalues --    2.94378   2.95693   2.96685   2.98206   2.98381
 Alpha virt. eigenvalues --    2.99675   3.05794   3.07946   3.09143   3.12668
 Alpha virt. eigenvalues --    3.32725   3.68224   3.74165   3.76950   3.81105
 Alpha virt. eigenvalues --    3.87159   3.91728   3.93110   3.95312   4.01353
 Alpha virt. eigenvalues --    4.02249   4.03417   4.04429   4.06732   4.07954
 Alpha virt. eigenvalues --    4.10142   4.10347   4.11906   4.15776   4.17178
 Alpha virt. eigenvalues --    4.20241   4.21347   4.22903   4.24791   4.26473
 Alpha virt. eigenvalues --    4.27692   4.31940   4.32660   4.34504   4.38790
 Alpha virt. eigenvalues --    4.40796   4.45177   4.49346   4.49870   4.52295
 Alpha virt. eigenvalues --    4.53410   4.56333   4.63293   4.65271   4.67719
          Condensed to atoms (all electrons):
 Mulliken charges:
               1
     1  N   -0.766019
     2  C   -0.096900
     3  C    0.656094
     4  O   -0.524273
     5  C   -0.397426
     6  C    0.114956
     7  C   -0.189615
     8  C   -0.212190
     9  C   -0.127641
    10  C   -0.124628
    11  C   -0.130078
    12  H    0.404439
    13  H    0.209766
    14  H    0.164011
    15  H    0.216434
    16  H    0.133163
    17  H    0.177101
    18  H    0.151859
    19  H    0.153192
    20  H    0.149167
    21  H    0.474120
    22  N   -0.646368
    23  C   -0.024684
    24  C    0.611142
    25  O   -0.523932
    26  C   -0.308583
    27  C   -0.080670
    28  C   -0.443928
    29  C   -0.451857
    30  H    0.352788
    31  H    0.203561
    32  H    0.144316
    33  H    0.179128
    34  H    0.109878
    35  H    0.156403
    36  H    0.158921
    37  H    0.145912
    38  H    0.158231
    39  H    0.147370
    40  H    0.160669
    41  N   -0.607980
    42  C   -0.051597
    43  C    0.626708
    44  O   -0.589765
    45  C   -0.368840
    46  C    0.581698
    47  N   -0.722384
    48  O   -0.524507
    49  H    0.344227
    50  H    0.205906
    51  H    0.194507
    52  H    0.179313
    53  H    0.352913
    54  H    0.372618
    55  N   -0.620783
    56  C   -0.064378
    57  C    0.631617
    58  O   -0.614120
    59  C   -0.292497
    60  C   -0.275807
    61  C   -0.165264
    62  N   -0.614787
    63  C    0.773259
    64  N   -0.760220
    65  N   -0.778087
    66  O   -0.597716
    67  H    0.409592
    68  H    0.391947
    69  H    0.157043
    70  H    0.163812
    71  H    0.179127
    72  H    0.156332
    73  H    0.165884
    74  H    0.151159
    75  H    0.188774
    76  H    0.420707
    77  H    0.375082
    78  H    0.376607
    79  H    0.360086
    80  H    0.405987
 Sum of Mulliken charges =   1.00000
 Mulliken charges with hydrogens summed into heavy atoms:
               1
     1  N    0.522133
     2  C    0.112866
     3  C    0.656094
     4  O   -0.524273
     5  C   -0.016981
     6  C    0.114956
     7  C   -0.056452
     8  C   -0.035090
     9  C    0.024217
    10  C    0.028564
    11  C    0.019089
    22  N   -0.293581
    23  C    0.178877
    24  C    0.611142
    25  O   -0.523932
    26  C    0.014861
    27  C    0.029208
    28  C    0.017308
    29  C    0.014413
    41  N   -0.263753
    42  C    0.154308
    43  C    0.626708
    44  O   -0.589765
    45  C    0.004980
    46  C    0.581698
    47  N    0.003147
    48  O   -0.524507
    55  N   -0.228836
    56  C    0.092665
    57  C    0.631617
    58  O   -0.614120
    59  C    0.050442
    60  C    0.046409
    61  C    0.174669
    62  N   -0.194079
    63  C    0.773259
    64  N   -0.008531
    65  N   -0.012014
    66  O   -0.597716
 Electronic spatial extent (au):  <R**2>=         222916.8774
 Charge=              1.0000 electrons
 Dipole moment (field-independent basis, Debye):
    X=            -13.8219    Y=             60.5292    Z=            -43.2412  Tot=             75.6613
 Quadrupole moment (field-independent basis, Debye-Ang):
   XX=           -123.1840   YY=            564.0173   ZZ=            262.7175
   XY=           -203.1413   XZ=            172.8824   YZ=           -581.6674
 Traceless Quadrupole moment (field-independent basis, Debye-Ang):
   XX=           -357.7009   YY=            329.5004   ZZ=             28.2005
   XY=           -203.1413   XZ=            172.8824   YZ=           -581.6674
 Octapole moment (field-independent basis, Debye-Ang**2):
  XXX=           1149.3066  YYY=           2863.7868  ZZZ=          -1190.1390  XYY=          -2492.7863
  XXY=          -1170.8144  XXZ=            410.8931  XZZ=          -1731.7326  YZZ=           4154.3084
  YYZ=          -6416.1915  XYZ=           2557.1252
 Hexadecapole moment (field-independent basis, Debye-Ang**3):
 XXXX=         -14978.4929 YYYY=         -37045.2847 ZZZZ=          -5773.9942 XXXY=          12119.8700
 XXXZ=          -7018.6515 YYYX=         -26733.7653 YYYZ=         -54172.1644 ZZZX=          17574.2759
 ZZZY=         -25061.3839 XXYY=         -13155.9301 XXZZ=          -1729.3421 YYZZ=          50149.0394
 XXYZ=           2414.9395 YYXZ=          33727.3226 ZZXY=         -27127.6177
 N-N= 4.892353737435D+03 E-N=-1.410530874502D+04  KE= 1.849277498900D+03
 Unable to Open any file for archive entry.
 1\1\GINC-QML-002\SP\RB3LYP\6-31G(d)\C25H41N8O6(1+)\KENGMITH\11-Jun-202
 2\0\\# B3LYP/6-31G* empiricaldispersion=gd3 guess=read geom=check nosy
 mm integral(ultrafinegrid)\\Candidate Structure: Conf:211 Charge calc 
 in gas phase\\1,1\N,0,-0.5115084095,10.0930234463,-8.0657816758\C,0,0.
 123824065,10.3054040445,-6.7216432177\C,0,-0.7650231485,9.4916862478,-
 5.757522179\O,0,-1.4271593478,8.5596359602,-6.2137735746\C,0,0.3124344
 21,11.8070671762,-6.4180444429\C,0,0.8523067875,12.5437984879,-7.62702
 49078\C,0,2.2222164306,12.558585233,-7.9201085245\C,0,-0.0472854365,13
 .1252684596,-8.5318112027\C,0,2.6838078835,13.1471176836,-9.0990405473
 \C,0,0.4108438867,13.6914800822,-9.7216312369\C,0,1.7782202935,13.7065
 048367,-10.0047992861\H,0,0.1159805808,10.3442984516,-8.8333223384\H,0
 ,1.1037669539,9.8165487044,-6.7747743518\H,0,1.0087980906,11.888373694
 4,-5.5744020183\H,0,-0.6489768883,12.2291392935,-6.1203206165\H,0,2.93
 06823174,12.1160624702,-7.2224181997\H,0,-1.1081749712,13.1123979504,-
 8.3029097626\H,0,3.7487821845,13.164072243,-9.3124956497\H,0,-0.309477
 3501,14.0924060461,-10.4275136386\H,0,2.1395454425,14.1497453814,-10.9
 283325952\H,0,-1.4002410125,10.6331371296,-8.2569666138\N,0,-0.7969373
 276,9.8454780515,-4.4547142629\C,0,-1.7661200593,9.2136444827,-3.54153
 0691\C,0,-3.185774137,9.2844729957,-4.1479538279\O,0,-3.9793836989,8.3
 588421329,-4.0402590919\C,0,-1.7120518672,9.8687340064,-2.1549233405\C
 ,0,-0.3565913574,9.7785314495,-1.4236586478\C,0,-0.4591625572,10.49186
 43006,-0.06751816\C,0,0.1141706181,8.32835986,-1.2484667234\H,0,-0.267
 1859251,10.6432037017,-4.130853673\H,0,-1.5450568209,8.1461676296,-3.4
 755841047\H,0,-2.0136830865,10.9219921173,-2.2478343455\H,0,-2.4817368
 438,9.3798546686,-1.5449958412\H,0,0.4028119148,10.3112518873,-2.01936
 3478\H,0,-1.1886362494,9.9892589644,0.5795283892\H,0,0.5054441021,10.4
 872116973,0.4510718894\H,0,-0.7760112446,11.5351353545,-0.1828677788\H
 ,0,-0.6343816358,7.740875845,-0.7023409359\H,0,0.2974519798,7.83216351
 54,-2.2079252343\H,0,1.047634996,8.2925440292,-0.6768390059\N,0,-3.473
 3625338,10.4434837967,-4.8112441041\C,0,-4.3724834368,10.3774049413,-5
 .9468372999\C,0,-3.904941087,11.4394137194,-6.958415143\O,0,-2.8083674
 156,12.0059574505,-6.8015839478\C,0,-5.8659063341,10.4674527286,-5.539
 4888805\C,0,-6.66466521,9.5592244845,-6.4609860466\N,0,-6.9066976962,8
 .3214078952,-5.9702868222\O,0,-6.9918672355,9.9168498333,-7.5967827545
 \H,0,-2.7198208643,11.104993619,-4.965867899\H,0,-4.2117459822,9.40502
 60746,-6.4363908718\H,0,-5.9478451538,10.1507205827,-4.4988011302\H,0,
 -6.24535889,11.4890979296,-5.625272381\H,0,-7.2886879239,7.6262993406,
 -6.598582314\H,0,-6.417953388,8.0006343103,-5.1426932084\N,0,-4.721898
 2652,11.6755924495,-7.9914747762\C,0,-4.3177460594,12.5263753642,-9.10
 4661172\C,0,-3.0519857334,11.9837947318,-9.8497493539\O,0,-2.667943477
 4,12.6928874395,-10.8382336575\C,0,-4.2012683398,14.0248700839,-8.6748
 363661\C,0,-5.3029516175,14.9426983362,-9.251880361\C,0,-4.9592004155,
 15.5578747276,-10.6216111487\N,0,-4.417976023,14.5611888262,-11.545235
 0334\C,0,-4.9950172069,14.0026971428,-12.5975704994\N,0,-6.0253273554,
 14.5699387379,-13.2592986038\N,0,-4.5238992621,12.8113459415,-13.02327
 69753\O,0,-2.5422085523,10.9084258032,-9.4829067058\H,0,-0.7951176348,
 9.105718829,-8.1293427747\H,0,-5.5895293322,11.1332010628,-8.058832544
 \H,0,-5.1269942295,12.4368193764,-9.8381837913\H,0,-3.211814336,14.413
 7548295,-8.9414826581\H,0,-4.2480839483,14.0584993381,-7.5851559863\H,
 0,-6.2460313548,14.3856501465,-9.3234126284\H,0,-5.4879333731,15.77928
 74421,-8.5676263137\H,0,-5.8391199529,16.0470327931,-11.0511004638\H,0
 ,-4.1929701884,16.3313080361,-10.4998128815\H,0,-3.6076027954,13.99248
 72397,-11.1862559449\H,0,-6.6003837294,14.0191332111,-13.8791581645\H,
 0,-6.3579810851,15.4888808873,-13.0128506099\H,0,-4.6190774786,12.5530
 239506,-13.9953164593\H,0,-3.7369534161,12.4209982948,-12.4965150393\\
 Version=ES64L-G16RevC.01\HF=-1866.7458194\RMSD=7.341e-09\Dipole=-0.536
 6828,2.1884881,-3.3183885\Quadrupole=-265.941863,244.9754673,20.966395
 7,-151.0305658,128.5338528,-432.4554356\PG=C01 [X(C25H41N8O6)]\\@
 The archive entry for this job was punched.


 THE WISE MAN HAS THE POWER TO REASON AWAY
 WHAT A FOOL BELIEVES.
                     - DOOBIE BROTHERS
 Job cpu time:       0 days  0 hours  5 minutes 15.2 seconds.
 Elapsed time:       0 days  0 hours  1 minutes 19.5 seconds.
 File lengths (MBytes):  RWF=    344 Int=      0 D2E=      0 Chk=     48 Scr=     16
 Normal termination of Gaussian 16 at Sat Jun 11 21:07:43 2022.
