 Entering Gaussian System, Link 0=/opt/software/Gaussian/g16-AVX-C.01/g16/g16
 Input=charge-conf-153.com
 Output=charge-conf-153.log
 Initial command:
 /opt/software/Gaussian/g16-AVX-C.01/g16/l1.exe "/mnt/gs18/scratch/users/kengmith/Gau-10648.inp" -scrdir="/mnt/gs18/scratch/users/kengmith/"
 Entering Link 1 = /opt/software/Gaussian/g16-AVX-C.01/g16/l1.exe PID=     10670.
  
 Copyright (c) 1988-2019, Gaussian, Inc.  All Rights Reserved.
  
 This is part of the Gaussian(R) 16 program.  It is based on
 the Gaussian(R) 09 system (copyright 2009, Gaussian, Inc.),
 the Gaussian(R) 03 system (copyright 2003, Gaussian, Inc.),
 the Gaussian(R) 98 system (copyright 1998, Gaussian, Inc.),
 the Gaussian(R) 94 system (copyright 1995, Gaussian, Inc.),
 the Gaussian 92(TM) system (copyright 1992, Gaussian, Inc.),
 the Gaussian 90(TM) system (copyright 1990, Gaussian, Inc.),
 the Gaussian 88(TM) system (copyright 1988, Gaussian, Inc.),
 the Gaussian 86(TM) system (copyright 1986, Carnegie Mellon
 University), and the Gaussian 82(TM) system (copyright 1983,
 Carnegie Mellon University). Gaussian is a federally registered
 trademark of Gaussian, Inc.
  
 This software contains proprietary and confidential information,
 including trade secrets, belonging to Gaussian, Inc.
  
 This software is provided under written license and may be
 used, copied, transmitted, or stored only in accord with that
 written license.
  
 The following legend is applicable only to US Government
 contracts under FAR:
  
                    RESTRICTED RIGHTS LEGEND
  
 Use, reproduction and disclosure by the US Government is
 subject to restrictions as set forth in subparagraphs (a)
 and (c) of the Commercial Computer Software - Restricted
 Rights clause in FAR 52.227-19.
  
 Gaussian, Inc.
 340 Quinnipiac St., Bldg. 40, Wallingford CT 06492
  
  
 ---------------------------------------------------------------
 Warning -- This program may not be used in any manner that
 competes with the business of Gaussian, Inc. or will provide
 assistance to any competitor of Gaussian, Inc.  The licensee
 of this program is prohibited from giving any competitor of
 Gaussian, Inc. access to this program.  By using this program,
 the user acknowledges that Gaussian, Inc. is engaged in the
 business of creating and licensing software in the field of
 computational chemistry and represents and warrants to the
 licensee that it is not a competitor of Gaussian, Inc. and that
 it will not use this program in any manner prohibited above.
 ---------------------------------------------------------------
  

 Cite this work as:
 Gaussian 16, Revision C.01,
 M. J. Frisch, G. W. Trucks, H. B. Schlegel, G. E. Scuseria, 
 M. A. Robb, J. R. Cheeseman, G. Scalmani, V. Barone, 
 G. A. Petersson, H. Nakatsuji, X. Li, M. Caricato, A. V. Marenich, 
 J. Bloino, B. G. Janesko, R. Gomperts, B. Mennucci, H. P. Hratchian, 
 J. V. Ortiz, A. F. Izmaylov, J. L. Sonnenberg, D. Williams-Young, 
 F. Ding, F. Lipparini, F. Egidi, J. Goings, B. Peng, A. Petrone, 
 T. Henderson, D. Ranasinghe, V. G. Zakrzewski, J. Gao, N. Rega, 
 G. Zheng, W. Liang, M. Hada, M. Ehara, K. Toyota, R. Fukuda, 
 J. Hasegawa, M. Ishida, T. Nakajima, Y. Honda, O. Kitao, H. Nakai, 
 T. Vreven, K. Throssell, J. A. Montgomery, Jr., J. E. Peralta, 
 F. Ogliaro, M. J. Bearpark, J. J. Heyd, E. N. Brothers, K. N. Kudin, 
 V. N. Staroverov, T. A. Keith, R. Kobayashi, J. Normand, 
 K. Raghavachari, A. P. Rendell, J. C. Burant, S. S. Iyengar, 
 J. Tomasi, M. Cossi, J. M. Millam, M. Klene, C. Adamo, R. Cammi, 
 J. W. Ochterski, R. L. Martin, K. Morokuma, O. Farkas, 
 J. B. Foresman, and D. J. Fox, Gaussian, Inc., Wallingford CT, 2019.
 
 ******************************************
 Gaussian 16:  ES64L-G16RevC.01  3-Jul-2019
                11-Jun-2022 
 ******************************************
 %mem=8gb
 %nproc=4
 Will use up to    4 processors via shared memory.
 %chk=conf-153.chk
 ----------------------------------------------------------------------
 # B3LYP/6-31G* empiricaldispersion=gd3 guess=read geom=check nosymm in
 tegral(ultrafinegrid)
 ----------------------------------------------------------------------
 1/29=2,38=1,172=1/1;
 2/12=2,15=1,40=1/2;
 3/5=1,6=6,7=1,11=2,14=-4,25=1,30=1,74=-5,75=-5,116=-2,124=31/1,2,3;
 4/5=1/1;
 5/5=2,38=6/2;
 6/7=2,8=2,9=2,10=2,28=1/1;
 99/5=1,9=1/99;
 ------------------------------------------------------
 Candidate Structure: Conf:153 Charge calc in gas phase
 ------------------------------------------------------
 Structure from the checkpoint file:  "conf-153.chk"
 Charge =  1 Multiplicity = 1
 Redundant internal coordinates found in file.  (old form).
 N,0,-1.8944350711,9.6411403647,-7.5187531687
 C,0,-2.380260302,9.15136322,-6.2110634756
 C,0,-3.3520561784,10.2151499476,-5.656002947
 O,0,-4.2961441144,10.5957565377,-6.335307212
 C,0,-1.2301723015,8.7117872421,-5.2753193359
 C,0,-0.3877012525,7.6172059503,-5.8937097235
 C,0,-0.8227918896,6.2850342907,-5.857426844
 C,0,0.8055391219,7.9179958823,-6.5641267909
 C,0,-0.0816920433,5.2768541483,-6.4732982054
 C,0,1.5493147035,6.9105156596,-7.1830133066
 C,0,1.1067097797,5.5878061205,-7.1391802139
 H,0,-1.2976778315,8.9366568373,-7.9535854029
 H,0,-3.0078397518,8.2768584535,-6.4192019301
 H,0,-1.6617434888,8.3522623383,-4.3320727649
 H,0,-0.6018453523,9.5824407099,-5.0441490163
 H,0,-1.7442584662,6.0358651843,-5.3350352294
 H,0,1.1622495899,8.9456026147,-6.5902523717
 H,0,-0.4276819903,4.2480485974,-6.4279784854
 H,0,2.4768323381,7.1594437793,-7.6909814658
 H,0,1.6869984199,4.8020828761,-7.6142346241
 H,0,-1.3171415466,10.4756871597,-7.3865604913
 N,0,-3.1093000028,10.7128570251,-4.407919825
 C,0,-4.0568289638,11.6331629407,-3.7765829103
 C,0,-4.1767752558,12.9652553814,-4.5386830994
 O,0,-5.2171653769,13.602260384,-4.522083592
 C,0,-3.6742540876,11.8939055429,-2.311519089
 C,0,-3.6370327164,10.6526078126,-1.3965861938
 C,0,-3.2480396802,11.0772020748,0.0270792324
 C,0,-4.9673701254,9.8874448188,-1.3980910547
 H,0,-2.3662322722,10.3305022016,-3.842478433
 H,0,-5.0603410495,11.2033730228,-3.8370031759
 H,0,-2.6988067022,12.4004242077,-2.2845808507
 H,0,-4.4076901671,12.6081104875,-1.918144925
 H,0,-2.8528641669,9.9672705222,-1.7588205686
 H,0,-4.0078379754,11.7447728905,0.4520987884
 H,0,-3.1614735441,10.2070221421,0.6868032804
 H,0,-2.2892681665,11.6089636447,0.0410336043
 H,0,-5.7925071856,10.5440871874,-1.0953141346
 H,0,-5.2085633387,9.4788974307,-2.3857058112
 H,0,-4.9320124668,9.0490922599,-0.6938744868
 N,0,-3.0307380413,13.3945760749,-5.1655221982
 C,0,-3.1412302711,14.2871121528,-6.3062146178
 C,0,-2.5904618577,13.509992984,-7.5197794299
 O,0,-1.7535766543,12.6115622497,-7.3652578866
 C,0,-2.4145041544,15.625690584,-6.0762612213
 C,0,-2.8661947934,16.7225186271,-7.0416622133
 N,0,-2.4093682229,17.9660471421,-6.7548237615
 O,0,-3.5854184182,16.5092421627,-8.020454944
 H,0,-2.2977253028,12.7016171729,-5.2742229619
 H,0,-4.2039550588,14.4971357288,-6.4527885235
 H,0,-2.6245419422,15.9421699068,-5.0480872069
 H,0,-1.3264979149,15.498133002,-6.1506824613
 H,0,-2.7273959855,18.7374550153,-7.3261406937
 H,0,-1.9130729321,18.1757906915,-5.9011959739
 N,0,-3.1127438169,13.8497449613,-8.7120710788
 C,0,-2.818644454,13.1699289624,-9.9677831271
 C,0,-2.3518504585,11.7339329888,-9.6729090035
 O,0,-1.2564506024,11.2965670441,-10.0053473501
 C,0,-1.8534554505,13.9522832022,-10.8794618298
 C,0,-2.0967158012,13.7692723715,-12.3914565758
 C,0,-1.7114057491,12.4169513345,-13.0141180119
 N,0,-2.5028664975,11.2685481199,-12.5277926686
 C,0,-3.8158917038,11.0916387744,-12.6946378292
 N,0,-4.4302080867,11.5818521826,-13.7866806534
 N,0,-4.518074797,10.4186145455,-11.7726180242
 O,0,-3.3249278202,10.9856273452,-9.1632387427
 H,0,-2.8614139978,10.2646340576,-8.4987185406
 H,0,-3.6412919295,14.7228502223,-8.7333065066
 H,0,-3.7882434307,13.0649363906,-10.4757834379
 H,0,-0.8237759867,13.6888501263,-10.6160650072
 H,0,-1.9841334356,15.0168181352,-10.6558059836
 H,0,-3.1504592635,13.9817386524,-12.6214259156
 H,0,-1.5123660358,14.5270756194,-12.9277040455
 H,0,-1.7810860002,12.4695862952,-14.1064114723
 H,0,-0.6750901876,12.1675381694,-12.7771837593
 H,0,-2.0762230167,10.7801520326,-11.7443356374
 H,0,-5.4364361034,11.5822272521,-13.8665017897
 H,0,-3.8988799421,11.847027952,-14.6029888337
 H,0,-5.4598697464,10.1075175862,-11.9655094723
 H,0,-4.1980719153,10.3981125603,-10.7972880193
 Recover connectivity data from disk.
                           ----------------------------
                           !    Current Parameters    !
                           ! (Angstroms and Degrees)  !
 --------------------------                            --------------------------
 ! Name  Definition              Value                                          !
 --------------------------------------------------------------------------------
 ! R1    R(1,2)                  1.4785                                         !
 ! R2    R(1,12)                 1.0205                                         !
 ! R3    R(1,21)                 1.0233                                         !
 ! R4    R(2,3)                  1.5441                                         !
 ! R5    R(2,5)                  1.5465                                         !
 ! R6    R(2,13)                 1.0963                                         !
 ! R7    R(3,4)                  1.2238                                         !
 ! R8    R(3,22)                 1.3654                                         !
 ! R9    R(5,6)                  1.5134                                         !
 ! R10   R(5,14)                 1.0978                                         !
 ! R11   R(5,15)                 1.0983                                         !
 ! R12   R(6,7)                  1.4019                                         !
 ! R13   R(6,8)                  1.4013                                         !
 ! R14   R(7,9)                  1.3946                                         !
 ! R15   R(7,16)                 1.0882                                         !
 ! R16   R(8,10)                 1.3969                                         !
 ! R17   R(8,17)                 1.0881                                         !
 ! R18   R(9,11)                 1.3973                                         !
 ! R19   R(9,18)                 1.0864                                         !
 ! R20   R(10,11)                1.3955                                         !
 ! R21   R(10,19)                1.0864                                         !
 ! R22   R(11,20)                1.0862                                         !
 ! R23   R(22,23)                1.464                                          !
 ! R24   R(22,30)                1.009                                          !
 ! R25   R(23,24)                1.5394                                         !
 ! R26   R(23,26)                1.5365                                         !
 ! R27   R(23,31)                1.0933                                         !
 ! R28   R(24,25)                1.22                                           !
 ! R29   R(24,41)                1.375                                          !
 ! R30   R(26,27)                1.5425                                         !
 ! R31   R(26,32)                1.0994                                         !
 ! R32   R(26,33)                1.0967                                         !
 ! R33   R(27,28)                1.5357                                         !
 ! R34   R(27,29)                1.5347                                         !
 ! R35   R(27,34)                1.1026                                         !
 ! R36   R(28,35)                1.0971                                         !
 ! R37   R(28,36)                1.0954                                         !
 ! R38   R(28,37)                1.0965                                         !
 ! R39   R(29,38)                1.0971                                         !
 ! R40   R(29,39)                1.0957                                         !
 ! R41   R(29,40)                1.0954                                         !
 ! R42   R(41,42)                1.4526                                         !
 ! R43   R(41,49)                1.0146                                         !
 ! R44   R(42,43)                1.5427                                         !
 ! R45   R(42,45)                1.5404                                         !
 ! R46   R(42,50)                1.0932                                         !
 ! R47   R(43,44)                1.2375                                         !
 ! R48   R(43,55)                1.3453                                         !
 ! R49   R(45,46)                1.5294                                         !
 ! R50   R(45,51)                1.0961                                         !
 ! R51   R(45,52)                1.098                                          !
 ! R52   R(46,47)                1.3555                                         !
 ! R53   R(46,48)                1.2332                                         !
 ! R54   R(47,53)                1.0112                                         !
 ! R55   R(47,54)                1.0094                                         !
 ! R56   R(55,56)                1.4579                                         !
 ! R57   R(55,68)                1.0208                                         !
 ! R58   R(56,57)                1.5385                                         !
 ! R59   R(56,59)                1.541                                          !
 ! R60   R(56,69)                1.0996                                         !
 ! R61   R(57,58)                1.2254                                         !
 ! R62   R(57,66)                1.3291                                         !
 ! R63   R(59,60)                1.5423                                         !
 ! R64   R(59,70)                1.095                                          !
 ! R65   R(59,71)                1.0956                                         !
 ! R66   R(60,61)                1.5378                                         !
 ! R67   R(60,72)                1.0993                                         !
 ! R68   R(60,73)                1.0969                                         !
 ! R69   R(61,62)                1.4771                                         !
 ! R70   R(61,74)                1.0958                                         !
 ! R71   R(61,75)                1.0919                                         !
 ! R72   R(62,63)                1.3354                                         !
 ! R73   R(62,76)                1.017                                          !
 ! R74   R(63,64)                1.3455                                         !
 ! R75   R(63,65)                1.3402                                         !
 ! R76   R(64,77)                1.0094                                         !
 ! R77   R(64,78)                1.0094                                         !
 ! R78   R(65,79)                1.0104                                         !
 ! R79   R(65,80)                1.0267                                         !
 ! R80   R(66,67)                1.0846                                         !
 ! A1    A(2,1,12)             109.8967                                         !
 ! A2    A(2,1,21)             109.9542                                         !
 ! A3    A(12,1,21)            106.7457                                         !
 ! A4    A(1,2,3)              107.2495                                         !
 ! A5    A(1,2,5)              112.642                                          !
 ! A6    A(1,2,13)             106.5243                                         !
 ! A7    A(3,2,5)              116.5114                                         !
 ! A8    A(3,2,13)             104.9232                                         !
 ! A9    A(5,2,13)             108.2919                                         !
 ! A10   A(2,3,4)              120.0176                                         !
 ! A11   A(2,3,22)             117.8932                                         !
 ! A12   A(4,3,22)             122.0853                                         !
 ! A13   A(2,5,6)              111.8601                                         !
 ! A14   A(2,5,14)             108.7004                                         !
 ! A15   A(2,5,15)             109.1162                                         !
 ! A16   A(6,5,14)             109.4547                                         !
 ! A17   A(6,5,15)             109.9312                                         !
 ! A18   A(14,5,15)            107.6776                                         !
 ! A19   A(5,6,7)              120.2621                                         !
 ! A20   A(5,6,8)              120.948                                          !
 ! A21   A(7,6,8)              118.726                                          !
 ! A22   A(6,7,9)              120.7039                                         !
 ! A23   A(6,7,16)             119.5273                                         !
 ! A24   A(9,7,16)             119.7666                                         !
 ! A25   A(6,8,10)             120.6998                                         !
 ! A26   A(6,8,17)             119.5614                                         !
 ! A27   A(10,8,17)            119.7333                                         !
 ! A28   A(7,9,11)             120.1017                                         !
 ! A29   A(7,9,18)             119.7976                                         !
 ! A30   A(11,9,18)            120.0994                                         !
 ! A31   A(8,10,11)            120.0551                                         !
 ! A32   A(8,10,19)            119.7677                                         !
 ! A33   A(11,10,19)           120.1753                                         !
 ! A34   A(9,11,10)            119.7133                                         !
 ! A35   A(9,11,20)            120.1213                                         !
 ! A36   A(10,11,20)           120.1639                                         !
 ! A37   A(3,22,23)            120.5472                                         !
 ! A38   A(3,22,30)            120.3345                                         !
 ! A39   A(23,22,30)           118.241                                          !
 ! A40   A(22,23,24)           112.39                                           !
 ! A41   A(22,23,26)           110.8987                                         !
 ! A42   A(22,23,31)           108.8502                                         !
 ! A43   A(24,23,26)           110.1582                                         !
 ! A44   A(24,23,31)           103.9627                                         !
 ! A45   A(26,23,31)           110.3613                                         !
 ! A46   A(23,24,25)           120.7659                                         !
 ! A47   A(23,24,41)           115.5272                                         !
 ! A48   A(25,24,41)           123.6374                                         !
 ! A49   A(23,26,27)           115.7869                                         !
 ! A50   A(23,26,32)           108.8116                                         !
 ! A51   A(23,26,33)           106.6193                                         !
 ! A52   A(27,26,32)           109.5604                                         !
 ! A53   A(27,26,33)           109.1138                                         !
 ! A54   A(32,26,33)           106.5306                                         !
 ! A55   A(26,27,28)           109.4809                                         !
 ! A56   A(26,27,29)           112.3165                                         !
 ! A57   A(26,27,34)           108.8127                                         !
 ! A58   A(28,27,29)           110.9974                                         !
 ! A59   A(28,27,34)           107.2326                                         !
 ! A60   A(29,27,34)           107.8344                                         !
 ! A61   A(27,28,35)           110.607                                          !
 ! A62   A(27,28,36)           111.0205                                         !
 ! A63   A(27,28,37)           111.554                                          !
 ! A64   A(35,28,36)           107.7455                                         !
 ! A65   A(35,28,37)           107.7917                                         !
 ! A66   A(36,28,37)           107.9685                                         !
 ! A67   A(27,29,38)           110.6872                                         !
 ! A68   A(27,29,39)           112.1861                                         !
 ! A69   A(27,29,40)           110.6682                                         !
 ! A70   A(38,29,39)           107.8404                                         !
 ! A71   A(38,29,40)           107.7525                                         !
 ! A72   A(39,29,40)           107.5299                                         !
 ! A73   A(24,41,42)           119.1072                                         !
 ! A74   A(24,41,49)           115.9617                                         !
 ! A75   A(42,41,49)           112.9856                                         !
 ! A76   A(41,42,43)           106.3235                                         !
 ! A77   A(41,42,45)           112.3851                                         !
 ! A78   A(41,42,50)           107.2952                                         !
 ! A79   A(43,42,45)           112.7516                                         !
 ! A80   A(43,42,50)           109.7781                                         !
 ! A81   A(45,42,50)           108.1623                                         !
 ! A82   A(42,43,44)           120.5918                                         !
 ! A83   A(42,43,55)           115.5538                                         !
 ! A84   A(44,43,55)           123.8187                                         !
 ! A85   A(42,45,46)           112.932                                          !
 ! A86   A(42,45,51)           107.4897                                         !
 ! A87   A(42,45,52)           110.8806                                         !
 ! A88   A(46,45,51)           109.1749                                         !
 ! A89   A(46,45,52)           109.4623                                         !
 ! A90   A(51,45,52)           106.6788                                         !
 ! A91   A(45,46,47)           115.1392                                         !
 ! A92   A(45,46,48)           123.3136                                         !
 ! A93   A(47,46,48)           121.5453                                         !
 ! A94   A(46,47,53)           118.3126                                         !
 ! A95   A(46,47,54)           122.3619                                         !
 ! A96   A(53,47,54)           118.2861                                         !
 ! A97   A(43,55,56)           124.5612                                         !
 ! A98   A(43,55,68)           115.8138                                         !
 ! A99   A(56,55,68)           119.035                                          !
 ! A100  A(55,56,57)           109.3513                                         !
 ! A101  A(55,56,59)           113.5263                                         !
 ! A102  A(55,56,69)           105.3403                                         !
 ! A103  A(57,56,59)           113.4041                                         !
 ! A104  A(57,56,69)           105.4832                                         !
 ! A105  A(59,56,69)           109.1126                                         !
 ! A106  A(56,57,58)           123.5283                                         !
 ! A107  A(56,57,66)           112.1394                                         !
 ! A108  A(58,57,66)           123.8837                                         !
 ! A109  A(56,59,60)           114.8936                                         !
 ! A110  A(56,59,70)           108.9364                                         !
 ! A111  A(56,59,71)           107.3261                                         !
 ! A112  A(60,59,70)           110.8291                                         !
 ! A113  A(60,59,71)           107.2539                                         !
 ! A114  A(70,59,71)           107.2663                                         !
 ! A115  A(59,60,61)           117.5005                                         !
 ! A116  A(59,60,72)           109.4717                                         !
 ! A117  A(59,60,73)           108.255                                          !
 ! A118  A(61,60,72)           108.9919                                         !
 ! A119  A(61,60,73)           106.0268                                         !
 ! A120  A(72,60,73)           105.9531                                         !
 ! A121  A(60,61,62)           114.5904                                         !
 ! A122  A(60,61,74)           110.2083                                         !
 ! A123  A(60,61,75)           110.5361                                         !
 ! A124  A(62,61,74)           109.3583                                         !
 ! A125  A(62,61,75)           105.0409                                         !
 ! A126  A(74,61,75)           106.7156                                         !
 ! A127  A(61,62,63)           126.0672                                         !
 ! A128  A(61,62,76)           113.7166                                         !
 ! A129  A(63,62,76)           116.4305                                         !
 ! A130  A(62,63,64)           120.1386                                         !
 ! A131  A(62,63,65)           119.7191                                         !
 ! A132  A(64,63,65)           120.1416                                         !
 ! A133  A(63,64,77)           121.2971                                         !
 ! A134  A(63,64,78)           120.78                                           !
 ! A135  A(77,64,78)           117.4297                                         !
 ! A136  A(63,65,79)           120.7725                                         !
 ! A137  A(63,65,80)           120.0185                                         !
 ! A138  A(79,65,80)           117.7566                                         !
 ! A139  A(57,66,67)           107.2376                                         !
 ! D1    D(12,1,2,3)          -176.0369                                         !
 ! D2    D(12,1,2,5)            54.473                                          !
 ! D3    D(12,1,2,13)          -64.1123                                         !
 ! D4    D(21,1,2,3)            66.7444                                         !
 ! D5    D(21,1,2,5)           -62.7457                                         !
 ! D6    D(21,1,2,13)          178.669                                          !
 ! D7    D(1,2,3,4)             53.7614                                         !
 ! D8    D(1,2,3,22)          -125.5349                                         !
 ! D9    D(5,2,3,4)           -178.9841                                         !
 ! D10   D(5,2,3,22)             1.7196                                         !
 ! D11   D(13,2,3,4)           -59.2532                                         !
 ! D12   D(13,2,3,22)          121.4505                                         !
 ! D13   D(1,2,5,6)            -58.4588                                         !
 ! D14   D(1,2,5,14)          -179.4338                                         !
 ! D15   D(1,2,5,15)            63.3974                                         !
 ! D16   D(3,2,5,6)            176.9913                                         !
 ! D17   D(3,2,5,14)            56.0164                                         !
 ! D18   D(3,2,5,15)           -61.1525                                         !
 ! D19   D(13,2,5,6)            59.087                                          !
 ! D20   D(13,2,5,14)          -61.8879                                         !
 ! D21   D(13,2,5,15)         -179.0568                                         !
 ! D22   D(2,3,22,23)         -174.5182                                         !
 ! D23   D(2,3,22,30)           -5.4277                                         !
 ! D24   D(4,3,22,23)            6.201                                          !
 ! D25   D(4,3,22,30)          175.2915                                         !
 ! D26   D(2,5,6,7)            -80.4725                                         !
 ! D27   D(2,5,6,8)             96.585                                          !
 ! D28   D(14,5,6,7)            40.064                                          !
 ! D29   D(14,5,6,8)          -142.8785                                         !
 ! D30   D(15,5,6,7)           158.1406                                         !
 ! D31   D(15,5,6,8)           -24.8019                                         !
 ! D32   D(5,6,7,9)            177.2842                                         !
 ! D33   D(5,6,7,16)            -3.2643                                         !
 ! D34   D(8,6,7,9)              0.1619                                         !
 ! D35   D(8,6,7,16)           179.6134                                         !
 ! D36   D(5,6,8,10)          -177.2022                                         !
 ! D37   D(5,6,8,17)             3.6475                                         !
 ! D38   D(7,6,8,10)            -0.1004                                         !
 ! D39   D(7,6,8,17)          -179.2507                                         !
 ! D40   D(6,7,9,11)            -0.1682                                         !
 ! D41   D(6,7,9,18)           179.4174                                         !
 ! D42   D(16,7,9,11)         -179.6184                                         !
 ! D43   D(16,7,9,18)           -0.0328                                         !
 ! D44   D(6,8,10,11)            0.0452                                         !
 ! D45   D(6,8,10,19)         -179.4539                                         !
 ! D46   D(17,8,10,11)         179.194                                          !
 ! D47   D(17,8,10,19)          -0.305                                          !
 ! D48   D(7,9,11,10)            0.1099                                         !
 ! D49   D(7,9,11,20)          179.6608                                         !
 ! D50   D(18,9,11,10)        -179.4744                                         !
 ! D51   D(18,9,11,20)           0.0765                                         !
 ! D52   D(8,10,11,9)           -0.0488                                         !
 ! D53   D(8,10,11,20)        -179.5996                                         !
 ! D54   D(19,10,11,9)         179.4481                                         !
 ! D55   D(19,10,11,20)         -0.1026                                         !
 ! D56   D(3,22,23,24)         -64.361                                          !
 ! D57   D(3,22,23,26)         171.8413                                         !
 ! D58   D(3,22,23,31)          50.2465                                         !
 ! D59   D(30,22,23,24)        126.3245                                         !
 ! D60   D(30,22,23,26)          2.5268                                         !
 ! D61   D(30,22,23,31)       -119.068                                          !
 ! D62   D(22,23,24,25)        150.4509                                         !
 ! D63   D(22,23,24,41)        -32.4724                                         !
 ! D64   D(26,23,24,25)        -85.3405                                         !
 ! D65   D(26,23,24,41)         91.7363                                         !
 ! D66   D(31,23,24,25)         32.9018                                         !
 ! D67   D(31,23,24,41)       -150.0214                                         !
 ! D68   D(22,23,26,27)        -59.9775                                         !
 ! D69   D(22,23,26,32)         63.8981                                         !
 ! D70   D(22,23,26,33)        178.4404                                         !
 ! D71   D(24,23,26,27)        174.9571                                         !
 ! D72   D(24,23,26,32)        -61.1673                                         !
 ! D73   D(24,23,26,33)         53.375                                          !
 ! D74   D(31,23,26,27)         60.7268                                         !
 ! D75   D(31,23,26,32)       -175.3976                                         !
 ! D76   D(31,23,26,33)        -60.8553                                         !
 ! D77   D(23,24,41,42)        155.3864                                         !
 ! D78   D(23,24,41,49)         15.1942                                         !
 ! D79   D(25,24,41,42)        -27.6307                                         !
 ! D80   D(25,24,41,49)       -167.8229                                         !
 ! D81   D(23,26,27,28)       -179.719                                          !
 ! D82   D(23,26,27,29)        -55.9355                                         !
 ! D83   D(23,26,27,34)         63.3777                                         !
 ! D84   D(32,26,27,28)         56.7964                                         !
 ! D85   D(32,26,27,29)       -179.4201                                         !
 ! D86   D(32,26,27,34)        -60.1069                                         !
 ! D87   D(33,26,27,28)        -59.48                                           !
 ! D88   D(33,26,27,29)         64.3035                                         !
 ! D89   D(33,26,27,34)       -176.3833                                         !
 ! D90   D(26,27,28,35)         63.4832                                         !
 ! D91   D(26,27,28,36)       -176.9571                                         !
 ! D92   D(26,27,28,37)        -56.4847                                         !
 ! D93   D(29,27,28,35)        -61.072                                          !
 ! D94   D(29,27,28,36)         58.4877                                         !
 ! D95   D(29,27,28,37)        178.9602                                         !
 ! D96   D(34,27,28,35)       -178.6216                                         !
 ! D97   D(34,27,28,36)        -59.0619                                         !
 ! D98   D(34,27,28,37)         61.4106                                         !
 ! D99   D(26,27,29,38)        -57.0886                                         !
 ! D100  D(26,27,29,39)         63.4196                                         !
 ! D101  D(26,27,29,40)       -176.481                                          !
 ! D102  D(28,27,29,38)         65.8456                                         !
 ! D103  D(28,27,29,39)       -173.6463                                         !
 ! D104  D(28,27,29,40)        -53.5468                                         !
 ! D105  D(34,27,29,38)       -176.9721                                         !
 ! D106  D(34,27,29,39)        -56.464                                          !
 ! D107  D(34,27,29,40)         63.6355                                         !
 ! D108  D(24,41,42,43)       -115.5902                                         !
 ! D109  D(24,41,42,45)        120.5996                                         !
 ! D110  D(24,41,42,50)          1.8279                                         !
 ! D111  D(49,41,42,43)         25.7092                                         !
 ! D112  D(49,41,42,45)        -98.101                                          !
 ! D113  D(49,41,42,50)        143.1273                                         !
 ! D114  D(41,42,43,44)        -26.6085                                         !
 ! D115  D(41,42,43,55)        151.3012                                         !
 ! D116  D(45,42,43,44)         96.9733                                         !
 ! D117  D(45,42,43,55)        -85.117                                          !
 ! D118  D(50,42,43,44)       -142.3628                                         !
 ! D119  D(50,42,43,55)         35.5469                                         !
 ! D120  D(41,42,45,46)       -162.1184                                         !
 ! D121  D(41,42,45,51)        -41.6385                                         !
 ! D122  D(41,42,45,52)         74.6105                                         !
 ! D123  D(43,42,45,46)         77.7268                                         !
 ! D124  D(43,42,45,51)       -161.7932                                         !
 ! D125  D(43,42,45,52)        -45.5443                                         !
 ! D126  D(50,42,45,46)        -43.8569                                         !
 ! D127  D(50,42,45,51)         76.623                                          !
 ! D128  D(50,42,45,52)       -167.1281                                         !
 ! D129  D(42,43,55,56)       -174.6691                                         !
 ! D130  D(42,43,55,68)         14.2563                                         !
 ! D131  D(44,43,55,56)          3.1651                                         !
 ! D132  D(44,43,55,68)       -167.9095                                         !
 ! D133  D(42,45,46,47)        170.4922                                         !
 ! D134  D(42,45,46,48)        -10.0094                                         !
 ! D135  D(51,45,46,47)         50.9796                                         !
 ! D136  D(51,45,46,48)       -129.522                                          !
 ! D137  D(52,45,46,47)        -65.4544                                         !
 ! D138  D(52,45,46,48)        114.044                                          !
 ! D139  D(45,46,47,53)       -176.0551                                         !
 ! D140  D(45,46,47,54)         -7.923                                          !
 ! D141  D(48,46,47,53)          4.4367                                         !
 ! D142  D(48,46,47,54)        172.5689                                         !
 ! D143  D(43,55,56,57)         23.7181                                         !
 ! D144  D(43,55,56,59)       -104.0207                                         !
 ! D145  D(43,55,56,69)        136.6562                                         !
 ! D146  D(68,55,56,57)       -165.4738                                         !
 ! D147  D(68,55,56,59)         66.7873                                         !
 ! D148  D(68,55,56,69)        -52.5357                                         !
 ! D149  D(55,56,57,58)       -120.3473                                         !
 ! D150  D(55,56,57,66)         67.0824                                         !
 ! D151  D(59,56,57,58)          7.46                                           !
 ! D152  D(59,56,57,66)       -165.1103                                         !
 ! D153  D(69,56,57,58)        126.8079                                         !
 ! D154  D(69,56,57,66)        -45.7624                                         !
 ! D155  D(55,56,59,60)       -147.2984                                         !
 ! D156  D(55,56,59,70)         87.6972                                         !
 ! D157  D(55,56,59,71)        -28.1354                                         !
 ! D158  D(57,56,59,60)         87.0939                                         !
 ! D159  D(57,56,59,70)        -37.9105                                         !
 ! D160  D(57,56,59,71)       -153.7431                                         !
 ! D161  D(69,56,59,60)        -30.1541                                         !
 ! D162  D(69,56,59,70)       -155.1585                                         !
 ! D163  D(69,56,59,71)         89.0089                                         !
 ! D164  D(56,57,66,67)       -148.7019                                         !
 ! D165  D(58,57,66,67)         38.7588                                         !
 ! D166  D(56,59,60,61)        -72.3211                                         !
 ! D167  D(56,59,60,72)         52.6528                                         !
 ! D168  D(56,59,60,73)        167.7145                                         !
 ! D169  D(70,59,60,61)         51.6876                                         !
 ! D170  D(70,59,60,72)        176.6615                                         !
 ! D171  D(70,59,60,73)        -68.2768                                         !
 ! D172  D(71,59,60,61)        168.4757                                         !
 ! D173  D(71,59,60,72)        -66.5504                                         !
 ! D174  D(71,59,60,73)         48.5113                                         !
 ! D175  D(59,60,61,62)         65.2125                                         !
 ! D176  D(59,60,61,74)       -170.946                                          !
 ! D177  D(59,60,61,75)        -53.2244                                         !
 ! D178  D(72,60,61,62)        -59.9997                                         !
 ! D179  D(72,60,61,74)         63.8419                                         !
 ! D180  D(72,60,61,75)       -178.4365                                         !
 ! D181  D(73,60,61,62)       -173.6585                                         !
 ! D182  D(73,60,61,74)        -49.817                                          !
 ! D183  D(73,60,61,75)         67.9046                                         !
 ! D184  D(60,61,62,63)         63.8217                                         !
 ! D185  D(60,61,62,76)        -93.3133                                         !
 ! D186  D(74,61,62,63)        -60.472                                          !
 ! D187  D(74,61,62,76)        142.393                                          !
 ! D188  D(75,61,62,63)       -174.6819                                         !
 ! D189  D(75,61,62,76)         28.1831                                         !
 ! D190  D(61,62,63,64)         30.6395                                         !
 ! D191  D(61,62,63,65)       -149.6549                                         !
 ! D192  D(76,62,63,64)       -172.7681                                         !
 ! D193  D(76,62,63,65)          6.9374                                         !
 ! D194  D(62,63,64,77)       -170.6753                                         !
 ! D195  D(62,63,64,78)         17.5887                                         !
 ! D196  D(65,63,64,77)          9.6203                                         !
 ! D197  D(65,63,64,78)       -162.1156                                         !
 ! D198  D(62,63,65,79)       -167.1456                                         !
 ! D199  D(62,63,65,80)         26.9123                                         !
 ! D200  D(64,63,65,79)         12.5599                                         !
 ! D201  D(64,63,65,80)       -153.3821                                         !
 --------------------------------------------------------------------------------
 Symmetry turned off by external request.
 Stoichiometry    C25H41N8O6(1+)
 Framework group  C1[X(C25H41N8O6)]
 Deg. of freedom   234
 Full point group                 C1      NOp   1
                          Input orientation:                          
 ---------------------------------------------------------------------
 Center     Atomic      Atomic             Coordinates (Angstroms)
 Number     Number       Type             X           Y           Z
 ---------------------------------------------------------------------
      1          7           0       -1.894435    9.641140   -7.518753
      2          6           0       -2.380260    9.151363   -6.211063
      3          6           0       -3.352056   10.215150   -5.656003
      4          8           0       -4.296144   10.595757   -6.335307
      5          6           0       -1.230172    8.711787   -5.275319
      6          6           0       -0.387701    7.617206   -5.893710
      7          6           0       -0.822792    6.285034   -5.857427
      8          6           0        0.805539    7.917996   -6.564127
      9          6           0       -0.081692    5.276854   -6.473298
     10          6           0        1.549315    6.910516   -7.183013
     11          6           0        1.106710    5.587806   -7.139180
     12          1           0       -1.297678    8.936657   -7.953585
     13          1           0       -3.007840    8.276858   -6.419202
     14          1           0       -1.661743    8.352262   -4.332073
     15          1           0       -0.601845    9.582441   -5.044149
     16          1           0       -1.744258    6.035865   -5.335035
     17          1           0        1.162250    8.945603   -6.590252
     18          1           0       -0.427682    4.248049   -6.427978
     19          1           0        2.476832    7.159444   -7.690981
     20          1           0        1.686998    4.802083   -7.614235
     21          1           0       -1.317142   10.475687   -7.386560
     22          7           0       -3.109300   10.712857   -4.407920
     23          6           0       -4.056829   11.633163   -3.776583
     24          6           0       -4.176775   12.965255   -4.538683
     25          8           0       -5.217165   13.602260   -4.522084
     26          6           0       -3.674254   11.893906   -2.311519
     27          6           0       -3.637033   10.652608   -1.396586
     28          6           0       -3.248040   11.077202    0.027079
     29          6           0       -4.967370    9.887445   -1.398091
     30          1           0       -2.366232   10.330502   -3.842478
     31          1           0       -5.060341   11.203373   -3.837003
     32          1           0       -2.698807   12.400424   -2.284581
     33          1           0       -4.407690   12.608110   -1.918145
     34          1           0       -2.852864    9.967271   -1.758821
     35          1           0       -4.007838   11.744773    0.452099
     36          1           0       -3.161474   10.207022    0.686803
     37          1           0       -2.289268   11.608964    0.041034
     38          1           0       -5.792507   10.544087   -1.095314
     39          1           0       -5.208563    9.478897   -2.385706
     40          1           0       -4.932012    9.049092   -0.693874
     41          7           0       -3.030738   13.394576   -5.165522
     42          6           0       -3.141230   14.287112   -6.306215
     43          6           0       -2.590462   13.509993   -7.519779
     44          8           0       -1.753577   12.611562   -7.365258
     45          6           0       -2.414504   15.625691   -6.076261
     46          6           0       -2.866195   16.722519   -7.041662
     47          7           0       -2.409368   17.966047   -6.754824
     48          8           0       -3.585418   16.509242   -8.020455
     49          1           0       -2.297725   12.701617   -5.274223
     50          1           0       -4.203955   14.497136   -6.452789
     51          1           0       -2.624542   15.942170   -5.048087
     52          1           0       -1.326498   15.498133   -6.150682
     53          1           0       -2.727396   18.737455   -7.326141
     54          1           0       -1.913073   18.175791   -5.901196
     55          7           0       -3.112744   13.849745   -8.712071
     56          6           0       -2.818644   13.169929   -9.967783
     57          6           0       -2.351850   11.733933   -9.672909
     58          8           0       -1.256451   11.296567  -10.005347
     59          6           0       -1.853455   13.952283  -10.879462
     60          6           0       -2.096716   13.769272  -12.391457
     61          6           0       -1.711406   12.416951  -13.014118
     62          7           0       -2.502866   11.268548  -12.527793
     63          6           0       -3.815892   11.091639  -12.694638
     64          7           0       -4.430208   11.581852  -13.786681
     65          7           0       -4.518075   10.418615  -11.772618
     66          8           0       -3.324928   10.985627   -9.163239
     67          1           0       -2.861414   10.264634   -8.498719
     68          1           0       -3.641292   14.722850   -8.733307
     69          1           0       -3.788243   13.064936  -10.475783
     70          1           0       -0.823776   13.688850  -10.616065
     71          1           0       -1.984133   15.016818  -10.655806
     72          1           0       -3.150459   13.981739  -12.621426
     73          1           0       -1.512366   14.527076  -12.927704
     74          1           0       -1.781086   12.469586  -14.106411
     75          1           0       -0.675090   12.167538  -12.777184
     76          1           0       -2.076223   10.780152  -11.744336
     77          1           0       -5.436436   11.582227  -13.866502
     78          1           0       -3.898880   11.847028  -14.602989
     79          1           0       -5.459870   10.107518  -11.965509
     80          1           0       -4.198072   10.398113  -10.797288
 ---------------------------------------------------------------------
 Rotational constants (GHZ):           0.0885799           0.0690923           0.0452239
 Standard basis: 6-31G(d) (6D, 7F)
   667 basis functions,  1256 primitive gaussians,   667 cartesian basis functions
   147 alpha electrons      147 beta electrons
       nuclear repulsion energy      4817.0300187705 Hartrees.
 NAtoms=   80 NActive=   80 NUniq=   80 SFac= 1.00D+00 NAtFMM=   60 NAOKFM=T Big=T
 Integral buffers will be    131072 words long.
 Raffenetti 2 integral format.
 Two-electron integral symmetry is turned off.
 Nuclear repulsion after empirical dispersion term =     4816.9223442122 Hartrees.
 One-electron integrals computed using PRISM.
 NBasis=   667 RedAO= T EigKep=  4.68D-04  NBF=   667
 NBsUse=   667 1.00D-06 EigRej= -1.00D+00 NBFU=   667
 Initial guess from the checkpoint file:  "conf-153.chk"
 B after Tr=     0.000000    0.000000    0.000000
         Rot=    1.000000    0.000000    0.000000    0.000000 Ang=   0.00 deg.
 Requested convergence on RMS density matrix=1.00D-08 within 128 cycles.
 Requested convergence on MAX density matrix=1.00D-06.
 Requested convergence on             energy=1.00D-06.
 No special actions if energy rises.
 SCF Done:  E(RB3LYP) =  -1866.73345698     A.U. after    3 cycles
            NFock=  3  Conv=0.66D-09     -V/T= 2.0095

 **********************************************************************

            Population analysis using the SCF Density.

 **********************************************************************

 Alpha  occ. eigenvalues --  -19.25269 -19.22754 -19.21233 -19.20851 -19.19527
 Alpha  occ. eigenvalues --  -19.18004 -14.52082 -14.50591 -14.50418 -14.44803
 Alpha  occ. eigenvalues --  -14.44698 -14.44501 -14.43850 -14.42236 -10.47662
 Alpha  occ. eigenvalues --  -10.41218 -10.38373 -10.37849 -10.37011 -10.35200
 Alpha  occ. eigenvalues --  -10.35147 -10.33557 -10.32193 -10.31362 -10.30314
 Alpha  occ. eigenvalues --  -10.30254 -10.28658 -10.28574 -10.28468 -10.27675
 Alpha  occ. eigenvalues --  -10.26613 -10.26502 -10.26396 -10.26333 -10.26264
 Alpha  occ. eigenvalues --  -10.26155 -10.26100 -10.23681 -10.23593  -1.17963
 Alpha  occ. eigenvalues --   -1.15968  -1.12982  -1.12279  -1.11852  -1.09901
 Alpha  occ. eigenvalues --   -1.09074  -1.05172  -1.04165  -1.01878  -1.01036
 Alpha  occ. eigenvalues --   -1.00108  -0.99303  -0.99015  -0.93077  -0.90781
 Alpha  occ. eigenvalues --   -0.88370  -0.86965  -0.86345  -0.85042  -0.82473
 Alpha  occ. eigenvalues --   -0.81846  -0.80708  -0.79697  -0.77567  -0.75788
 Alpha  occ. eigenvalues --   -0.74660  -0.73922  -0.73341  -0.72580  -0.71879
 Alpha  occ. eigenvalues --   -0.69770  -0.68542  -0.68116  -0.67447  -0.67016
 Alpha  occ. eigenvalues --   -0.65879  -0.65522  -0.65267  -0.64758  -0.64208
 Alpha  occ. eigenvalues --   -0.63444  -0.63195  -0.62177  -0.61830  -0.60772
 Alpha  occ. eigenvalues --   -0.59250  -0.58653  -0.58236  -0.57714  -0.57172
 Alpha  occ. eigenvalues --   -0.56650  -0.56088  -0.55527  -0.55127  -0.54955
 Alpha  occ. eigenvalues --   -0.54550  -0.54099  -0.53383  -0.53180  -0.52842
 Alpha  occ. eigenvalues --   -0.52443  -0.52004  -0.51319  -0.50983  -0.50621
 Alpha  occ. eigenvalues --   -0.50267  -0.49969  -0.49544  -0.49368  -0.49120
 Alpha  occ. eigenvalues --   -0.48438  -0.47924  -0.47720  -0.47321  -0.47013
 Alpha  occ. eigenvalues --   -0.46504  -0.45979  -0.45738  -0.45579  -0.44939
 Alpha  occ. eigenvalues --   -0.44720  -0.44612  -0.44550  -0.43616  -0.43507
 Alpha  occ. eigenvalues --   -0.43246  -0.42763  -0.42085  -0.41794  -0.41470
 Alpha  occ. eigenvalues --   -0.39832  -0.39517  -0.39453  -0.39361  -0.39093
 Alpha  occ. eigenvalues --   -0.36972  -0.36320  -0.36132  -0.35424  -0.34974
 Alpha  occ. eigenvalues --   -0.34637  -0.34439  -0.33575  -0.32491  -0.32415
 Alpha  occ. eigenvalues --   -0.31714  -0.31005
 Alpha virt. eigenvalues --   -0.12486  -0.09764  -0.07932  -0.07755  -0.07664
 Alpha virt. eigenvalues --   -0.07226  -0.06611  -0.05864  -0.04355  -0.04184
 Alpha virt. eigenvalues --   -0.01503  -0.01428  -0.00415  -0.00087   0.00462
 Alpha virt. eigenvalues --    0.00983   0.01883   0.02602   0.03034   0.03260
 Alpha virt. eigenvalues --    0.03361   0.03608   0.04794   0.04859   0.05234
 Alpha virt. eigenvalues --    0.05536   0.05844   0.06004   0.06122   0.06715
 Alpha virt. eigenvalues --    0.07090   0.07262   0.07528   0.07902   0.08246
 Alpha virt. eigenvalues --    0.08517   0.08536   0.08892   0.09056   0.09749
 Alpha virt. eigenvalues --    0.09855   0.10105   0.10676   0.10888   0.11006
 Alpha virt. eigenvalues --    0.11656   0.11915   0.12325   0.12416   0.12651
 Alpha virt. eigenvalues --    0.12914   0.12985   0.13096   0.13702   0.14156
 Alpha virt. eigenvalues --    0.14493   0.15071   0.15571   0.15781   0.16182
 Alpha virt. eigenvalues --    0.16779   0.17056   0.17802   0.18210   0.18673
 Alpha virt. eigenvalues --    0.19468   0.19759   0.20297   0.20483   0.21856
 Alpha virt. eigenvalues --    0.23148   0.23380   0.24522   0.24666   0.24887
 Alpha virt. eigenvalues --    0.25405   0.25800   0.26906   0.26975   0.27570
 Alpha virt. eigenvalues --    0.28410   0.29411   0.30242   0.30441   0.32696
 Alpha virt. eigenvalues --    0.33798   0.35402   0.37099   0.38043   0.38843
 Alpha virt. eigenvalues --    0.39799   0.41142   0.41580   0.42236   0.42623
 Alpha virt. eigenvalues --    0.42694   0.43335   0.44392   0.44571   0.44698
 Alpha virt. eigenvalues --    0.45318   0.45679   0.46184   0.46572   0.46808
 Alpha virt. eigenvalues --    0.47224   0.47712   0.47747   0.48338   0.48906
 Alpha virt. eigenvalues --    0.49128   0.49777   0.49869   0.50788   0.51114
 Alpha virt. eigenvalues --    0.51694   0.51956   0.52223   0.52341   0.52644
 Alpha virt. eigenvalues --    0.52736   0.53368   0.53792   0.54178   0.54593
 Alpha virt. eigenvalues --    0.54855   0.55121   0.55280   0.55398   0.55840
 Alpha virt. eigenvalues --    0.56710   0.56731   0.56991   0.57491   0.58031
 Alpha virt. eigenvalues --    0.58154   0.58986   0.59213   0.59380   0.60605
 Alpha virt. eigenvalues --    0.61166   0.61944   0.62271   0.62635   0.63097
 Alpha virt. eigenvalues --    0.63385   0.64228   0.64487   0.64794   0.64954
 Alpha virt. eigenvalues --    0.65382   0.66197   0.66332   0.67090   0.67479
 Alpha virt. eigenvalues --    0.68142   0.68655   0.69679   0.70278   0.70790
 Alpha virt. eigenvalues --    0.71409   0.72194   0.72765   0.73188   0.73512
 Alpha virt. eigenvalues --    0.74000   0.74610   0.74817   0.74894   0.75605
 Alpha virt. eigenvalues --    0.75828   0.76279   0.76674   0.76957   0.77096
 Alpha virt. eigenvalues --    0.77488   0.77576   0.77782   0.78319   0.78583
 Alpha virt. eigenvalues --    0.78880   0.79361   0.79439   0.80133   0.80426
 Alpha virt. eigenvalues --    0.80565   0.80956   0.81301   0.82188   0.82314
 Alpha virt. eigenvalues --    0.82678   0.82971   0.84045   0.84157   0.84356
 Alpha virt. eigenvalues --    0.84644   0.84834   0.85188   0.85438   0.85475
 Alpha virt. eigenvalues --    0.86006   0.86475   0.87023   0.87084   0.87297
 Alpha virt. eigenvalues --    0.87481   0.88370   0.88437   0.89322   0.89805
 Alpha virt. eigenvalues --    0.89990   0.90559   0.91234   0.91815   0.92259
 Alpha virt. eigenvalues --    0.92671   0.92902   0.94077   0.94278   0.94807
 Alpha virt. eigenvalues --    0.95562   0.96780   0.96889   0.97600   0.97919
 Alpha virt. eigenvalues --    0.98642   1.00159   1.00661   1.01426   1.02009
 Alpha virt. eigenvalues --    1.03611   1.04255   1.04658   1.04863   1.05260
 Alpha virt. eigenvalues --    1.05816   1.05956   1.06591   1.08084   1.08468
 Alpha virt. eigenvalues --    1.09827   1.10098   1.10550   1.11962   1.12672
 Alpha virt. eigenvalues --    1.13455   1.13861   1.14305   1.14751   1.15480
 Alpha virt. eigenvalues --    1.16755   1.18090   1.18691   1.18986   1.20188
 Alpha virt. eigenvalues --    1.20984   1.21554   1.22424   1.24306   1.24527
 Alpha virt. eigenvalues --    1.25000   1.25843   1.26900   1.28662   1.30235
 Alpha virt. eigenvalues --    1.31260   1.31695   1.32329   1.33432   1.33857
 Alpha virt. eigenvalues --    1.34639   1.35427   1.35940   1.36449   1.37987
 Alpha virt. eigenvalues --    1.38086   1.38647   1.40390   1.40470   1.40796
 Alpha virt. eigenvalues --    1.41018   1.41413   1.42029   1.42778   1.42965
 Alpha virt. eigenvalues --    1.43867   1.44253   1.45284   1.46573   1.47791
 Alpha virt. eigenvalues --    1.48949   1.49285   1.50509   1.51010   1.51807
 Alpha virt. eigenvalues --    1.53767   1.54604   1.55876   1.56854   1.57303
 Alpha virt. eigenvalues --    1.58027   1.59202   1.60058   1.61489   1.62179
 Alpha virt. eigenvalues --    1.62395   1.62742   1.64034   1.64472   1.64962
 Alpha virt. eigenvalues --    1.66013   1.66218   1.67989   1.68305   1.68912
 Alpha virt. eigenvalues --    1.69267   1.70278   1.71417   1.72347   1.72451
 Alpha virt. eigenvalues --    1.72638   1.73406   1.74008   1.74311   1.75006
 Alpha virt. eigenvalues --    1.75258   1.75989   1.76160   1.76418   1.76704
 Alpha virt. eigenvalues --    1.77657   1.78158   1.78374   1.79056   1.79645
 Alpha virt. eigenvalues --    1.80518   1.81024   1.81511   1.82440   1.83406
 Alpha virt. eigenvalues --    1.83586   1.83763   1.85016   1.85207   1.86252
 Alpha virt. eigenvalues --    1.86446   1.86797   1.87609   1.88091   1.88517
 Alpha virt. eigenvalues --    1.89074   1.89737   1.90217   1.90606   1.91293
 Alpha virt. eigenvalues --    1.92190   1.92882   1.93145   1.93839   1.94167
 Alpha virt. eigenvalues --    1.94804   1.94905   1.95417   1.96481   1.97051
 Alpha virt. eigenvalues --    1.97822   1.98262   1.98605   1.99239   2.00027
 Alpha virt. eigenvalues --    2.00535   2.01557   2.01998   2.03078   2.04007
 Alpha virt. eigenvalues --    2.04492   2.05050   2.06166   2.06485   2.06928
 Alpha virt. eigenvalues --    2.07549   2.07909   2.08756   2.09158   2.09751
 Alpha virt. eigenvalues --    2.11732   2.11905   2.13350   2.13651   2.14271
 Alpha virt. eigenvalues --    2.14834   2.15077   2.16917   2.17321   2.17705
 Alpha virt. eigenvalues --    2.18785   2.19103   2.20358   2.20958   2.22028
 Alpha virt. eigenvalues --    2.23480   2.23724   2.24562   2.25037   2.26371
 Alpha virt. eigenvalues --    2.26781   2.27905   2.28692   2.29724   2.30601
 Alpha virt. eigenvalues --    2.31458   2.32028   2.33520   2.35079   2.35621
 Alpha virt. eigenvalues --    2.36524   2.37758   2.38034   2.39360   2.40258
 Alpha virt. eigenvalues --    2.40688   2.41858   2.42696   2.43056   2.43997
 Alpha virt. eigenvalues --    2.44326   2.45434   2.45512   2.46346   2.46549
 Alpha virt. eigenvalues --    2.48722   2.49586   2.49862   2.50858   2.50939
 Alpha virt. eigenvalues --    2.52713   2.53144   2.53474   2.54046   2.55352
 Alpha virt. eigenvalues --    2.56074   2.57413   2.58733   2.59158   2.59855
 Alpha virt. eigenvalues --    2.60319   2.61242   2.61740   2.63267   2.65069
 Alpha virt. eigenvalues --    2.65958   2.66392   2.67003   2.67170   2.68703
 Alpha virt. eigenvalues --    2.69467   2.70094   2.71857   2.73521   2.76703
 Alpha virt. eigenvalues --    2.78162   2.80456   2.81869   2.83938   2.86880
 Alpha virt. eigenvalues --    2.87400   2.89614   2.89826   2.92081   2.94093
 Alpha virt. eigenvalues --    2.95242   2.95883   2.96823   2.97253   2.97522
 Alpha virt. eigenvalues --    2.99665   3.05034   3.06363   3.11328   3.12303
 Alpha virt. eigenvalues --    3.33476   3.67311   3.72314   3.75758   3.83041
 Alpha virt. eigenvalues --    3.86469   3.92214   3.95004   3.98917   3.99839
 Alpha virt. eigenvalues --    4.01849   4.03494   4.04744   4.05965   4.07742
 Alpha virt. eigenvalues --    4.09812   4.11031   4.12134   4.14305   4.15283
 Alpha virt. eigenvalues --    4.18910   4.20934   4.23431   4.25986   4.26282
 Alpha virt. eigenvalues --    4.28248   4.28854   4.32872   4.34854   4.38115
 Alpha virt. eigenvalues --    4.39966   4.44395   4.46739   4.46839   4.51285
 Alpha virt. eigenvalues --    4.55863   4.61012   4.63400   4.65029   4.69360
          Condensed to atoms (all electrons):
 Mulliken charges:
               1
     1  N   -0.808898
     2  C   -0.052399
     3  C    0.627978
     4  O   -0.510113
     5  C   -0.395392
     6  C    0.154437
     7  C   -0.178693
     8  C   -0.197997
     9  C   -0.128091
    10  C   -0.127517
    11  C   -0.128020
    12  H    0.348949
    13  H    0.184292
    14  H    0.162945
    15  H    0.154979
    16  H    0.134232
    17  H    0.132707
    18  H    0.148781
    19  H    0.146292
    20  H    0.148617
    21  H    0.376080
    22  N   -0.662372
    23  C   -0.017392
    24  C    0.610500
    25  O   -0.507121
    26  C   -0.303438
    27  C   -0.080959
    28  C   -0.442818
    29  C   -0.450439
    30  H    0.349748
    31  H    0.194686
    32  H    0.139176
    33  H    0.176805
    34  H    0.108076
    35  H    0.154313
    36  H    0.154758
    37  H    0.144365
    38  H    0.157545
    39  H    0.146137
    40  H    0.155227
    41  N   -0.607477
    42  C   -0.058671
    43  C    0.636797
    44  O   -0.570451
    45  C   -0.384425
    46  C    0.623586
    47  N   -0.739077
    48  O   -0.534792
    49  H    0.340405
    50  H    0.211161
    51  H    0.196940
    52  H    0.186146
    53  H    0.358023
    54  H    0.353832
    55  N   -0.619900
    56  C    0.022908
    57  C    0.571749
    58  O   -0.521922
    59  C   -0.279230
    60  C   -0.288246
    61  C   -0.165231
    62  N   -0.596476
    63  C    0.779368
    64  N   -0.752276
    65  N   -0.776771
    66  O   -0.621456
    67  H    0.486419
    68  H    0.386454
    69  H    0.147555
    70  H    0.184655
    71  H    0.169847
    72  H    0.148117
    73  H    0.175503
    74  H    0.165606
    75  H    0.207489
    76  H    0.389457
    77  H    0.379966
    78  H    0.385281
    79  H    0.369937
    80  H    0.419238
 Sum of Mulliken charges =   1.00000
 Mulliken charges with hydrogens summed into heavy atoms:
               1
     1  N   -0.083869
     2  C    0.131893
     3  C    0.627978
     4  O   -0.510113
     5  C   -0.077468
     6  C    0.154437
     7  C   -0.044461
     8  C   -0.065290
     9  C    0.020691
    10  C    0.018775
    11  C    0.020598
    22  N   -0.312624
    23  C    0.177294
    24  C    0.610500
    25  O   -0.507121
    26  C    0.012542
    27  C    0.027117
    28  C    0.010617
    29  C    0.008470
    41  N   -0.267073
    42  C    0.152490
    43  C    0.636797
    44  O   -0.570451
    45  C   -0.001339
    46  C    0.623586
    47  N   -0.027223
    48  O   -0.534792
    55  N   -0.233446
    56  C    0.170463
    57  C    0.571749
    58  O   -0.521922
    59  C    0.075272
    60  C    0.035374
    61  C    0.207863
    62  N   -0.207020
    63  C    0.779368
    64  N    0.012971
    65  N    0.012404
    66  O   -0.135037
 Electronic spatial extent (au):  <R**2>=         224870.7687
 Charge=              1.0000 electrons
 Dipole moment (field-independent basis, Debye):
    X=            -11.7416    Y=             56.3741    Z=            -48.7310  Tot=             75.4361
 Quadrupole moment (field-independent basis, Debye-Ang):
   XX=           -189.4324   YY=            504.7657   ZZ=            373.4896
   XY=           -128.5670   XZ=            154.5483   YZ=           -573.1932
 Traceless Quadrupole moment (field-independent basis, Debye-Ang):
   XX=           -419.0401   YY=            275.1581   ZZ=            143.8820
   XY=           -128.5670   XZ=            154.5483   YZ=           -573.1932
 Octapole moment (field-independent basis, Debye-Ang**2):
  XXX=           1602.1878  YYY=           2599.0125  ZZZ=          -3005.1907  XYY=           -910.0872
  XXY=          -2271.4822  XXZ=            954.1780  XZZ=          -1624.4679  YZZ=           4465.8004
  YYZ=          -5579.0810  XYZ=           1758.4166
 Hexadecapole moment (field-independent basis, Debye-Ang**3):
 XXXX=         -11935.4170 YYYY=         -30304.5306 ZZZZ=          20153.6620 XXXY=          20521.2532
 XXXZ=          -8753.9506 YYYX=           2639.5876 YYYZ=         -39596.2431 ZZZX=          18819.7068
 ZZZY=         -36127.5989 XXYY=         -31204.2571 XXZZ=          -6089.8215 YYZZ=          40197.9156
 XXYZ=          11954.2879 YYXZ=          16500.0777 ZZXY=         -18122.2580
 N-N= 4.816922344212D+03 E-N=-1.395514013011D+04  KE= 1.849256718708D+03
 Unable to Open any file for archive entry.
 1\1\GINC-QML-002\SP\RB3LYP\6-31G(d)\C25H41N8O6(1+)\KENGMITH\11-Jun-202
 2\0\\# B3LYP/6-31G* empiricaldispersion=gd3 guess=read geom=check nosy
 mm integral(ultrafinegrid)\\Candidate Structure: Conf:153 Charge calc 
 in gas phase\\1,1\N,0,-1.8944350711,9.6411403647,-7.5187531687\C,0,-2.
 380260302,9.15136322,-6.2110634756\C,0,-3.3520561784,10.2151499476,-5.
 656002947\O,0,-4.2961441144,10.5957565377,-6.335307212\C,0,-1.23017230
 15,8.7117872421,-5.2753193359\C,0,-0.3877012525,7.6172059503,-5.893709
 7235\C,0,-0.8227918896,6.2850342907,-5.857426844\C,0,0.8055391219,7.91
 79958823,-6.5641267909\C,0,-0.0816920433,5.2768541483,-6.4732982054\C,
 0,1.5493147035,6.9105156596,-7.1830133066\C,0,1.1067097797,5.587806120
 5,-7.1391802139\H,0,-1.2976778315,8.9366568373,-7.9535854029\H,0,-3.00
 78397518,8.2768584535,-6.4192019301\H,0,-1.6617434888,8.3522623383,-4.
 3320727649\H,0,-0.6018453523,9.5824407099,-5.0441490163\H,0,-1.7442584
 662,6.0358651843,-5.3350352294\H,0,1.1622495899,8.9456026147,-6.590252
 3717\H,0,-0.4276819903,4.2480485974,-6.4279784854\H,0,2.4768323381,7.1
 594437793,-7.6909814658\H,0,1.6869984199,4.8020828761,-7.6142346241\H,
 0,-1.3171415466,10.4756871597,-7.3865604913\N,0,-3.1093000028,10.71285
 70251,-4.407919825\C,0,-4.0568289638,11.6331629407,-3.7765829103\C,0,-
 4.1767752558,12.9652553814,-4.5386830994\O,0,-5.2171653769,13.60226038
 4,-4.522083592\C,0,-3.6742540876,11.8939055429,-2.311519089\C,0,-3.637
 0327164,10.6526078126,-1.3965861938\C,0,-3.2480396802,11.0772020748,0.
 0270792324\C,0,-4.9673701254,9.8874448188,-1.3980910547\H,0,-2.3662322
 722,10.3305022016,-3.842478433\H,0,-5.0603410495,11.2033730228,-3.8370
 031759\H,0,-2.6988067022,12.4004242077,-2.2845808507\H,0,-4.4076901671
 ,12.6081104875,-1.918144925\H,0,-2.8528641669,9.9672705222,-1.75882056
 86\H,0,-4.0078379754,11.7447728905,0.4520987884\H,0,-3.1614735441,10.2
 070221421,0.6868032804\H,0,-2.2892681665,11.6089636447,0.0410336043\H,
 0,-5.7925071856,10.5440871874,-1.0953141346\H,0,-5.2085633387,9.478897
 4307,-2.3857058112\H,0,-4.9320124668,9.0490922599,-0.6938744868\N,0,-3
 .0307380413,13.3945760749,-5.1655221982\C,0,-3.1412302711,14.287112152
 8,-6.3062146178\C,0,-2.5904618577,13.509992984,-7.5197794299\O,0,-1.75
 35766543,12.6115622497,-7.3652578866\C,0,-2.4145041544,15.625690584,-6
 .0762612213\C,0,-2.8661947934,16.7225186271,-7.0416622133\N,0,-2.40936
 82229,17.9660471421,-6.7548237615\O,0,-3.5854184182,16.5092421627,-8.0
 20454944\H,0,-2.2977253028,12.7016171729,-5.2742229619\H,0,-4.20395505
 88,14.4971357288,-6.4527885235\H,0,-2.6245419422,15.9421699068,-5.0480
 872069\H,0,-1.3264979149,15.498133002,-6.1506824613\H,0,-2.7273959855,
 18.7374550153,-7.3261406937\H,0,-1.9130729321,18.1757906915,-5.9011959
 739\N,0,-3.1127438169,13.8497449613,-8.7120710788\C,0,-2.818644454,13.
 1699289624,-9.9677831271\C,0,-2.3518504585,11.7339329888,-9.6729090035
 \O,0,-1.2564506024,11.2965670441,-10.0053473501\C,0,-1.8534554505,13.9
 522832022,-10.8794618298\C,0,-2.0967158012,13.7692723715,-12.391456575
 8\C,0,-1.7114057491,12.4169513345,-13.0141180119\N,0,-2.5028664975,11.
 2685481199,-12.5277926686\C,0,-3.8158917038,11.0916387744,-12.69463782
 92\N,0,-4.4302080867,11.5818521826,-13.7866806534\N,0,-4.518074797,10.
 4186145455,-11.7726180242\O,0,-3.3249278202,10.9856273452,-9.163238742
 7\H,0,-2.8614139978,10.2646340576,-8.4987185406\H,0,-3.6412919295,14.7
 228502223,-8.7333065066\H,0,-3.7882434307,13.0649363906,-10.4757834379
 \H,0,-0.8237759867,13.6888501263,-10.6160650072\H,0,-1.9841334356,15.0
 168181352,-10.6558059836\H,0,-3.1504592635,13.9817386524,-12.621425915
 6\H,0,-1.5123660358,14.5270756194,-12.9277040455\H,0,-1.7810860002,12.
 4695862952,-14.1064114723\H,0,-0.6750901876,12.1675381694,-12.77718375
 93\H,0,-2.0762230167,10.7801520326,-11.7443356374\H,0,-5.4364361034,11
 .5822272521,-13.8665017897\H,0,-3.8988799421,11.847027952,-14.60298883
 37\H,0,-5.4598697464,10.1075175862,-11.9655094723\H,0,-4.1980719153,10
 .3981125603,-10.7972880193\\Version=ES64L-G16RevC.01\HF=-1866.733457\R
 MSD=6.649e-10\Dipole=0.2470095,0.4304707,-5.5209938\Quadrupole=-311.54
 60203,204.573298,106.9727222,-95.586379,114.9028554,-426.1550969\PG=C0
 1 [X(C25H41N8O6)]\\@
 The archive entry for this job was punched.


 IF YOU GIVE EVERYONE A PIECE OF YOUR MIND,
 PRETTY SOON IT WILL BE ALL GONE.
 Job cpu time:       0 days  0 hours  6 minutes 52.0 seconds.
 Elapsed time:       0 days  0 hours  1 minutes 43.8 seconds.
 File lengths (MBytes):  RWF=    344 Int=      0 D2E=      0 Chk=     48 Scr=     16
 Normal termination of Gaussian 16 at Sat Jun 11 21:08:07 2022.
