 Entering Gaussian System, Link 0=/opt/software/Gaussian/g16-AVX2-C.01/g16/g16
 Input=charge-conf-684.com
 Output=charge-conf-684.log
 Initial command:
 /opt/software/Gaussian/g16-AVX2-C.01/g16/l1.exe "/mnt/gs18/scratch/users/kengmith/Gau-21606.inp" -scrdir="/mnt/gs18/scratch/users/kengmith/"
 Entering Link 1 = /opt/software/Gaussian/g16-AVX2-C.01/g16/l1.exe PID=     21616.
  
 Copyright (c) 1988-2019, Gaussian, Inc.  All Rights Reserved.
  
 This is part of the Gaussian(R) 16 program.  It is based on
 the Gaussian(R) 09 system (copyright 2009, Gaussian, Inc.),
 the Gaussian(R) 03 system (copyright 2003, Gaussian, Inc.),
 the Gaussian(R) 98 system (copyright 1998, Gaussian, Inc.),
 the Gaussian(R) 94 system (copyright 1995, Gaussian, Inc.),
 the Gaussian 92(TM) system (copyright 1992, Gaussian, Inc.),
 the Gaussian 90(TM) system (copyright 1990, Gaussian, Inc.),
 the Gaussian 88(TM) system (copyright 1988, Gaussian, Inc.),
 the Gaussian 86(TM) system (copyright 1986, Carnegie Mellon
 University), and the Gaussian 82(TM) system (copyright 1983,
 Carnegie Mellon University). Gaussian is a federally registered
 trademark of Gaussian, Inc.
  
 This software contains proprietary and confidential information,
 including trade secrets, belonging to Gaussian, Inc.
  
 This software is provided under written license and may be
 used, copied, transmitted, or stored only in accord with that
 written license.
  
 The following legend is applicable only to US Government
 contracts under FAR:
  
                    RESTRICTED RIGHTS LEGEND
  
 Use, reproduction and disclosure by the US Government is
 subject to restrictions as set forth in subparagraphs (a)
 and (c) of the Commercial Computer Software - Restricted
 Rights clause in FAR 52.227-19.
  
 Gaussian, Inc.
 340 Quinnipiac St., Bldg. 40, Wallingford CT 06492
  
  
 ---------------------------------------------------------------
 Warning -- This program may not be used in any manner that
 competes with the business of Gaussian, Inc. or will provide
 assistance to any competitor of Gaussian, Inc.  The licensee
 of this program is prohibited from giving any competitor of
 Gaussian, Inc. access to this program.  By using this program,
 the user acknowledges that Gaussian, Inc. is engaged in the
 business of creating and licensing software in the field of
 computational chemistry and represents and warrants to the
 licensee that it is not a competitor of Gaussian, Inc. and that
 it will not use this program in any manner prohibited above.
 ---------------------------------------------------------------
  

 Cite this work as:
 Gaussian 16, Revision C.01,
 M. J. Frisch, G. W. Trucks, H. B. Schlegel, G. E. Scuseria, 
 M. A. Robb, J. R. Cheeseman, G. Scalmani, V. Barone, 
 G. A. Petersson, H. Nakatsuji, X. Li, M. Caricato, A. V. Marenich, 
 J. Bloino, B. G. Janesko, R. Gomperts, B. Mennucci, H. P. Hratchian, 
 J. V. Ortiz, A. F. Izmaylov, J. L. Sonnenberg, D. Williams-Young, 
 F. Ding, F. Lipparini, F. Egidi, J. Goings, B. Peng, A. Petrone, 
 T. Henderson, D. Ranasinghe, V. G. Zakrzewski, J. Gao, N. Rega, 
 G. Zheng, W. Liang, M. Hada, M. Ehara, K. Toyota, R. Fukuda, 
 J. Hasegawa, M. Ishida, T. Nakajima, Y. Honda, O. Kitao, H. Nakai, 
 T. Vreven, K. Throssell, J. A. Montgomery, Jr., J. E. Peralta, 
 F. Ogliaro, M. J. Bearpark, J. J. Heyd, E. N. Brothers, K. N. Kudin, 
 V. N. Staroverov, T. A. Keith, R. Kobayashi, J. Normand, 
 K. Raghavachari, A. P. Rendell, J. C. Burant, S. S. Iyengar, 
 J. Tomasi, M. Cossi, J. M. Millam, M. Klene, C. Adamo, R. Cammi, 
 J. W. Ochterski, R. L. Martin, K. Morokuma, O. Farkas, 
 J. B. Foresman, and D. J. Fox, Gaussian, Inc., Wallingford CT, 2019.
 
 ******************************************
 Gaussian 16:  ES64L-G16RevC.01  3-Jul-2019
                11-Jun-2022 
 ******************************************
 %mem=8gb
 %nproc=4
 Will use up to    4 processors via shared memory.
 %chk=conf-684.chk
 ----------------------------------------------------------------------
 # B3LYP/6-31G* empiricaldispersion=gd3 guess=read geom=check nosymm in
 tegral(ultrafinegrid)
 ----------------------------------------------------------------------
 1/29=2,38=1,172=1/1;
 2/12=2,15=1,40=1/2;
 3/5=1,6=6,7=1,11=2,14=-4,25=1,30=1,74=-5,75=-5,116=-2,124=31/1,2,3;
 4/5=1/1;
 5/5=2,38=6/2;
 6/7=2,8=2,9=2,10=2,28=1/1;
 99/5=1,9=1/99;
 ------------------------------------------------------
 Candidate Structure: Conf:684 Charge calc in gas phase
 ------------------------------------------------------
 Structure from the checkpoint file:  "conf-684.chk"
 Charge =  1 Multiplicity = 1
 Redundant internal coordinates found in file.  (old form).
 N,0,-1.6350673619,12.5534683142,-8.3687430363
 C,0,-1.6302033082,11.6935993947,-9.568410755
 C,0,-2.9088411205,10.8307199726,-9.511994807
 O,0,-4.004002055,11.3661319469,-9.4106485548
 C,0,-0.2960438211,10.9328234233,-9.7594475966
 C,0,0.8820489586,11.8782561339,-9.8490260453
 C,0,1.1443110346,12.5727583569,-11.0384561626
 C,0,1.6951174905,12.1242038359,-8.7343518311
 C,0,2.1955308461,13.4859838298,-11.1142454873
 C,0,2.7500126159,13.0373730055,-8.8073188798
 C,0,3.002118028,13.7210087504,-9.9975277011
 H,0,-0.8127986214,13.1564010684,-8.3780624546
 H,0,-1.7741590228,12.3568832339,-10.4292290824
 H,0,-0.3579444726,10.3340870778,-10.6776143594
 H,0,-0.1514176548,10.2406339364,-8.9191511104
 H,0,0.5246173362,12.3893178554,-11.9136120342
 H,0,1.5121546589,11.582001201,-7.8087991416
 H,0,2.3906920277,14.0079470322,-12.0467417956
 H,0,3.3823500103,13.2019982545,-7.9387478072
 H,0,3.827746807,14.4242393998,-10.0601495102
 H,0,-1.5708536426,11.9783859975,-7.524874399
 N,0,-2.7623669776,9.4723330991,-9.5400802262
 C,0,-3.9315573862,8.5935345413,-9.6099016489
 C,0,-4.8610767189,8.754059161,-8.3949942077
 O,0,-6.0559864556,8.5174219213,-8.4893401091
 C,0,-3.5056773544,7.125621594,-9.7646195361
 C,0,-2.6746918075,6.795244642,-11.0216732314
 C,0,-2.3423600548,5.2959815023,-11.036508285
 C,0,-3.3842665581,7.2142398656,-12.3163445189
 H,0,-1.8543437469,9.0633887457,-9.7016038995
 H,0,-4.5553129817,8.8969055985,-10.4559316859
 H,0,-2.9501929036,6.8208957558,-8.8660829193
 H,0,-4.4283115797,6.5330600585,-9.7787129802
 H,0,-1.7171738225,7.3402113323,-10.9694852708
 H,0,-3.2592003452,4.6984391224,-11.1132975286
 H,0,-1.7061892411,5.0427022285,-11.89156943
 H,0,-1.8188612884,4.990415202,-10.1228139098
 H,0,-4.369675526,6.7376348825,-12.38979383
 H,0,-3.5310093535,8.2983720453,-12.3755103511
 H,0,-2.8006895625,6.9118392016,-13.1927220665
 N,0,-4.2636890689,9.1319847393,-7.2220584053
 C,0,-5.0597770098,9.8461257243,-6.2397091355
 C,0,-4.2215165097,11.062418625,-5.8027627245
 O,0,-2.9956900617,11.1023034141,-5.9859219325
 C,0,-5.5051175001,8.9317507495,-5.078696047
 C,0,-6.7271631196,9.4596267416,-4.3288479496
 N,0,-7.3766328125,8.5463510316,-3.5658968303
 O,0,-7.1008872239,10.6339143707,-4.3826402569
 H,0,-3.301478398,9.4479637816,-7.2670339272
 H,0,-5.9640573236,10.208098343,-6.739619291
 H,0,-5.7429857169,7.9574409612,-5.5185490812
 H,0,-4.6848098998,8.7689517725,-4.3674422876
 H,0,-8.2285385849,8.8338237875,-3.1025008183
 H,0,-7.1766464691,7.5585998468,-3.6231259978
 N,0,-4.9165459468,12.085570855,-5.2753662924
 C,0,-4.3042928152,13.3671784573,-4.9583148237
 C,0,-3.2684794065,13.7000632725,-6.0535262787
 O,0,-2.100643692,14.0335989442,-5.7984437555
 C,0,-3.7349850436,13.4055693915,-3.526439212
 C,0,-3.5036008855,14.8360422087,-2.9670288925
 C,0,-2.1015014336,15.0656485453,-2.381343174
 N,0,-1.1086270509,14.9697700255,-3.4649491509
 C,0,-0.365065334,15.9703931267,-3.9327668027
 N,0,0.1201089159,16.9241939059,-3.1155175073
 N,0,-0.0949628055,16.0171708423,-5.2467021313
 O,0,-3.7492366707,13.6047023037,-7.2571030995
 H,0,-2.9713424316,13.3465345622,-7.9079081772
 H,0,-5.8955811862,11.9048315476,-5.0415556426
 H,0,-5.1005593739,14.1163343987,-5.0546322812
 H,0,-2.8180989957,12.8042615952,-3.5136346743
 H,0,-4.4474015376,12.877279436,-2.8862785539
 H,0,-3.665671452,15.5867606702,-3.7512790788
 H,0,-4.2356705012,15.0506238541,-2.1811561009
 H,0,-2.0390881979,16.0549187827,-1.9179495592
 H,0,-1.8688676412,14.3178874009,-1.6157141029
 H,0,-1.3931306469,14.3159222835,-4.2087772039
 H,0,0.5383110515,17.7665498487,-3.4818053591
 H,0,0.1504531693,16.7800926753,-2.1172270919
 H,0,0.6936603144,16.533057098,-5.6083585408
 H,0,-0.6305098128,15.4168808392,-5.8726609018
 Recover connectivity data from disk.
                           ----------------------------
                           !    Current Parameters    !
                           ! (Angstroms and Degrees)  !
 --------------------------                            --------------------------
 ! Name  Definition              Value                                          !
 --------------------------------------------------------------------------------
 ! R1    R(1,2)                  1.476                                          !
 ! R2    R(1,12)                 1.0197                                         !
 ! R3    R(1,21)                 1.0232                                         !
 ! R4    R(2,3)                  1.5436                                         !
 ! R5    R(2,5)                  1.5477                                         !
 ! R6    R(2,13)                 1.0962                                         !
 ! R7    R(3,4)                  1.2232                                         !
 ! R8    R(3,22)                 1.3665                                         !
 ! R9    R(5,6)                  1.5132                                         !
 ! R10   R(5,14)                 1.0979                                         !
 ! R11   R(5,15)                 1.0982                                         !
 ! R12   R(6,7)                  1.4021                                         !
 ! R13   R(6,8)                  1.4015                                         !
 ! R14   R(7,9)                  1.3946                                         !
 ! R15   R(7,16)                 1.0879                                         !
 ! R16   R(8,10)                 1.3971                                         !
 ! R17   R(8,17)                 1.0882                                         !
 ! R18   R(9,11)                 1.3975                                         !
 ! R19   R(9,18)                 1.0863                                         !
 ! R20   R(10,11)                1.3955                                         !
 ! R21   R(10,19)                1.0869                                         !
 ! R22   R(11,20)                1.0863                                         !
 ! R23   R(22,23)                1.4643                                         !
 ! R24   R(22,30)                1.0089                                         !
 ! R25   R(23,24)                1.5381                                         !
 ! R26   R(23,26)                1.5363                                         !
 ! R27   R(23,31)                1.094                                          !
 ! R28   R(24,25)                1.2218                                         !
 ! R29   R(24,41)                1.3695                                         !
 ! R30   R(26,27)                1.5427                                         !
 ! R31   R(26,32)                1.0994                                         !
 ! R32   R(26,33)                1.0966                                         !
 ! R33   R(27,28)                1.5357                                         !
 ! R34   R(27,29)                1.5347                                         !
 ! R35   R(27,34)                1.103                                          !
 ! R36   R(28,35)                1.0971                                         !
 ! R37   R(28,36)                1.0954                                         !
 ! R38   R(28,37)                1.0965                                         !
 ! R39   R(29,38)                1.0971                                         !
 ! R40   R(29,39)                1.0956                                         !
 ! R41   R(29,40)                1.0955                                         !
 ! R42   R(41,42)                1.4522                                         !
 ! R43   R(41,49)                1.0138                                         !
 ! R44   R(42,43)                1.5404                                         !
 ! R45   R(42,45)                1.5435                                         !
 ! R46   R(42,50)                1.0948                                         !
 ! R47   R(43,44)                1.2401                                         !
 ! R48   R(43,55)                1.3446                                         !
 ! R49   R(45,46)                1.5278                                         !
 ! R50   R(45,51)                1.0951                                         !
 ! R51   R(45,52)                1.0979                                         !
 ! R52   R(46,47)                1.3557                                         !
 ! R53   R(46,48)                1.2335                                         !
 ! R54   R(47,53)                1.0115                                         !
 ! R55   R(47,54)                1.0094                                         !
 ! R56   R(55,56)                1.4553                                         !
 ! R57   R(55,68)                1.0227                                         !
 ! R58   R(56,57)                1.5438                                         !
 ! R59   R(56,59)                1.5414                                         !
 ! R60   R(56,69)                1.0975                                         !
 ! R61   R(57,58)                1.241                                          !
 ! R62   R(57,66)                1.2995                                         !
 ! R63   R(59,60)                1.5533                                         !
 ! R64   R(59,70)                1.0965                                         !
 ! R65   R(59,71)                1.0938                                         !
 ! R66   R(60,61)                1.5368                                         !
 ! R67   R(60,72)                1.0977                                         !
 ! R68   R(60,73)                1.0952                                         !
 ! R69   R(61,62)                1.4728                                         !
 ! R70   R(61,74)                1.0942                                         !
 ! R71   R(61,75)                1.0952                                         !
 ! R72   R(62,63)                1.3315                                         !
 ! R73   R(62,76)                1.0304                                         !
 ! R74   R(63,64)                1.3465                                         !
 ! R75   R(63,65)                1.3422                                         !
 ! R76   R(64,77)                1.0093                                         !
 ! R77   R(64,78)                1.0091                                         !
 ! R78   R(65,79)                1.0094                                         !
 ! R79   R(65,80)                1.0193                                         !
 ! R80   R(66,67)                1.0466                                         !
 ! A1    A(2,1,12)             109.535                                          !
 ! A2    A(2,1,21)             110.0409                                         !
 ! A3    A(12,1,21)            106.8138                                         !
 ! A4    A(1,2,3)              107.051                                          !
 ! A5    A(1,2,5)              112.9255                                         !
 ! A6    A(1,2,13)             106.5782                                         !
 ! A7    A(3,2,5)              116.3469                                         !
 ! A8    A(3,2,13)             104.9609                                         !
 ! A9    A(5,2,13)             108.2827                                         !
 ! A10   A(2,3,4)              119.9982                                         !
 ! A11   A(2,3,22)             117.7835                                         !
 ! A12   A(4,3,22)             122.1915                                         !
 ! A13   A(2,5,6)              111.7974                                         !
 ! A14   A(2,5,14)             108.8265                                         !
 ! A15   A(2,5,15)             109.2018                                         !
 ! A16   A(6,5,14)             109.5799                                         !
 ! A17   A(6,5,15)             109.6671                                         !
 ! A18   A(14,5,15)            107.6731                                         !
 ! A19   A(5,6,7)              120.353                                          !
 ! A20   A(5,6,8)              120.947                                          !
 ! A21   A(7,6,8)              118.6388                                         !
 ! A22   A(6,7,9)              120.7619                                         !
 ! A23   A(6,7,16)             119.4953                                         !
 ! A24   A(9,7,16)             119.7407                                         !
 ! A25   A(6,8,10)             120.7443                                         !
 ! A26   A(6,8,17)             119.4405                                         !
 ! A27   A(10,8,17)            119.8045                                         !
 ! A28   A(7,9,11)             120.1183                                         !
 ! A29   A(7,9,18)             119.7834                                         !
 ! A30   A(11,9,18)            120.0963                                         !
 ! A31   A(8,10,11)            120.0742                                         !
 ! A32   A(8,10,19)            119.7703                                         !
 ! A33   A(11,10,19)           120.149                                          !
 ! A34   A(9,11,10)            119.6618                                         !
 ! A35   A(9,11,20)            120.0976                                         !
 ! A36   A(10,11,20)           120.2371                                         !
 ! A37   A(3,22,23)            120.7946                                         !
 ! A38   A(3,22,30)            120.1779                                         !
 ! A39   A(23,22,30)           117.8879                                         !
 ! A40   A(22,23,24)           112.4722                                         !
 ! A41   A(22,23,26)           110.9102                                         !
 ! A42   A(22,23,31)           109.0079                                         !
 ! A43   A(24,23,26)           110.2918                                         !
 ! A44   A(24,23,31)           103.7289                                         !
 ! A45   A(26,23,31)           110.1903                                         !
 ! A46   A(23,24,25)           120.6528                                         !
 ! A47   A(23,24,41)           116.2121                                         !
 ! A48   A(25,24,41)           123.1077                                         !
 ! A49   A(23,26,27)           115.8504                                         !
 ! A50   A(23,26,32)           108.8195                                         !
 ! A51   A(23,26,33)           106.5213                                         !
 ! A52   A(27,26,32)           109.5382                                         !
 ! A53   A(27,26,33)           109.0872                                         !
 ! A54   A(32,26,33)           106.6077                                         !
 ! A55   A(26,27,28)           109.482                                          !
 ! A56   A(26,27,29)           112.3269                                         !
 ! A57   A(26,27,34)           108.8601                                         !
 ! A58   A(28,27,29)           111.0046                                         !
 ! A59   A(28,27,34)           107.1546                                         !
 ! A60   A(29,27,34)           107.8429                                         !
 ! A61   A(27,28,35)           110.5832                                         !
 ! A62   A(27,28,36)           111.0348                                         !
 ! A63   A(27,28,37)           111.5512                                         !
 ! A64   A(35,28,36)           107.7443                                         !
 ! A65   A(35,28,37)           107.7908                                         !
 ! A66   A(36,28,37)           107.9834                                         !
 ! A67   A(27,29,38)           110.6814                                         !
 ! A68   A(27,29,39)           112.1876                                         !
 ! A69   A(27,29,40)           110.6843                                         !
 ! A70   A(38,29,39)           107.8159                                         !
 ! A71   A(38,29,40)           107.7589                                         !
 ! A72   A(39,29,40)           107.5358                                         !
 ! A73   A(24,41,42)           118.4222                                         !
 ! A74   A(24,41,49)           117.5194                                         !
 ! A75   A(42,41,49)           113.3946                                         !
 ! A76   A(41,42,43)           106.3712                                         !
 ! A77   A(41,42,45)           112.0667                                         !
 ! A78   A(41,42,50)           107.8486                                         !
 ! A79   A(43,42,45)           114.2925                                         !
 ! A80   A(43,42,50)           108.5376                                         !
 ! A81   A(45,42,50)           107.5184                                         !
 ! A82   A(42,43,44)           121.4272                                         !
 ! A83   A(42,43,55)           115.5167                                         !
 ! A84   A(44,43,55)           122.9842                                         !
 ! A85   A(42,45,46)           113.2828                                         !
 ! A86   A(42,45,51)           106.7143                                         !
 ! A87   A(42,45,52)           111.0744                                         !
 ! A88   A(46,45,51)           109.3157                                         !
 ! A89   A(46,45,52)           109.3242                                         !
 ! A90   A(51,45,52)           106.8921                                         !
 ! A91   A(45,46,47)           115.2535                                         !
 ! A92   A(45,46,48)           123.3569                                         !
 ! A93   A(47,46,48)           121.3797                                         !
 ! A94   A(46,47,53)           118.0239                                         !
 ! A95   A(46,47,54)           122.1657                                         !
 ! A96   A(53,47,54)           118.0955                                         !
 ! A97   A(43,55,56)           122.5536                                         !
 ! A98   A(43,55,68)           116.7457                                         !
 ! A99   A(56,55,68)           120.5699                                         !
 ! A100  A(55,56,57)           108.5188                                         !
 ! A101  A(55,56,59)           112.3154                                         !
 ! A102  A(55,56,69)           106.0678                                         !
 ! A103  A(57,56,59)           113.9444                                         !
 ! A104  A(57,56,69)           106.1019                                         !
 ! A105  A(59,56,69)           109.4201                                         !
 ! A106  A(56,57,58)           122.924                                          !
 ! A107  A(56,57,66)           113.1419                                         !
 ! A108  A(58,57,66)           123.932                                          !
 ! A109  A(56,59,60)           114.3629                                         !
 ! A110  A(56,59,70)           107.8198                                         !
 ! A111  A(56,59,71)           106.9229                                         !
 ! A112  A(60,59,70)           112.1011                                         !
 ! A113  A(60,59,71)           109.3316                                         !
 ! A114  A(70,59,71)           105.838                                          !
 ! A115  A(59,60,61)           114.2527                                         !
 ! A116  A(59,60,72)           110.5199                                         !
 ! A117  A(59,60,73)           109.8327                                         !
 ! A118  A(61,60,72)           107.7475                                         !
 ! A119  A(61,60,73)           107.8846                                         !
 ! A120  A(72,60,73)           106.2582                                         !
 ! A121  A(60,61,62)           108.9615                                         !
 ! A122  A(60,61,74)           110.3971                                         !
 ! A123  A(60,61,75)           110.9909                                         !
 ! A124  A(62,61,74)           109.3894                                         !
 ! A125  A(62,61,75)           109.0684                                         !
 ! A126  A(74,61,75)           108.0058                                         !
 ! A127  A(61,62,63)           125.8753                                         !
 ! A128  A(61,62,76)           112.7237                                         !
 ! A129  A(63,62,76)           112.1738                                         !
 ! A130  A(62,63,64)           121.3519                                         !
 ! A131  A(62,63,65)           118.8486                                         !
 ! A132  A(64,63,65)           119.799                                          !
 ! A133  A(63,64,77)           121.3485                                         !
 ! A134  A(63,64,78)           120.6725                                         !
 ! A135  A(77,64,78)           117.7597                                         !
 ! A136  A(63,65,79)           121.7205                                         !
 ! A137  A(63,65,80)           118.3532                                         !
 ! A138  A(79,65,80)           119.4362                                         !
 ! A139  A(57,66,67)           108.6057                                         !
 ! D1    D(12,1,2,3)          -178.7981                                         !
 ! D2    D(12,1,2,5)            51.8754                                         !
 ! D3    D(12,1,2,13)          -66.8945                                         !
 ! D4    D(21,1,2,3)            64.0637                                         !
 ! D5    D(21,1,2,5)           -65.2628                                         !
 ! D6    D(21,1,2,13)          175.9673                                         !
 ! D7    D(1,2,3,4)             55.2551                                         !
 ! D8    D(1,2,3,22)          -122.9024                                         !
 ! D9    D(5,2,3,4)           -177.403                                          !
 ! D10   D(5,2,3,22)             4.4395                                         !
 ! D11   D(13,2,3,4)           -57.7535                                         !
 ! D12   D(13,2,3,22)          124.089                                          !
 ! D13   D(1,2,5,6)            -57.6218                                         !
 ! D14   D(1,2,5,14)          -178.7984                                         !
 ! D15   D(1,2,5,15)            63.9189                                         !
 ! D16   D(3,2,5,6)            177.9942                                         !
 ! D17   D(3,2,5,14)            56.8176                                         !
 ! D18   D(3,2,5,15)           -60.4651                                         !
 ! D19   D(13,2,5,6)            60.153                                          !
 ! D20   D(13,2,5,14)          -61.0236                                         !
 ! D21   D(13,2,5,15)         -178.3063                                         !
 ! D22   D(2,3,22,23)         -174.5307                                         !
 ! D23   D(2,3,22,30)           -6.9897                                         !
 ! D24   D(4,3,22,23)            7.3548                                         !
 ! D25   D(4,3,22,30)          174.8958                                         !
 ! D26   D(2,5,6,7)            -78.1036                                         !
 ! D27   D(2,5,6,8)             99.0115                                         !
 ! D28   D(14,5,6,7)            42.6355                                         !
 ! D29   D(14,5,6,8)          -140.2493                                         !
 ! D30   D(15,5,6,7)           160.6246                                         !
 ! D31   D(15,5,6,8)           -22.2603                                         !
 ! D32   D(5,6,7,9)            177.4328                                         !
 ! D33   D(5,6,7,16)            -3.0908                                         !
 ! D34   D(8,6,7,9)              0.2519                                         !
 ! D35   D(8,6,7,16)           179.7283                                         !
 ! D36   D(5,6,8,10)          -177.4863                                         !
 ! D37   D(5,6,8,17)             3.7046                                         !
 ! D38   D(7,6,8,10)            -0.3228                                         !
 ! D39   D(7,6,8,17)          -179.1318                                         !
 ! D40   D(6,7,9,11)            -0.0944                                         !
 ! D41   D(6,7,9,18)           179.3885                                         !
 ! D42   D(16,7,9,11)         -179.5695                                         !
 ! D43   D(16,7,9,18)           -0.0866                                         !
 ! D44   D(6,8,10,11)            0.2365                                         !
 ! D45   D(6,8,10,19)         -178.841                                          !
 ! D46   D(17,8,10,11)         179.0412                                         !
 ! D47   D(17,8,10,19)          -0.0362                                         !
 ! D48   D(7,9,11,10)            0.0023                                         !
 ! D49   D(7,9,11,20)          179.3191                                         !
 ! D50   D(18,9,11,10)        -179.4789                                         !
 ! D51   D(18,9,11,20)          -0.1622                                         !
 ! D52   D(8,10,11,9)           -0.0727                                         !
 ! D53   D(8,10,11,20)        -179.3884                                         !
 ! D54   D(19,10,11,9)         179.0013                                         !
 ! D55   D(19,10,11,20)         -0.3145                                         !
 ! D56   D(3,22,23,24)         -61.3618                                         !
 ! D57   D(3,22,23,26)         174.5962                                         !
 ! D58   D(3,22,23,31)          53.1031                                         !
 ! D59   D(30,22,23,24)        130.8195                                         !
 ! D60   D(30,22,23,26)          6.7775                                         !
 ! D61   D(30,22,23,31)       -114.7155                                         !
 ! D62   D(22,23,24,25)        152.6303                                         !
 ! D63   D(22,23,24,41)        -29.2133                                         !
 ! D64   D(26,23,24,25)        -82.9859                                         !
 ! D65   D(26,23,24,41)         95.1705                                         !
 ! D66   D(31,23,24,25)         34.9921                                         !
 ! D67   D(31,23,24,41)       -146.8515                                         !
 ! D68   D(22,23,26,27)        -60.1567                                         !
 ! D69   D(22,23,26,32)         63.7424                                         !
 ! D70   D(22,23,26,33)        178.3279                                         !
 ! D71   D(24,23,26,27)        174.5664                                         !
 ! D72   D(24,23,26,32)        -61.5345                                         !
 ! D73   D(24,23,26,33)         53.0511                                         !
 ! D74   D(31,23,26,27)         60.6396                                         !
 ! D75   D(31,23,26,32)       -175.4613                                         !
 ! D76   D(31,23,26,33)        -60.8757                                         !
 ! D77   D(23,24,41,42)        153.5969                                         !
 ! D78   D(23,24,41,49)         11.3137                                         !
 ! D79   D(25,24,41,42)        -28.2965                                         !
 ! D80   D(25,24,41,49)       -170.5797                                         !
 ! D81   D(23,26,27,28)       -179.45                                           !
 ! D82   D(23,26,27,29)        -55.6491                                         !
 ! D83   D(23,26,27,34)         63.7126                                         !
 ! D84   D(32,26,27,28)         57.0256                                         !
 ! D85   D(32,26,27,29)       -179.1735                                         !
 ! D86   D(32,26,27,34)        -59.8118                                         !
 ! D87   D(33,26,27,28)        -59.3158                                         !
 ! D88   D(33,26,27,29)         64.4851                                         !
 ! D89   D(33,26,27,34)       -176.1532                                         !
 ! D90   D(26,27,28,35)         63.5041                                         !
 ! D91   D(26,27,28,36)       -176.944                                          !
 ! D92   D(26,27,28,37)        -56.4448                                         !
 ! D93   D(29,27,28,35)        -61.0702                                         !
 ! D94   D(29,27,28,36)         58.4817                                         !
 ! D95   D(29,27,28,37)        178.9809                                         !
 ! D96   D(34,27,28,35)       -178.5878                                         !
 ! D97   D(34,27,28,36)        -59.0358                                         !
 ! D98   D(34,27,28,37)         61.4634                                         !
 ! D99   D(26,27,29,38)        -57.0736                                         !
 ! D100  D(26,27,29,39)         63.4003                                         !
 ! D101  D(26,27,29,40)       -176.4806                                         !
 ! D102  D(28,27,29,38)         65.8749                                         !
 ! D103  D(28,27,29,39)       -173.6512                                         !
 ! D104  D(28,27,29,40)        -53.5321                                         !
 ! D105  D(34,27,29,38)       -177.0278                                         !
 ! D106  D(34,27,29,39)        -56.554                                          !
 ! D107  D(34,27,29,40)         63.5652                                         !
 ! D108  D(24,41,42,43)       -131.9484                                         !
 ! D109  D(24,41,42,45)        102.4772                                         !
 ! D110  D(24,41,42,50)        -15.6715                                         !
 ! D111  D(49,41,42,43)         11.8139                                         !
 ! D112  D(49,41,42,45)       -113.7606                                         !
 ! D113  D(49,41,42,50)        128.0908                                         !
 ! D114  D(41,42,43,44)        -19.2411                                         !
 ! D115  D(41,42,43,55)        157.7636                                         !
 ! D116  D(45,42,43,44)        104.9666                                         !
 ! D117  D(45,42,43,55)        -78.0288                                         !
 ! D118  D(50,42,43,44)       -135.0547                                         !
 ! D119  D(50,42,43,55)         41.9499                                         !
 ! D120  D(41,42,45,46)       -158.4743                                         !
 ! D121  D(41,42,45,51)        -38.1297                                         !
 ! D122  D(41,42,45,52)         78.0286                                         !
 ! D123  D(43,42,45,46)         80.4175                                         !
 ! D124  D(43,42,45,51)       -159.2379                                         !
 ! D125  D(43,42,45,52)        -43.0796                                         !
 ! D126  D(50,42,45,46)        -40.1297                                         !
 ! D127  D(50,42,45,51)         80.2149                                         !
 ! D128  D(50,42,45,52)       -163.6268                                         !
 ! D129  D(42,43,55,56)       -172.5621                                         !
 ! D130  D(42,43,55,68)         11.5787                                         !
 ! D131  D(44,43,55,56)          4.3908                                         !
 ! D132  D(44,43,55,68)       -171.4684                                         !
 ! D133  D(42,45,46,47)        162.4196                                         !
 ! D134  D(42,45,46,48)        -18.7101                                         !
 ! D135  D(51,45,46,47)         43.5643                                         !
 ! D136  D(51,45,46,48)       -137.5653                                         !
 ! D137  D(52,45,46,47)        -73.1277                                         !
 ! D138  D(52,45,46,48)        105.7426                                         !
 ! D139  D(45,46,47,53)       -175.803                                          !
 ! D140  D(45,46,47,54)        -11.0166                                         !
 ! D141  D(48,46,47,53)          5.3022                                         !
 ! D142  D(48,46,47,54)        170.0886                                         !
 ! D143  D(43,55,56,57)         37.756                                          !
 ! D144  D(43,55,56,59)        -89.1242                                         !
 ! D145  D(43,55,56,69)        151.388                                          !
 ! D146  D(68,55,56,57)       -146.539                                          !
 ! D147  D(68,55,56,59)         86.5808                                         !
 ! D148  D(68,55,56,69)        -32.907                                          !
 ! D149  D(55,56,57,58)       -129.3554                                         !
 ! D150  D(55,56,57,66)         51.1571                                         !
 ! D151  D(59,56,57,58)         -3.4187                                         !
 ! D152  D(59,56,57,66)        177.0938                                         !
 ! D153  D(69,56,57,58)        117.0351                                         !
 ! D154  D(69,56,57,66)        -62.4524                                         !
 ! D155  D(55,56,59,60)       -160.7295                                         !
 ! D156  D(55,56,59,70)         73.8623                                         !
 ! D157  D(55,56,59,71)        -39.5566                                         !
 ! D158  D(57,56,59,60)         75.3583                                         !
 ! D159  D(57,56,59,70)        -50.0499                                         !
 ! D160  D(57,56,59,71)       -163.4688                                         !
 ! D161  D(69,56,59,60)        -43.2178                                         !
 ! D162  D(69,56,59,70)       -168.626                                          !
 ! D163  D(69,56,59,71)         77.9552                                         !
 ! D164  D(56,57,66,67)       -150.8757                                         !
 ! D165  D(58,57,66,67)         29.6428                                         !
 ! D166  D(56,59,60,61)       -129.2328                                         !
 ! D167  D(56,59,60,72)         -7.524                                          !
 ! D168  D(56,59,60,73)        109.3977                                         !
 ! D169  D(70,59,60,61)         -6.1076                                         !
 ! D170  D(70,59,60,72)        115.6011                                         !
 ! D171  D(70,59,60,73)       -127.4771                                         !
 ! D172  D(71,59,60,61)        110.9328                                         !
 ! D173  D(71,59,60,72)       -127.3584                                         !
 ! D174  D(71,59,60,73)        -10.4367                                         !
 ! D175  D(59,60,61,62)         65.4712                                         !
 ! D176  D(59,60,61,74)       -174.3784                                         !
 ! D177  D(59,60,61,75)        -54.6492                                         !
 ! D178  D(72,60,61,62)        -57.7496                                         !
 ! D179  D(72,60,61,74)         62.4008                                         !
 ! D180  D(72,60,61,75)       -177.8701                                         !
 ! D181  D(73,60,61,62)       -172.0903                                         !
 ! D182  D(73,60,61,74)        -51.9399                                         !
 ! D183  D(73,60,61,75)         67.7892                                         !
 ! D184  D(60,61,62,63)        112.8396                                         !
 ! D185  D(60,61,62,76)        -31.0474                                         !
 ! D186  D(74,61,62,63)         -7.9308                                         !
 ! D187  D(74,61,62,76)       -151.8179                                         !
 ! D188  D(75,61,62,63)       -125.8599                                         !
 ! D189  D(75,61,62,76)         90.253                                          !
 ! D190  D(61,62,63,64)         36.7208                                         !
 ! D191  D(61,62,63,65)       -143.5461                                         !
 ! D192  D(76,62,63,64)       -179.2269                                         !
 ! D193  D(76,62,63,65)          0.5061                                         !
 ! D194  D(62,63,64,77)       -168.7958                                         !
 ! D195  D(62,63,64,78)         16.705                                          !
 ! D196  D(65,63,64,77)         11.4736                                         !
 ! D197  D(65,63,64,78)       -163.0256                                         !
 ! D198  D(62,63,65,79)       -158.3632                                         !
 ! D199  D(62,63,65,80)         13.5572                                         !
 ! D200  D(64,63,65,79)         21.3741                                         !
 ! D201  D(64,63,65,80)       -166.7055                                         !
 --------------------------------------------------------------------------------
 Symmetry turned off by external request.
 Stoichiometry    C25H41N8O6(1+)
 Framework group  C1[X(C25H41N8O6)]
 Deg. of freedom   234
 Full point group                 C1      NOp   1
                          Input orientation:                          
 ---------------------------------------------------------------------
 Center     Atomic      Atomic             Coordinates (Angstroms)
 Number     Number       Type             X           Y           Z
 ---------------------------------------------------------------------
      1          7           0       -1.635067   12.553468   -8.368743
      2          6           0       -1.630203   11.693599   -9.568411
      3          6           0       -2.908841   10.830720   -9.511995
      4          8           0       -4.004002   11.366132   -9.410649
      5          6           0       -0.296044   10.932823   -9.759448
      6          6           0        0.882049   11.878256   -9.849026
      7          6           0        1.144311   12.572758  -11.038456
      8          6           0        1.695117   12.124204   -8.734352
      9          6           0        2.195531   13.485984  -11.114245
     10          6           0        2.750013   13.037373   -8.807319
     11          6           0        3.002118   13.721009   -9.997528
     12          1           0       -0.812799   13.156401   -8.378062
     13          1           0       -1.774159   12.356883  -10.429229
     14          1           0       -0.357944   10.334087  -10.677614
     15          1           0       -0.151418   10.240634   -8.919151
     16          1           0        0.524617   12.389318  -11.913612
     17          1           0        1.512155   11.582001   -7.808799
     18          1           0        2.390692   14.007947  -12.046742
     19          1           0        3.382350   13.201998   -7.938748
     20          1           0        3.827747   14.424239  -10.060150
     21          1           0       -1.570854   11.978386   -7.524874
     22          7           0       -2.762367    9.472333   -9.540080
     23          6           0       -3.931557    8.593535   -9.609902
     24          6           0       -4.861077    8.754059   -8.394994
     25          8           0       -6.055986    8.517422   -8.489340
     26          6           0       -3.505677    7.125622   -9.764620
     27          6           0       -2.674692    6.795245  -11.021673
     28          6           0       -2.342360    5.295982  -11.036508
     29          6           0       -3.384267    7.214240  -12.316345
     30          1           0       -1.854344    9.063389   -9.701604
     31          1           0       -4.555313    8.896906  -10.455932
     32          1           0       -2.950193    6.820896   -8.866083
     33          1           0       -4.428312    6.533060   -9.778713
     34          1           0       -1.717174    7.340211  -10.969485
     35          1           0       -3.259200    4.698439  -11.113298
     36          1           0       -1.706189    5.042702  -11.891569
     37          1           0       -1.818861    4.990415  -10.122814
     38          1           0       -4.369676    6.737635  -12.389794
     39          1           0       -3.531009    8.298372  -12.375510
     40          1           0       -2.800690    6.911839  -13.192722
     41          7           0       -4.263689    9.131985   -7.222058
     42          6           0       -5.059777    9.846126   -6.239709
     43          6           0       -4.221517   11.062419   -5.802763
     44          8           0       -2.995690   11.102303   -5.985922
     45          6           0       -5.505118    8.931751   -5.078696
     46          6           0       -6.727163    9.459627   -4.328848
     47          7           0       -7.376633    8.546351   -3.565897
     48          8           0       -7.100887   10.633914   -4.382640
     49          1           0       -3.301478    9.447964   -7.267034
     50          1           0       -5.964057   10.208098   -6.739619
     51          1           0       -5.742986    7.957441   -5.518549
     52          1           0       -4.684810    8.768952   -4.367442
     53          1           0       -8.228539    8.833824   -3.102501
     54          1           0       -7.176646    7.558600   -3.623126
     55          7           0       -4.916546   12.085571   -5.275366
     56          6           0       -4.304293   13.367178   -4.958315
     57          6           0       -3.268479   13.700063   -6.053526
     58          8           0       -2.100644   14.033599   -5.798444
     59          6           0       -3.734985   13.405569   -3.526439
     60          6           0       -3.503601   14.836042   -2.967029
     61          6           0       -2.101501   15.065649   -2.381343
     62          7           0       -1.108627   14.969770   -3.464949
     63          6           0       -0.365065   15.970393   -3.932767
     64          7           0        0.120109   16.924194   -3.115518
     65          7           0       -0.094963   16.017171   -5.246702
     66          8           0       -3.749237   13.604702   -7.257103
     67          1           0       -2.971342   13.346535   -7.907908
     68          1           0       -5.895581   11.904832   -5.041556
     69          1           0       -5.100559   14.116334   -5.054632
     70          1           0       -2.818099   12.804262   -3.513635
     71          1           0       -4.447402   12.877279   -2.886279
     72          1           0       -3.665671   15.586761   -3.751279
     73          1           0       -4.235671   15.050624   -2.181156
     74          1           0       -2.039088   16.054919   -1.917950
     75          1           0       -1.868868   14.317887   -1.615714
     76          1           0       -1.393131   14.315922   -4.208777
     77          1           0        0.538311   17.766550   -3.481805
     78          1           0        0.150453   16.780093   -2.117227
     79          1           0        0.693660   16.533057   -5.608359
     80          1           0       -0.630510   15.416881   -5.872661
 ---------------------------------------------------------------------
 Rotational constants (GHZ):           0.0879653           0.0708207           0.0421206
 Standard basis: 6-31G(d) (6D, 7F)
   667 basis functions,  1256 primitive gaussians,   667 cartesian basis functions
   147 alpha electrons      147 beta electrons
       nuclear repulsion energy      4777.1695093758 Hartrees.
 NAtoms=   80 NActive=   80 NUniq=   80 SFac= 1.00D+00 NAtFMM=   60 NAOKFM=T Big=T
 Integral buffers will be    131072 words long.
 Raffenetti 2 integral format.
 Two-electron integral symmetry is turned off.
 Nuclear repulsion after empirical dispersion term =     4777.0651832760 Hartrees.
 One-electron integrals computed using PRISM.
 NBasis=   667 RedAO= T EigKep=  4.68D-04  NBF=   667
 NBsUse=   667 1.00D-06 EigRej= -1.00D+00 NBFU=   667
 Initial guess from the checkpoint file:  "conf-684.chk"
 B after Tr=     0.000000    0.000000    0.000000
         Rot=    1.000000    0.000000    0.000000    0.000000 Ang=   0.00 deg.
 Requested convergence on RMS density matrix=1.00D-08 within 128 cycles.
 Requested convergence on MAX density matrix=1.00D-06.
 Requested convergence on             energy=1.00D-06.
 No special actions if energy rises.
 SCF Done:  E(RB3LYP) =  -1866.73750807     A.U. after    1 cycles
            NFock=  1  Conv=0.74D-08     -V/T= 2.0095

 **********************************************************************

            Population analysis using the SCF Density.

 **********************************************************************

 Alpha  occ. eigenvalues --  -19.25400 -19.24199 -19.21042 -19.20470 -19.19229
 Alpha  occ. eigenvalues --  -19.17605 -14.51617 -14.50436 -14.49290 -14.44435
 Alpha  occ. eigenvalues --  -14.44258 -14.44072 -14.43227 -14.41738 -10.47089
 Alpha  occ. eigenvalues --  -10.41927 -10.37941 -10.37612 -10.36700 -10.35118
 Alpha  occ. eigenvalues --  -10.34752 -10.33653 -10.31869 -10.31105 -10.30366
 Alpha  occ. eigenvalues --  -10.30070 -10.29283 -10.28512 -10.28199 -10.28125
 Alpha  occ. eigenvalues --  -10.27312 -10.27219 -10.27034 -10.26959 -10.26893
 Alpha  occ. eigenvalues --  -10.26152 -10.25899 -10.23525 -10.23504  -1.18781
 Alpha  occ. eigenvalues --   -1.15570  -1.12719  -1.11919  -1.11568  -1.09875
 Alpha  occ. eigenvalues --   -1.09520  -1.04778  -1.03825  -1.01539  -1.00718
 Alpha  occ. eigenvalues --   -0.99648  -0.98881  -0.98635  -0.93645  -0.90847
 Alpha  occ. eigenvalues --   -0.88187  -0.86756  -0.86513  -0.84757  -0.82534
 Alpha  occ. eigenvalues --   -0.82355  -0.79891  -0.79570  -0.77692  -0.75683
 Alpha  occ. eigenvalues --   -0.74537  -0.73968  -0.72779  -0.72467  -0.71757
 Alpha  occ. eigenvalues --   -0.69756  -0.68798  -0.68688  -0.67317  -0.66960
 Alpha  occ. eigenvalues --   -0.66279  -0.65380  -0.64746  -0.64614  -0.64212
 Alpha  occ. eigenvalues --   -0.63250  -0.63118  -0.61803  -0.61541  -0.60909
 Alpha  occ. eigenvalues --   -0.59359  -0.58983  -0.58266  -0.57883  -0.57620
 Alpha  occ. eigenvalues --   -0.56489  -0.55814  -0.55259  -0.54802  -0.54469
 Alpha  occ. eigenvalues --   -0.54331  -0.53816  -0.53692  -0.53127  -0.52916
 Alpha  occ. eigenvalues --   -0.52391  -0.51819  -0.51218  -0.51046  -0.50609
 Alpha  occ. eigenvalues --   -0.50563  -0.50081  -0.49739  -0.49529  -0.48909
 Alpha  occ. eigenvalues --   -0.48338  -0.47778  -0.47686  -0.47252  -0.46900
 Alpha  occ. eigenvalues --   -0.46243  -0.45820  -0.45453  -0.45391  -0.45065
 Alpha  occ. eigenvalues --   -0.44711  -0.44557  -0.44375  -0.43834  -0.43453
 Alpha  occ. eigenvalues --   -0.43261  -0.42365  -0.42360  -0.42071  -0.41657
 Alpha  occ. eigenvalues --   -0.39728  -0.39576  -0.39360  -0.39240  -0.38867
 Alpha  occ. eigenvalues --   -0.38095  -0.36199  -0.35767  -0.35133  -0.34648
 Alpha  occ. eigenvalues --   -0.34354  -0.34201  -0.33513  -0.33162  -0.32244
 Alpha  occ. eigenvalues --   -0.31783  -0.30716
 Alpha virt. eigenvalues --   -0.11786  -0.09319  -0.08564  -0.08329  -0.07164
 Alpha virt. eigenvalues --   -0.06889  -0.06288  -0.05730  -0.03824  -0.03367
 Alpha virt. eigenvalues --   -0.01441  -0.01179  -0.00551   0.00277   0.00317
 Alpha virt. eigenvalues --    0.01069   0.01405   0.01904   0.02595   0.02846
 Alpha virt. eigenvalues --    0.03235   0.03484   0.03899   0.04398   0.05194
 Alpha virt. eigenvalues --    0.05439   0.05853   0.05941   0.06134   0.06855
 Alpha virt. eigenvalues --    0.07206   0.07362   0.07855   0.07905   0.08124
 Alpha virt. eigenvalues --    0.08244   0.08384   0.08749   0.09131   0.09445
 Alpha virt. eigenvalues --    0.09647   0.10275   0.10554   0.10903   0.11195
 Alpha virt. eigenvalues --    0.11619   0.11822   0.12278   0.12668   0.12774
 Alpha virt. eigenvalues --    0.12963   0.13165   0.14033   0.14072   0.14694
 Alpha virt. eigenvalues --    0.15121   0.15461   0.15961   0.16136   0.16560
 Alpha virt. eigenvalues --    0.17131   0.17605   0.18400   0.18455   0.18524
 Alpha virt. eigenvalues --    0.18681   0.19862   0.20171   0.20592   0.22128
 Alpha virt. eigenvalues --    0.22637   0.23688   0.24135   0.24687   0.25143
 Alpha virt. eigenvalues --    0.25342   0.25583   0.26376   0.26675   0.28119
 Alpha virt. eigenvalues --    0.28943   0.30227   0.30600   0.30909   0.32985
 Alpha virt. eigenvalues --    0.34388   0.37244   0.37653   0.38238   0.39537
 Alpha virt. eigenvalues --    0.40384   0.41947   0.42080   0.42785   0.43037
 Alpha virt. eigenvalues --    0.43402   0.44180   0.44742   0.44889   0.45226
 Alpha virt. eigenvalues --    0.45528   0.45870   0.46018   0.46712   0.46942
 Alpha virt. eigenvalues --    0.47102   0.47649   0.47725   0.48146   0.48921
 Alpha virt. eigenvalues --    0.49310   0.49856   0.49969   0.50065   0.50919
 Alpha virt. eigenvalues --    0.51193   0.51477   0.51685   0.51928   0.52543
 Alpha virt. eigenvalues --    0.52811   0.52990   0.53159   0.53345   0.54098
 Alpha virt. eigenvalues --    0.54285   0.54861   0.55102   0.55339   0.55613
 Alpha virt. eigenvalues --    0.56282   0.56725   0.56929   0.57119   0.57660
 Alpha virt. eigenvalues --    0.58137   0.58653   0.58905   0.59200   0.59582
 Alpha virt. eigenvalues --    0.60235   0.61001   0.61626   0.62009   0.62413
 Alpha virt. eigenvalues --    0.62840   0.63474   0.63937   0.64457   0.65008
 Alpha virt. eigenvalues --    0.65271   0.65503   0.66045   0.66670   0.66867
 Alpha virt. eigenvalues --    0.68402   0.69300   0.69848   0.70456   0.70793
 Alpha virt. eigenvalues --    0.71228   0.72078   0.72680   0.72909   0.73339
 Alpha virt. eigenvalues --    0.73659   0.74200   0.74276   0.74453   0.74999
 Alpha virt. eigenvalues --    0.75278   0.75725   0.76101   0.76355   0.76471
 Alpha virt. eigenvalues --    0.77015   0.77328   0.77438   0.77606   0.78122
 Alpha virt. eigenvalues --    0.78359   0.78743   0.78871   0.79285   0.79904
 Alpha virt. eigenvalues --    0.80143   0.80744   0.80933   0.81114   0.81852
 Alpha virt. eigenvalues --    0.81994   0.82258   0.82943   0.83445   0.83914
 Alpha virt. eigenvalues --    0.84116   0.84378   0.84845   0.85289   0.85769
 Alpha virt. eigenvalues --    0.85997   0.86186   0.86792   0.87053   0.87396
 Alpha virt. eigenvalues --    0.87664   0.87878   0.88398   0.88734   0.89370
 Alpha virt. eigenvalues --    0.89746   0.90216   0.90613   0.90781   0.91957
 Alpha virt. eigenvalues --    0.92059   0.92572   0.92998   0.94603   0.94954
 Alpha virt. eigenvalues --    0.95410   0.97008   0.97169   0.97476   0.98021
 Alpha virt. eigenvalues --    0.99012   0.99500   1.00363   1.01348   1.02371
 Alpha virt. eigenvalues --    1.03428   1.04055   1.04385   1.04760   1.05023
 Alpha virt. eigenvalues --    1.06044   1.07523   1.07633   1.08258   1.09359
 Alpha virt. eigenvalues --    1.10134   1.10537   1.11534   1.12457   1.13148
 Alpha virt. eigenvalues --    1.14347   1.14511   1.15557   1.16084   1.16978
 Alpha virt. eigenvalues --    1.18105   1.18657   1.19595   1.20450   1.20917
 Alpha virt. eigenvalues --    1.21591   1.22339   1.22678   1.23439   1.23943
 Alpha virt. eigenvalues --    1.25321   1.26880   1.27481   1.28801   1.29614
 Alpha virt. eigenvalues --    1.30476   1.31389   1.32373   1.32921   1.33449
 Alpha virt. eigenvalues --    1.34749   1.35260   1.35333   1.36304   1.37275
 Alpha virt. eigenvalues --    1.37871   1.38526   1.39428   1.39639   1.40239
 Alpha virt. eigenvalues --    1.40528   1.40868   1.41803   1.42378   1.42555
 Alpha virt. eigenvalues --    1.43288   1.44372   1.45779   1.46559   1.47749
 Alpha virt. eigenvalues --    1.49222   1.50073   1.50454   1.50944   1.52444
 Alpha virt. eigenvalues --    1.53982   1.54235   1.55313   1.56527   1.56777
 Alpha virt. eigenvalues --    1.57738   1.58382   1.59573   1.59670   1.60395
 Alpha virt. eigenvalues --    1.61551   1.62382   1.63701   1.64354   1.64936
 Alpha virt. eigenvalues --    1.66975   1.67468   1.68620   1.68767   1.69557
 Alpha virt. eigenvalues --    1.70403   1.71094   1.71169   1.71415   1.71964
 Alpha virt. eigenvalues --    1.72083   1.72516   1.72792   1.73321   1.74192
 Alpha virt. eigenvalues --    1.75034   1.75235   1.75598   1.76305   1.76697
 Alpha virt. eigenvalues --    1.77084   1.77466   1.78524   1.79090   1.79597
 Alpha virt. eigenvalues --    1.79987   1.80459   1.81247   1.81639   1.81985
 Alpha virt. eigenvalues --    1.83179   1.84500   1.84569   1.84662   1.85777
 Alpha virt. eigenvalues --    1.86182   1.86809   1.87003   1.87413   1.88018
 Alpha virt. eigenvalues --    1.88372   1.88913   1.89577   1.90099   1.90876
 Alpha virt. eigenvalues --    1.91647   1.92833   1.93256   1.93508   1.94117
 Alpha virt. eigenvalues --    1.94584   1.95028   1.95638   1.96844   1.97019
 Alpha virt. eigenvalues --    1.97510   1.97764   1.98533   1.99468   1.99773
 Alpha virt. eigenvalues --    2.00271   2.01015   2.01942   2.02221   2.03372
 Alpha virt. eigenvalues --    2.03887   2.04331   2.05223   2.06150   2.06307
 Alpha virt. eigenvalues --    2.07263   2.07561   2.08666   2.08939   2.09246
 Alpha virt. eigenvalues --    2.10086   2.12405   2.12950   2.13597   2.13943
 Alpha virt. eigenvalues --    2.14495   2.15586   2.16915   2.17756   2.18250
 Alpha virt. eigenvalues --    2.19170   2.19591   2.20098   2.20753   2.21821
 Alpha virt. eigenvalues --    2.22248   2.22991   2.24324   2.25769   2.26923
 Alpha virt. eigenvalues --    2.27283   2.27694   2.28981   2.29856   2.31377
 Alpha virt. eigenvalues --    2.31710   2.33063   2.33255   2.34791   2.35393
 Alpha virt. eigenvalues --    2.36700   2.37169   2.38604   2.38888   2.39416
 Alpha virt. eigenvalues --    2.39745   2.41769   2.42045   2.42413   2.43253
 Alpha virt. eigenvalues --    2.44943   2.45070   2.45765   2.45969   2.46708
 Alpha virt. eigenvalues --    2.48389   2.49180   2.50267   2.50521   2.50756
 Alpha virt. eigenvalues --    2.52873   2.53186   2.53720   2.54199   2.55353
 Alpha virt. eigenvalues --    2.56411   2.57337   2.58256   2.58677   2.59553
 Alpha virt. eigenvalues --    2.60713   2.61405   2.61682   2.63261   2.64535
 Alpha virt. eigenvalues --    2.65815   2.66221   2.66553   2.66954   2.68649
 Alpha virt. eigenvalues --    2.68820   2.69452   2.72345   2.73321   2.76210
 Alpha virt. eigenvalues --    2.77787   2.79986   2.81319   2.84126   2.86154
 Alpha virt. eigenvalues --    2.88070   2.88551   2.90054   2.92729   2.94915
 Alpha virt. eigenvalues --    2.95199   2.95726   2.96765   2.97008   2.98557
 Alpha virt. eigenvalues --    2.99775   3.03341   3.06838   3.12046   3.12738
 Alpha virt. eigenvalues --    3.32783   3.65817   3.72643   3.72880   3.84394
 Alpha virt. eigenvalues --    3.90364   3.91479   3.93144   3.95864   4.00894
 Alpha virt. eigenvalues --    4.01295   4.02289   4.04028   4.06622   4.07482
 Alpha virt. eigenvalues --    4.08988   4.09796   4.11225   4.14567   4.17888
 Alpha virt. eigenvalues --    4.18889   4.21208   4.23502   4.25362   4.25978
 Alpha virt. eigenvalues --    4.26444   4.28484   4.30943   4.32823   4.34415
 Alpha virt. eigenvalues --    4.37692   4.41847   4.42883   4.49644   4.51212
 Alpha virt. eigenvalues --    4.55521   4.59989   4.61467   4.62820   4.71300
          Condensed to atoms (all electrons):
 Mulliken charges:
               1
     1  N   -0.799355
     2  C   -0.049963
     3  C    0.616463
     4  O   -0.501785
     5  C   -0.395307
     6  C    0.156123
     7  C   -0.176731
     8  C   -0.198547
     9  C   -0.128125
    10  C   -0.133648
    11  C   -0.130282
    12  H    0.331868
    13  H    0.185932
    14  H    0.165304
    15  H    0.151505
    16  H    0.140379
    17  H    0.128770
    18  H    0.151619
    19  H    0.135888
    20  H    0.145592
    21  H    0.360688
    22  N   -0.662736
    23  C   -0.015058
    24  C    0.615125
    25  O   -0.517460
    26  C   -0.302850
    27  C   -0.082612
    28  C   -0.442645
    29  C   -0.450432
    30  H    0.349784
    31  H    0.195722
    32  H    0.138511
    33  H    0.176831
    34  H    0.107125
    35  H    0.154535
    36  H    0.154164
    37  H    0.143651
    38  H    0.158484
    39  H    0.147052
    40  H    0.154784
    41  N   -0.614193
    42  C   -0.045074
    43  C    0.623890
    44  O   -0.579984
    45  C   -0.379364
    46  C    0.623847
    47  N   -0.737828
    48  O   -0.533175
    49  H    0.343202
    50  H    0.213593
    51  H    0.197797
    52  H    0.183649
    53  H    0.358283
    54  H    0.353547
    55  N   -0.610334
    56  C   -0.028931
    57  C    0.631090
    58  O   -0.578561
    59  C   -0.291388
    60  C   -0.287475
    61  C   -0.173587
    62  N   -0.599195
    63  C    0.777145
    64  N   -0.748855
    65  N   -0.772582
    66  O   -0.558145
    67  H    0.481252
    68  H    0.394198
    69  H    0.187735
    70  H    0.170808
    71  H    0.175940
    72  H    0.159819
    73  H    0.178636
    74  H    0.166219
    75  H    0.189944
    76  H    0.411430
    77  H    0.378229
    78  H    0.383344
    79  H    0.368053
    80  H    0.408656
 Sum of Mulliken charges =   1.00000
 Mulliken charges with hydrogens summed into heavy atoms:
               1
     1  N   -0.106799
     2  C    0.135968
     3  C    0.616463
     4  O   -0.501785
     5  C   -0.078497
     6  C    0.156123
     7  C   -0.036352
     8  C   -0.069777
     9  C    0.023493
    10  C    0.002240
    11  C    0.015310
    22  N   -0.312952
    23  C    0.180663
    24  C    0.615125
    25  O   -0.517460
    26  C    0.012491
    27  C    0.024513
    28  C    0.009706
    29  C    0.009888
    41  N   -0.270991
    42  C    0.168519
    43  C    0.623890
    44  O   -0.579984
    45  C    0.002082
    46  C    0.623847
    47  N   -0.025997
    48  O   -0.533175
    55  N   -0.216136
    56  C    0.158804
    57  C    0.631090
    58  O   -0.578561
    59  C    0.055360
    60  C    0.050981
    61  C    0.182576
    62  N   -0.187765
    63  C    0.777145
    64  N    0.012719
    65  N    0.004127
    66  O   -0.076893
 Electronic spatial extent (au):  <R**2>=         225253.4202
 Charge=              1.0000 electrons
 Dipole moment (field-independent basis, Debye):
    X=             -3.2531    Y=             65.7597    Z=            -22.2738  Tot=             69.5057
 Quadrupole moment (field-independent basis, Debye-Ang):
   XX=           -204.7929   YY=            761.8063   ZZ=            -69.0676
   XY=             -7.4752   XZ=            -22.5159   YZ=           -280.9090
 Traceless Quadrupole moment (field-independent basis, Debye-Ang):
   XX=           -367.4415   YY=            599.1577   ZZ=           -231.7162
   XY=             -7.4752   XZ=            -22.5159   YZ=           -280.9090
 Octapole moment (field-independent basis, Debye-Ang**2):
  XXX=           1632.0234  YYY=           7864.7366  ZZZ=           3439.4640  XYY=            732.3670
  XXY=          -2451.1352  XXZ=           1814.2236  XZZ=            906.7429  YZZ=           -794.5361
  YYZ=          -2358.0645  XYZ=           -425.0188
 Hexadecapole moment (field-independent basis, Debye-Ang**3):
 XXXX=         -17492.8824 YYYY=          64799.5687 ZZZZ=         -66701.9794 XXXY=          17334.0036
 XXXZ=         -12430.0153 YYYX=          21546.9441 YYYZ=          -7806.0651 ZZZX=         -13907.2136
 ZZZY=          37628.4852 XXYY=         -33330.1631 XXZZ=         -19480.7953 YYZZ=         -21881.3114
 XXYZ=          19799.2224 YYXZ=         -10116.2797 ZZXY=          10866.4387
 N-N= 4.777065183276D+03 E-N=-1.387558501597D+04  KE= 1.849240093244D+03
 Unable to Open any file for archive entry.
 1\1\GINC-LAC-304\SP\RB3LYP\6-31G(d)\C25H41N8O6(1+)\KENGMITH\11-Jun-202
 2\0\\# B3LYP/6-31G* empiricaldispersion=gd3 guess=read geom=check nosy
 mm integral(ultrafinegrid)\\Candidate Structure: Conf:684 Charge calc 
 in gas phase\\1,1\N,0,-1.6350673619,12.5534683142,-8.3687430363\C,0,-1
 .6302033082,11.6935993947,-9.568410755\C,0,-2.9088411205,10.8307199726
 ,-9.511994807\O,0,-4.004002055,11.3661319469,-9.4106485548\C,0,-0.2960
 438211,10.9328234233,-9.7594475966\C,0,0.8820489586,11.8782561339,-9.8
 490260453\C,0,1.1443110346,12.5727583569,-11.0384561626\C,0,1.69511749
 05,12.1242038359,-8.7343518311\C,0,2.1955308461,13.4859838298,-11.1142
 454873\C,0,2.7500126159,13.0373730055,-8.8073188798\C,0,3.002118028,13
 .7210087504,-9.9975277011\H,0,-0.8127986214,13.1564010684,-8.378062454
 6\H,0,-1.7741590228,12.3568832339,-10.4292290824\H,0,-0.3579444726,10.
 3340870778,-10.6776143594\H,0,-0.1514176548,10.2406339364,-8.919151110
 4\H,0,0.5246173362,12.3893178554,-11.9136120342\H,0,1.5121546589,11.58
 2001201,-7.8087991416\H,0,2.3906920277,14.0079470322,-12.0467417956\H,
 0,3.3823500103,13.2019982545,-7.9387478072\H,0,3.827746807,14.42423939
 98,-10.0601495102\H,0,-1.5708536426,11.9783859975,-7.524874399\N,0,-2.
 7623669776,9.4723330991,-9.5400802262\C,0,-3.9315573862,8.5935345413,-
 9.6099016489\C,0,-4.8610767189,8.754059161,-8.3949942077\O,0,-6.055986
 4556,8.5174219213,-8.4893401091\C,0,-3.5056773544,7.125621594,-9.76461
 95361\C,0,-2.6746918075,6.795244642,-11.0216732314\C,0,-2.3423600548,5
 .2959815023,-11.036508285\C,0,-3.3842665581,7.2142398656,-12.316344518
 9\H,0,-1.8543437469,9.0633887457,-9.7016038995\H,0,-4.5553129817,8.896
 9055985,-10.4559316859\H,0,-2.9501929036,6.8208957558,-8.8660829193\H,
 0,-4.4283115797,6.5330600585,-9.7787129802\H,0,-1.7171738225,7.3402113
 323,-10.9694852708\H,0,-3.2592003452,4.6984391224,-11.1132975286\H,0,-
 1.7061892411,5.0427022285,-11.89156943\H,0,-1.8188612884,4.990415202,-
 10.1228139098\H,0,-4.369675526,6.7376348825,-12.38979383\H,0,-3.531009
 3535,8.2983720453,-12.3755103511\H,0,-2.8006895625,6.9118392016,-13.19
 27220665\N,0,-4.2636890689,9.1319847393,-7.2220584053\C,0,-5.059777009
 8,9.8461257243,-6.2397091355\C,0,-4.2215165097,11.062418625,-5.8027627
 245\O,0,-2.9956900617,11.1023034141,-5.9859219325\C,0,-5.5051175001,8.
 9317507495,-5.078696047\C,0,-6.7271631196,9.4596267416,-4.3288479496\N
 ,0,-7.3766328125,8.5463510316,-3.5658968303\O,0,-7.1008872239,10.63391
 43707,-4.3826402569\H,0,-3.301478398,9.4479637816,-7.2670339272\H,0,-5
 .9640573236,10.208098343,-6.739619291\H,0,-5.7429857169,7.9574409612,-
 5.5185490812\H,0,-4.6848098998,8.7689517725,-4.3674422876\H,0,-8.22853
 85849,8.8338237875,-3.1025008183\H,0,-7.1766464691,7.5585998468,-3.623
 1259978\N,0,-4.9165459468,12.085570855,-5.2753662924\C,0,-4.3042928152
 ,13.3671784573,-4.9583148237\C,0,-3.2684794065,13.7000632725,-6.053526
 2787\O,0,-2.100643692,14.0335989442,-5.7984437555\C,0,-3.7349850436,13
 .4055693915,-3.526439212\C,0,-3.5036008855,14.8360422087,-2.9670288925
 \C,0,-2.1015014336,15.0656485453,-2.381343174\N,0,-1.1086270509,14.969
 7700255,-3.4649491509\C,0,-0.365065334,15.9703931267,-3.9327668027\N,0
 ,0.1201089159,16.9241939059,-3.1155175073\N,0,-0.0949628055,16.0171708
 423,-5.2467021313\O,0,-3.7492366707,13.6047023037,-7.2571030995\H,0,-2
 .9713424316,13.3465345622,-7.9079081772\H,0,-5.8955811862,11.904831547
 6,-5.0415556426\H,0,-5.1005593739,14.1163343987,-5.0546322812\H,0,-2.8
 180989957,12.8042615952,-3.5136346743\H,0,-4.4474015376,12.877279436,-
 2.8862785539\H,0,-3.665671452,15.5867606702,-3.7512790788\H,0,-4.23567
 05012,15.0506238541,-2.1811561009\H,0,-2.0390881979,16.0549187827,-1.9
 179495592\H,0,-1.8688676412,14.3178874009,-1.6157141029\H,0,-1.3931306
 469,14.3159222835,-4.2087772039\H,0,0.5383110515,17.7665498487,-3.4818
 053591\H,0,0.1504531693,16.7800926753,-2.1172270919\H,0,0.6936603144,1
 6.533057098,-5.6083585408\H,0,-0.6305098128,15.4168808392,-5.872660901
 8\\Version=ES64L-G16RevC.01\HF=-1866.7375081\RMSD=7.443e-09\Dipole=3.6
 722418,4.1635554,4.8702783\Quadrupole=-273.1837676,445.4590981,-172.27
 53304,-5.5576048,-16.740013,-208.8489672\PG=C01 [X(C25H41N8O6)]\\@
 The archive entry for this job was punched.


 Experience is what you get when you don't get what you want.
 -- Dan Stanford
 Job cpu time:       0 days  0 hours  2 minutes  5.6 seconds.
 Elapsed time:       0 days  0 hours  0 minutes 32.2 seconds.
 File lengths (MBytes):  RWF=    344 Int=      0 D2E=      0 Chk=     56 Scr=     16
 Normal termination of Gaussian 16 at Sat Jun 11 21:06:55 2022.
