 Entering Gaussian System, Link 0=/opt/software/Gaussian/g16-AVX2-C.01/g16/g16
 Input=charge-conf-950.com
 Output=charge-conf-950.log
 Initial command:
 /opt/software/Gaussian/g16-AVX2-C.01/g16/l1.exe "/mnt/gs18/scratch/users/kengmith/Gau-5148.inp" -scrdir="/mnt/gs18/scratch/users/kengmith/"
 Entering Link 1 = /opt/software/Gaussian/g16-AVX2-C.01/g16/l1.exe PID=      5159.
  
 Copyright (c) 1988-2019, Gaussian, Inc.  All Rights Reserved.
  
 This is part of the Gaussian(R) 16 program.  It is based on
 the Gaussian(R) 09 system (copyright 2009, Gaussian, Inc.),
 the Gaussian(R) 03 system (copyright 2003, Gaussian, Inc.),
 the Gaussian(R) 98 system (copyright 1998, Gaussian, Inc.),
 the Gaussian(R) 94 system (copyright 1995, Gaussian, Inc.),
 the Gaussian 92(TM) system (copyright 1992, Gaussian, Inc.),
 the Gaussian 90(TM) system (copyright 1990, Gaussian, Inc.),
 the Gaussian 88(TM) system (copyright 1988, Gaussian, Inc.),
 the Gaussian 86(TM) system (copyright 1986, Carnegie Mellon
 University), and the Gaussian 82(TM) system (copyright 1983,
 Carnegie Mellon University). Gaussian is a federally registered
 trademark of Gaussian, Inc.
  
 This software contains proprietary and confidential information,
 including trade secrets, belonging to Gaussian, Inc.
  
 This software is provided under written license and may be
 used, copied, transmitted, or stored only in accord with that
 written license.
  
 The following legend is applicable only to US Government
 contracts under FAR:
  
                    RESTRICTED RIGHTS LEGEND
  
 Use, reproduction and disclosure by the US Government is
 subject to restrictions as set forth in subparagraphs (a)
 and (c) of the Commercial Computer Software - Restricted
 Rights clause in FAR 52.227-19.
  
 Gaussian, Inc.
 340 Quinnipiac St., Bldg. 40, Wallingford CT 06492
  
  
 ---------------------------------------------------------------
 Warning -- This program may not be used in any manner that
 competes with the business of Gaussian, Inc. or will provide
 assistance to any competitor of Gaussian, Inc.  The licensee
 of this program is prohibited from giving any competitor of
 Gaussian, Inc. access to this program.  By using this program,
 the user acknowledges that Gaussian, Inc. is engaged in the
 business of creating and licensing software in the field of
 computational chemistry and represents and warrants to the
 licensee that it is not a competitor of Gaussian, Inc. and that
 it will not use this program in any manner prohibited above.
 ---------------------------------------------------------------
  

 Cite this work as:
 Gaussian 16, Revision C.01,
 M. J. Frisch, G. W. Trucks, H. B. Schlegel, G. E. Scuseria, 
 M. A. Robb, J. R. Cheeseman, G. Scalmani, V. Barone, 
 G. A. Petersson, H. Nakatsuji, X. Li, M. Caricato, A. V. Marenich, 
 J. Bloino, B. G. Janesko, R. Gomperts, B. Mennucci, H. P. Hratchian, 
 J. V. Ortiz, A. F. Izmaylov, J. L. Sonnenberg, D. Williams-Young, 
 F. Ding, F. Lipparini, F. Egidi, J. Goings, B. Peng, A. Petrone, 
 T. Henderson, D. Ranasinghe, V. G. Zakrzewski, J. Gao, N. Rega, 
 G. Zheng, W. Liang, M. Hada, M. Ehara, K. Toyota, R. Fukuda, 
 J. Hasegawa, M. Ishida, T. Nakajima, Y. Honda, O. Kitao, H. Nakai, 
 T. Vreven, K. Throssell, J. A. Montgomery, Jr., J. E. Peralta, 
 F. Ogliaro, M. J. Bearpark, J. J. Heyd, E. N. Brothers, K. N. Kudin, 
 V. N. Staroverov, T. A. Keith, R. Kobayashi, J. Normand, 
 K. Raghavachari, A. P. Rendell, J. C. Burant, S. S. Iyengar, 
 J. Tomasi, M. Cossi, J. M. Millam, M. Klene, C. Adamo, R. Cammi, 
 J. W. Ochterski, R. L. Martin, K. Morokuma, O. Farkas, 
 J. B. Foresman, and D. J. Fox, Gaussian, Inc., Wallingford CT, 2019.
 
 ******************************************
 Gaussian 16:  ES64L-G16RevC.01  3-Jul-2019
                11-Jun-2022 
 ******************************************
 %mem=8gb
 %nproc=4
 Will use up to    4 processors via shared memory.
 %chk=conf-950.chk
 ----------------------------------------------------------------------
 # B3LYP/6-31G* empiricaldispersion=gd3 guess=read geom=check nosymm in
 tegral(ultrafinegrid)
 ----------------------------------------------------------------------
 1/29=2,38=1,172=1/1;
 2/12=2,15=1,40=1/2;
 3/5=1,6=6,7=1,11=2,14=-4,25=1,30=1,74=-5,75=-5,116=-2,124=31/1,2,3;
 4/5=1/1;
 5/5=2,38=6/2;
 6/7=2,8=2,9=2,10=2,28=1/1;
 99/5=1,9=1/99;
 ------------------------------------------------------
 Candidate Structure: Conf:950 Charge calc in gas phase
 ------------------------------------------------------
 Structure from the checkpoint file:  "conf-950.chk"
 Charge =  1 Multiplicity = 1
 Redundant internal coordinates found in file.  (old form).
 N,0,-1.9222590333,15.4661874627,-5.0777276714
 C,0,-2.1435073233,14.0785442072,-5.4665078068
 C,0,-0.9270329575,13.1811500489,-5.1422171841
 O,0,0.1722627805,13.6585228176,-4.882494691
 C,0,-2.4478491774,14.0036519123,-6.9913114983
 C,0,-3.7971642382,14.5965982525,-7.3201737824
 C,0,-4.9084998436,13.7567922355,-7.4809090764
 C,0,-3.9865380626,15.9848862357,-7.4104260265
 C,0,-6.1771974304,14.2843636502,-7.7411318485
 C,0,-5.2533670831,16.5164332925,-7.665539156
 C,0,-6.3537522322,15.6688697377,-7.8378389432
 H,0,-0.9162324523,15.6369046177,-5.1387178075
 H,0,-3.0185022622,13.6875961377,-4.9331807106
 H,0,-2.4085167094,12.9641411527,-7.3364333308
 H,0,-1.6421351199,14.5464113767,-7.502315633
 H,0,-4.7757434236,12.682690216,-7.3732831344
 H,0,-3.1423202032,16.6417524729,-7.2243807457
 H,0,-7.0302484165,13.6177256983,-7.8421890505
 H,0,-5.3876883661,17.5942986424,-7.7081101469
 H,0,-7.3415025309,16.0841106067,-8.0186971592
 H,0,-2.1546603529,15.5898869669,-4.09442485
 N,0,-1.1708999473,11.8410987111,-5.1852911344
 C,0,-0.0615904685,10.8734189116,-5.1236822034
 C,0,-0.5453174081,9.6381015715,-5.8806614696
 O,0,-0.0718401582,9.2918695257,-6.955437871
 C,0,0.383241184,10.6018911011,-3.6757211066
 C,0,1.4390713759,9.4906183882,-3.5241494192
 C,0,2.6815934831,9.7438071323,-4.3924061886
 C,0,1.823461667,9.3407612895,-2.0456277397
 H,0,-2.027305509,11.5228198944,-5.6326613036
 H,0,0.7787474123,11.2764208094,-5.6927961153
 H,0,0.7741679049,11.5490643962,-3.2857838695
 H,0,-0.4995942233,10.35674231,-3.0683243968
 H,0,0.9823483647,8.5443241364,-3.8527904459
 H,0,2.4486488467,9.7043069735,-5.462022351
 H,0,3.1170772343,10.7268408709,-4.1724647642
 H,0,3.4488303538,8.9868300444,-4.1958766106
 H,0,2.3017723967,10.2558998494,-1.6745709014
 H,0,0.9452740081,9.1445512494,-1.4184583161
 H,0,2.5293808529,8.5147771652,-1.9051403548
 N,0,-1.6083712889,8.9763174307,-5.2975600306
 C,0,-2.4871331518,8.2063567405,-6.1577158659
 C,0,-3.1535593615,9.1751084051,-7.1757941022
 O,0,-3.1236173567,10.4012113528,-7.0137565015
 C,0,-3.4735724537,7.3691831837,-5.3308843013
 C,0,-4.0219766951,6.1699895379,-6.1116732645
 N,0,-4.7794630398,5.3119087575,-5.389525192
 O,0,-3.7960956871,5.994271182,-7.3088857164
 H,0,-2.0465059323,9.4485643362,-4.5153750141
 H,0,-1.8568227575,7.5329152374,-6.7433165067
 H,0,-2.9455925941,6.9989175156,-4.4433116328
 H,0,-4.3116282985,7.9801940613,-4.9700646294
 H,0,-5.1309964609,4.480867845,-5.8465043081
 H,0,-4.8981983947,5.3957254081,-4.390537224
 N,0,-3.6531821653,8.6054805291,-8.2989034922
 C,0,-3.6575809692,9.3663694984,-9.5494808707
 C,0,-2.2513842312,9.9932327588,-9.7094137774
 O,0,-2.0050588718,11.1612181952,-9.9747661323
 C,0,-4.7901418222,10.3987562603,-9.6294523562
 C,0,-5.0313257946,10.9811505199,-11.0454633257
 C,0,-5.1676094548,12.5073713104,-11.0361151854
 N,0,-3.8720029358,13.0843719056,-10.667280428
 C,0,-3.607408931,14.3715638614,-10.5276635549
 N,0,-4.5816415776,15.2953875944,-10.6503459596
 N,0,-2.3280646843,14.7751947979,-10.3600011728
 O,0,-1.3134422011,9.080189835,-9.4917054498
 H,0,-0.4495810706,9.5023846649,-9.3158589289
 H,0,-3.5829197687,7.5878922539,-8.3408982879
 H,0,-3.769396635,8.629947104,-10.3538726031
 H,0,-4.5620352111,11.1908104615,-8.9137182104
 H,0,-5.6973197453,9.906615078,-9.2673062003
 H,0,-4.2151052691,10.7135078219,-11.7287096167
 H,0,-5.9419277999,10.5595358071,-11.481602013
 H,0,-5.466797992,12.8887374518,-12.0188290657
 H,0,-5.9287725843,12.808089316,-10.3027814322
 H,0,-3.139130285,12.4114674019,-10.4065545723
 H,0,-4.3386778509,16.2572106682,-10.4539704591
 H,0,-5.4993933063,15.0443283084,-10.299776353
 H,0,-2.15648367,15.6200047845,-9.8311372457
 H,0,-1.6069995121,14.0675297568,-10.2932543325
 Recover connectivity data from disk.
                           ----------------------------
                           !    Current Parameters    !
                           ! (Angstroms and Degrees)  !
 --------------------------                            --------------------------
 ! Name  Definition              Value                                          !
 --------------------------------------------------------------------------------
 ! R1    R(1,2)                  1.458                                          !
 ! R2    R(1,12)                 1.0222                                         !
 ! R3    R(1,21)                 1.0179                                         !
 ! R4    R(2,3)                  1.5461                                         !
 ! R5    R(2,5)                  1.5567                                         !
 ! R6    R(2,13)                 1.0968                                         !
 ! R7    R(3,4)                  1.2263                                         !
 ! R8    R(3,22)                 1.3627                                         !
 ! R9    R(5,6)                  1.5101                                         !
 ! R10   R(5,14)                 1.096                                          !
 ! R11   R(5,15)                 1.0977                                         !
 ! R12   R(6,7)                  1.4022                                         !
 ! R13   R(6,8)                  1.404                                          !
 ! R14   R(7,9)                  1.3984                                         !
 ! R15   R(7,16)                 1.0876                                         !
 ! R16   R(8,10)                 1.3973                                         !
 ! R17   R(8,17)                 1.0857                                         !
 ! R18   R(9,11)                 1.3991                                         !
 ! R19   R(9,18)                 1.0873                                         !
 ! R20   R(10,11)                1.3996                                         !
 ! R21   R(10,19)                1.087                                          !
 ! R22   R(11,20)                1.0866                                         !
 ! R23   R(22,23)                1.4734                                         !
 ! R24   R(22,30)                1.0173                                         !
 ! R25   R(23,24)                1.5274                                         !
 ! R26   R(23,26)                1.5389                                         !
 ! R27   R(23,31)                1.092                                          !
 ! R28   R(24,25)                1.2244                                         !
 ! R29   R(24,41)                1.3813                                         !
 ! R30   R(26,27)                1.5404                                         !
 ! R31   R(26,32)                1.0964                                         !
 ! R32   R(26,33)                1.0993                                         !
 ! R33   R(27,28)                1.5368                                         !
 ! R34   R(27,29)                1.535                                          !
 ! R35   R(27,34)                1.1009                                         !
 ! R36   R(28,35)                1.0954                                         !
 ! R37   R(28,36)                1.0974                                         !
 ! R38   R(28,37)                1.0956                                         !
 ! R39   R(29,38)                1.0972                                         !
 ! R40   R(29,39)                1.0968                                         !
 ! R41   R(29,40)                1.0956                                         !
 ! R42   R(41,42)                1.4508                                         !
 ! R43   R(41,49)                1.0133                                         !
 ! R44   R(42,43)                1.5553                                         !
 ! R45   R(42,45)                1.5354                                         !
 ! R46   R(42,50)                1.0926                                         !
 ! R47   R(43,44)                1.2371                                         !
 ! R48   R(43,55)                1.3548                                         !
 ! R49   R(45,46)                1.5325                                         !
 ! R50   R(45,51)                1.0971                                         !
 ! R51   R(45,52)                1.0981                                         !
 ! R52   R(46,47)                1.3534                                         !
 ! R53   R(46,48)                1.2309                                         !
 ! R54   R(47,53)                1.0115                                         !
 ! R55   R(47,54)                1.0095                                         !
 ! R56   R(55,56)                1.4639                                         !
 ! R57   R(55,68)                1.0209                                         !
 ! R58   R(56,57)                1.5479                                         !
 ! R59   R(56,59)                1.5346                                         !
 ! R60   R(56,69)                1.0963                                         !
 ! R61   R(57,58)                1.2228                                         !
 ! R62   R(57,66)                1.3269                                         !
 ! R63   R(59,60)                1.55                                           !
 ! R64   R(59,70)                1.0916                                         !
 ! R65   R(59,71)                1.0938                                         !
 ! R66   R(60,61)                1.5323                                         !
 ! R67   R(60,72)                1.0976                                         !
 ! R68   R(60,73)                1.0942                                         !
 ! R69   R(61,62)                1.4655                                         !
 ! R70   R(61,74)                1.0958                                         !
 ! R71   R(61,75)                1.0989                                         !
 ! R72   R(62,63)                1.3215                                         !
 ! R73   R(62,76)                1.0285                                         !
 ! R74   R(63,64)                1.3482                                         !
 ! R75   R(63,65)                1.3519                                         !
 ! R76   R(64,77)                1.0113                                         !
 ! R77   R(64,78)                1.014                                          !
 ! R78   R(65,79)                1.0114                                         !
 ! R79   R(65,80)                1.0125                                         !
 ! R80   R(66,67)                0.9775                                         !
 ! A1    A(2,1,12)             107.0009                                         !
 ! A2    A(2,1,21)             109.7916                                         !
 ! A3    A(12,1,21)            105.1904                                         !
 ! A4    A(1,2,3)              112.1548                                         !
 ! A5    A(1,2,5)              109.6734                                         !
 ! A6    A(1,2,13)             109.3089                                         !
 ! A7    A(3,2,5)              109.3515                                         !
 ! A8    A(3,2,13)             108.592                                          !
 ! A9    A(5,2,13)             107.6494                                         !
 ! A10   A(2,3,4)              121.5881                                         !
 ! A11   A(2,3,22)             115.0457                                         !
 ! A12   A(4,3,22)             123.3612                                         !
 ! A13   A(2,5,6)              111.6611                                         !
 ! A14   A(2,5,14)             110.3073                                         !
 ! A15   A(2,5,15)             106.7805                                         !
 ! A16   A(6,5,14)             109.6275                                         !
 ! A17   A(6,5,15)             111.1206                                         !
 ! A18   A(14,5,15)            107.2199                                         !
 ! A19   A(5,6,7)              119.8661                                         !
 ! A20   A(5,6,8)              121.5178                                         !
 ! A21   A(7,6,8)              118.5502                                         !
 ! A22   A(6,7,9)              120.9584                                         !
 ! A23   A(6,7,16)             118.9072                                         !
 ! A24   A(9,7,16)             120.1139                                         !
 ! A25   A(6,8,10)             120.6741                                         !
 ! A26   A(6,8,17)             118.8372                                         !
 ! A27   A(10,8,17)            120.4038                                         !
 ! A28   A(7,9,11)             120.045                                          !
 ! A29   A(7,9,18)             119.8508                                         !
 ! A30   A(11,9,18)            120.0848                                         !
 ! A31   A(8,10,11)            120.325                                          !
 ! A32   A(8,10,19)            119.7605                                         !
 ! A33   A(11,10,19)           119.9004                                         !
 ! A34   A(9,11,10)            119.4423                                         !
 ! A35   A(9,11,20)            120.2897                                         !
 ! A36   A(10,11,20)           120.2479                                         !
 ! A37   A(3,22,23)            120.6501                                         !
 ! A38   A(3,22,30)            118.1781                                         !
 ! A39   A(23,22,30)           116.5349                                         !
 ! A40   A(22,23,24)           105.7842                                         !
 ! A41   A(22,23,26)           111.8926                                         !
 ! A42   A(22,23,31)           108.374                                          !
 ! A43   A(24,23,26)           114.5289                                         !
 ! A44   A(24,23,31)           106.4928                                         !
 ! A45   A(26,23,31)           109.4536                                         !
 ! A46   A(23,24,25)           122.7691                                         !
 ! A47   A(23,24,41)           114.9604                                         !
 ! A48   A(25,24,41)           122.1857                                         !
 ! A49   A(23,26,27)           114.7093                                         !
 ! A50   A(23,26,32)           106.5758                                         !
 ! A51   A(23,26,33)           109.0925                                         !
 ! A52   A(27,26,32)           110.1125                                         !
 ! A53   A(27,26,33)           109.5863                                         !
 ! A54   A(32,26,33)           106.4096                                         !
 ! A55   A(26,27,28)           112.3173                                         !
 ! A56   A(26,27,29)           109.6856                                         !
 ! A57   A(26,27,34)           107.8407                                         !
 ! A58   A(28,27,29)           110.9652                                         !
 ! A59   A(28,27,34)           107.9605                                         !
 ! A60   A(29,27,34)           107.9084                                         !
 ! A61   A(27,28,35)           111.9499                                         !
 ! A62   A(27,28,36)           110.804                                          !
 ! A63   A(27,28,37)           110.5496                                         !
 ! A64   A(35,28,36)           108.2029                                         !
 ! A65   A(35,28,37)           107.4078                                         !
 ! A66   A(36,28,37)           107.7621                                         !
 ! A67   A(27,29,38)           110.6995                                         !
 ! A68   A(27,29,39)           111.5754                                         !
 ! A69   A(27,29,40)           111.006                                          !
 ! A70   A(38,29,39)           107.7493                                         !
 ! A71   A(38,29,40)           107.7314                                         !
 ! A72   A(39,29,40)           107.9205                                         !
 ! A73   A(24,41,42)           118.0423                                         !
 ! A74   A(24,41,49)           115.8061                                         !
 ! A75   A(42,41,49)           116.3008                                         !
 ! A76   A(41,42,43)           108.4845                                         !
 ! A77   A(41,42,45)           111.0525                                         !
 ! A78   A(41,42,50)           107.1846                                         !
 ! A79   A(43,42,45)           114.6335                                         !
 ! A80   A(43,42,50)           106.276                                          !
 ! A81   A(45,42,50)           108.8554                                         !
 ! A82   A(42,43,44)           121.4128                                         !
 ! A83   A(42,43,55)           116.0249                                         !
 ! A84   A(44,43,55)           122.2905                                         !
 ! A85   A(42,45,46)           112.4701                                         !
 ! A86   A(42,45,51)           108.0886                                         !
 ! A87   A(42,45,52)           111.3376                                         !
 ! A88   A(46,45,51)           108.6818                                         !
 ! A89   A(46,45,52)           109.2514                                         !
 ! A90   A(51,45,52)           106.8123                                         !
 ! A91   A(45,46,47)           115.1241                                         !
 ! A92   A(45,46,48)           122.7911                                         !
 ! A93   A(47,46,48)           122.0848                                         !
 ! A94   A(46,47,53)           118.3197                                         !
 ! A95   A(46,47,54)           122.7671                                         !
 ! A96   A(53,47,54)           118.3228                                         !
 ! A97   A(43,55,56)           119.3909                                         !
 ! A98   A(43,55,68)           115.3292                                         !
 ! A99   A(56,55,68)           118.8926                                         !
 ! A100  A(55,56,57)           107.22                                           !
 ! A101  A(55,56,59)           113.3546                                         !
 ! A102  A(55,56,69)           106.1396                                         !
 ! A103  A(57,56,59)           113.1188                                         !
 ! A104  A(57,56,69)           106.7913                                         !
 ! A105  A(59,56,69)           109.7794                                         !
 ! A106  A(56,57,58)           126.3167                                         !
 ! A107  A(56,57,66)           110.2754                                         !
 ! A108  A(58,57,66)           123.3973                                         !
 ! A109  A(56,59,60)           114.5339                                         !
 ! A110  A(56,59,70)           107.4421                                         !
 ! A111  A(56,59,71)           106.9878                                         !
 ! A112  A(60,59,70)           111.031                                          !
 ! A113  A(60,59,71)           110.0286                                         !
 ! A114  A(70,59,71)           106.4212                                         !
 ! A115  A(59,60,61)           112.4894                                         !
 ! A116  A(59,60,72)           111.1837                                         !
 ! A117  A(59,60,73)           110.4182                                         !
 ! A118  A(61,60,72)           108.229                                          !
 ! A119  A(61,60,73)           108.1926                                         !
 ! A120  A(72,60,73)           106.0696                                         !
 ! A121  A(60,61,62)           108.3651                                         !
 ! A122  A(60,61,74)           111.4363                                         !
 ! A123  A(60,61,75)           109.7697                                         !
 ! A124  A(62,61,74)           109.2738                                         !
 ! A125  A(62,61,75)           109.6743                                         !
 ! A126  A(74,61,75)           108.3078                                         !
 ! A127  A(61,62,63)           125.9528                                         !
 ! A128  A(61,62,76)           115.8592                                         !
 ! A129  A(63,62,76)           117.8918                                         !
 ! A130  A(62,63,64)           120.8733                                         !
 ! A131  A(62,63,65)           119.5628                                         !
 ! A132  A(64,63,65)           119.3748                                         !
 ! A133  A(63,64,77)           117.4151                                         !
 ! A134  A(63,64,78)           116.9305                                         !
 ! A135  A(77,64,78)           112.6931                                         !
 ! A136  A(63,65,79)           118.3454                                         !
 ! A137  A(63,65,80)           118.2566                                         !
 ! A138  A(79,65,80)           115.3745                                         !
 ! A139  A(57,66,67)           110.9166                                         !
 ! D1    D(12,1,2,3)            28.9309                                         !
 ! D2    D(12,1,2,5)           -92.7731                                         !
 ! D3    D(12,1,2,13)          149.4231                                         !
 ! D4    D(21,1,2,3)           -84.7239                                         !
 ! D5    D(21,1,2,5)           153.572                                          !
 ! D6    D(21,1,2,13)           35.7683                                         !
 ! D7    D(1,2,3,4)            -15.4171                                         !
 ! D8    D(1,2,3,22)           165.3659                                         !
 ! D9    D(5,2,3,4)            106.471                                          !
 ! D10   D(5,2,3,22)           -72.746                                          !
 ! D11   D(13,2,3,4)          -136.3239                                         !
 ! D12   D(13,2,3,22)           44.4591                                         !
 ! D13   D(1,2,5,6)            -69.651                                          !
 ! D14   D(1,2,5,14)           168.1844                                         !
 ! D15   D(1,2,5,15)            51.9983                                         !
 ! D16   D(3,2,5,6)            166.9796                                         !
 ! D17   D(3,2,5,14)            44.815                                          !
 ! D18   D(3,2,5,15)           -71.3711                                         !
 ! D19   D(13,2,5,6)            49.1819                                         !
 ! D20   D(13,2,5,14)          -72.9826                                         !
 ! D21   D(13,2,5,15)          170.8312                                         !
 ! D22   D(2,3,22,23)          169.5974                                         !
 ! D23   D(2,3,22,30)           14.5638                                         !
 ! D24   D(4,3,22,23)           -9.604                                          !
 ! D25   D(4,3,22,30)         -164.6376                                         !
 ! D26   D(2,5,6,7)            -98.0051                                         !
 ! D27   D(2,5,6,8)             78.9983                                         !
 ! D28   D(14,5,6,7)            24.5493                                         !
 ! D29   D(14,5,6,8)          -158.4474                                         !
 ! D30   D(15,5,6,7)           142.8887                                         !
 ! D31   D(15,5,6,8)           -40.1079                                         !
 ! D32   D(5,6,7,9)            177.8308                                         !
 ! D33   D(5,6,7,16)            -0.5258                                         !
 ! D34   D(8,6,7,9)              0.739                                          !
 ! D35   D(8,6,7,16)          -177.6176                                         !
 ! D36   D(5,6,8,10)          -177.547                                          !
 ! D37   D(5,6,8,17)            -0.8815                                         !
 ! D38   D(7,6,8,10)            -0.5054                                         !
 ! D39   D(7,6,8,17)           176.1601                                         !
 ! D40   D(6,7,9,11)            -0.3341                                         !
 ! D41   D(6,7,9,18)          -178.7356                                         !
 ! D42   D(16,7,9,11)          178.0028                                         !
 ! D43   D(16,7,9,18)           -0.3987                                         !
 ! D44   D(6,8,10,11)           -0.1323                                         !
 ! D45   D(6,8,10,19)          178.4991                                         !
 ! D46   D(17,8,10,11)        -176.7455                                         !
 ! D47   D(17,8,10,19)           1.8859                                         !
 ! D48   D(7,9,11,10)           -0.3148                                         !
 ! D49   D(7,9,11,20)         -178.6837                                         !
 ! D50   D(18,9,11,10)         178.0829                                         !
 ! D51   D(18,9,11,20)          -0.2859                                         !
 ! D52   D(8,10,11,9)            0.5459                                         !
 ! D53   D(8,10,11,20)         178.9154                                         !
 ! D54   D(19,10,11,9)        -178.0836                                         !
 ! D55   D(19,10,11,20)          0.2859                                         !
 ! D56   D(3,22,23,24)        -151.7074                                         !
 ! D57   D(3,22,23,26)          82.9446                                         !
 ! D58   D(3,22,23,31)         -37.8314                                         !
 ! D59   D(30,22,23,24)          3.7185                                         !
 ! D60   D(30,22,23,26)       -121.6295                                         !
 ! D61   D(30,22,23,31)        117.5944                                         !
 ! D62   D(22,23,24,25)        111.2248                                         !
 ! D63   D(22,23,24,41)        -65.4909                                         !
 ! D64   D(26,23,24,25)       -125.0706                                         !
 ! D65   D(26,23,24,41)         58.2137                                         !
 ! D66   D(31,23,24,25)         -3.9461                                         !
 ! D67   D(31,23,24,41)        179.3383                                         !
 ! D68   D(22,23,26,27)        173.9089                                         !
 ! D69   D(22,23,26,32)        -63.9573                                         !
 ! D70   D(22,23,26,33)         50.558                                          !
 ! D71   D(24,23,26,27)         53.5368                                         !
 ! D72   D(24,23,26,32)        175.6706                                         !
 ! D73   D(24,23,26,33)        -69.8141                                         !
 ! D74   D(31,23,26,27)        -65.944                                          !
 ! D75   D(31,23,26,32)         56.1898                                         !
 ! D76   D(31,23,26,33)        170.7051                                         !
 ! D77   D(23,24,41,42)        153.5589                                         !
 ! D78   D(23,24,41,49)          8.9521                                         !
 ! D79   D(25,24,41,42)        -23.178                                          !
 ! D80   D(25,24,41,49)       -167.7849                                         !
 ! D81   D(23,26,27,28)         54.6954                                         !
 ! D82   D(23,26,27,29)        178.588                                          !
 ! D83   D(23,26,27,34)        -64.1391                                         !
 ! D84   D(32,26,27,28)        -65.4989                                         !
 ! D85   D(32,26,27,29)         58.3937                                         !
 ! D86   D(32,26,27,34)        175.6666                                         !
 ! D87   D(33,26,27,28)        177.7816                                         !
 ! D88   D(33,26,27,29)        -58.3258                                         !
 ! D89   D(33,26,27,34)         58.9471                                         !
 ! D90   D(26,27,28,35)        -65.3564                                         !
 ! D91   D(26,27,28,36)         55.5347                                         !
 ! D92   D(26,27,28,37)        174.9377                                         !
 ! D93   D(29,27,28,35)        171.4662                                         !
 ! D94   D(29,27,28,36)        -67.6427                                         !
 ! D95   D(29,27,28,37)         51.7603                                         !
 ! D96   D(34,27,28,35)         53.4077                                         !
 ! D97   D(34,27,28,36)        174.2988                                         !
 ! D98   D(34,27,28,37)        -66.2982                                         !
 ! D99   D(26,27,29,38)        -63.8123                                         !
 ! D100  D(26,27,29,39)         56.1785                                         !
 ! D101  D(26,27,29,40)        176.5945                                         !
 ! D102  D(28,27,29,38)         60.8671                                         !
 ! D103  D(28,27,29,39)       -179.1421                                         !
 ! D104  D(28,27,29,40)        -58.7261                                         !
 ! D105  D(34,27,29,38)        178.9572                                         !
 ! D106  D(34,27,29,39)        -61.052                                          !
 ! D107  D(34,27,29,40)         59.364                                          !
 ! D108  D(24,41,42,43)        -61.9191                                         !
 ! D109  D(24,41,42,45)        171.24                                           !
 ! D110  D(24,41,42,50)         52.4555                                         !
 ! D111  D(49,41,42,43)         82.5153                                         !
 ! D112  D(49,41,42,45)        -44.3255                                         !
 ! D113  D(49,41,42,50)       -163.11                                           !
 ! D114  D(41,42,43,44)        -14.5264                                         !
 ! D115  D(41,42,43,55)        159.6157                                         !
 ! D116  D(45,42,43,44)        110.222                                          !
 ! D117  D(45,42,43,55)        -75.6359                                         !
 ! D118  D(50,42,43,44)       -129.4957                                         !
 ! D119  D(50,42,43,55)         44.6465                                         !
 ! D120  D(41,42,45,46)       -157.51                                           !
 ! D121  D(41,42,45,51)        -37.5269                                         !
 ! D122  D(41,42,45,52)         79.4906                                         !
 ! D123  D(43,42,45,46)         79.1066                                         !
 ! D124  D(43,42,45,51)       -160.9103                                         !
 ! D125  D(43,42,45,52)        -43.8928                                         !
 ! D126  D(50,42,45,46)        -39.736                                          !
 ! D127  D(50,42,45,51)         80.2472                                         !
 ! D128  D(50,42,45,52)       -162.7353                                         !
 ! D129  D(42,43,55,56)       -148.6867                                         !
 ! D130  D(42,43,55,68)          2.9714                                         !
 ! D131  D(44,43,55,56)         25.3992                                         !
 ! D132  D(44,43,55,68)        177.0573                                         !
 ! D133  D(42,45,46,47)        172.9613                                         !
 ! D134  D(42,45,46,48)         -7.147                                          !
 ! D135  D(51,45,46,47)         53.3222                                         !
 ! D136  D(51,45,46,48)       -126.7861                                         !
 ! D137  D(52,45,46,47)        -62.8772                                         !
 ! D138  D(52,45,46,48)        117.0145                                         !
 ! D139  D(45,46,47,53)       -177.2364                                         !
 ! D140  D(45,46,47,54)         -6.2024                                         !
 ! D141  D(48,46,47,53)          2.8711                                         !
 ! D142  D(48,46,47,54)        173.9051                                         !
 ! D143  D(43,55,56,57)         47.249                                          !
 ! D144  D(43,55,56,59)        -78.3127                                         !
 ! D145  D(43,55,56,69)        161.1115                                         !
 ! D146  D(68,55,56,57)       -103.4041                                         !
 ! D147  D(68,55,56,59)        131.0343                                         !
 ! D148  D(68,55,56,69)         10.4584                                         !
 ! D149  D(55,56,57,58)       -131.098                                          !
 ! D150  D(55,56,57,66)         47.7423                                         !
 ! D151  D(59,56,57,58)         -5.3951                                         !
 ! D152  D(59,56,57,66)        173.4452                                         !
 ! D153  D(69,56,57,58)        115.4795                                         !
 ! D154  D(69,56,57,66)        -65.6802                                         !
 ! D155  D(55,56,59,60)       -166.3582                                         !
 ! D156  D(55,56,59,70)         69.7995                                         !
 ! D157  D(55,56,59,71)        -44.1433                                         !
 ! D158  D(57,56,59,60)         71.3005                                         !
 ! D159  D(57,56,59,70)        -52.5419                                         !
 ! D160  D(57,56,59,71)       -166.4846                                         !
 ! D161  D(69,56,59,60)        -47.8652                                         !
 ! D162  D(69,56,59,70)       -171.7075                                         !
 ! D163  D(69,56,59,71)         74.3498                                         !
 ! D164  D(56,57,66,67)       -162.4654                                         !
 ! D165  D(58,57,66,67)         16.4154                                         !
 ! D166  D(56,59,60,61)       -133.3105                                         !
 ! D167  D(56,59,60,72)        -11.7403                                         !
 ! D168  D(56,59,60,73)        105.7136                                         !
 ! D169  D(70,59,60,61)        -11.4064                                         !
 ! D170  D(70,59,60,72)        110.1638                                         !
 ! D171  D(70,59,60,73)       -132.3823                                         !
 ! D172  D(71,59,60,61)        106.1438                                         !
 ! D173  D(71,59,60,72)       -132.286                                          !
 ! D174  D(71,59,60,73)        -14.8322                                         !
 ! D175  D(59,60,61,62)         67.181                                          !
 ! D176  D(59,60,61,74)       -172.5548                                         !
 ! D177  D(59,60,61,75)        -52.5732                                         !
 ! D178  D(72,60,61,62)        -56.0568                                         !
 ! D179  D(72,60,61,74)         64.2074                                         !
 ! D180  D(72,60,61,75)       -175.811                                          !
 ! D181  D(73,60,61,62)       -170.5761                                         !
 ! D182  D(73,60,61,74)        -50.312                                          !
 ! D183  D(73,60,61,75)         69.6697                                         !
 ! D184  D(60,61,62,63)       -178.511                                          !
 ! D185  D(60,61,62,76)         -4.9276                                         !
 ! D186  D(74,61,62,63)         59.886                                          !
 ! D187  D(74,61,62,76)       -126.5307                                         !
 ! D188  D(75,61,62,63)        -58.697                                          !
 ! D189  D(75,61,62,76)        114.8863                                         !
 ! D190  D(61,62,63,64)          3.8317                                         !
 ! D191  D(61,62,63,65)       -171.1403                                         !
 ! D192  D(76,62,63,64)       -169.6347                                         !
 ! D193  D(76,62,63,65)         15.3933                                         !
 ! D194  D(62,63,64,77)        174.7777                                         !
 ! D195  D(62,63,64,78)         36.1042                                         !
 ! D196  D(65,63,64,77)        -10.2411                                         !
 ! D197  D(65,63,64,78)       -148.9145                                         !
 ! D198  D(62,63,65,79)       -150.8552                                         !
 ! D199  D(62,63,65,80)         -3.4256                                         !
 ! D200  D(64,63,65,79)         34.0969                                         !
 ! D201  D(64,63,65,80)       -178.4735                                         !
 --------------------------------------------------------------------------------
 Symmetry turned off by external request.
 Stoichiometry    C25H41N8O6(1+)
 Framework group  C1[X(C25H41N8O6)]
 Deg. of freedom   234
 Full point group                 C1      NOp   1
                          Input orientation:                          
 ---------------------------------------------------------------------
 Center     Atomic      Atomic             Coordinates (Angstroms)
 Number     Number       Type             X           Y           Z
 ---------------------------------------------------------------------
      1          7           0       -1.922259   15.466187   -5.077728
      2          6           0       -2.143507   14.078544   -5.466508
      3          6           0       -0.927033   13.181150   -5.142217
      4          8           0        0.172263   13.658523   -4.882495
      5          6           0       -2.447849   14.003652   -6.991311
      6          6           0       -3.797164   14.596598   -7.320174
      7          6           0       -4.908500   13.756792   -7.480909
      8          6           0       -3.986538   15.984886   -7.410426
      9          6           0       -6.177197   14.284364   -7.741132
     10          6           0       -5.253367   16.516433   -7.665539
     11          6           0       -6.353752   15.668870   -7.837839
     12          1           0       -0.916232   15.636905   -5.138718
     13          1           0       -3.018502   13.687596   -4.933181
     14          1           0       -2.408517   12.964141   -7.336433
     15          1           0       -1.642135   14.546411   -7.502316
     16          1           0       -4.775743   12.682690   -7.373283
     17          1           0       -3.142320   16.641752   -7.224381
     18          1           0       -7.030248   13.617726   -7.842189
     19          1           0       -5.387688   17.594299   -7.708110
     20          1           0       -7.341503   16.084111   -8.018697
     21          1           0       -2.154660   15.589887   -4.094425
     22          7           0       -1.170900   11.841099   -5.185291
     23          6           0       -0.061590   10.873419   -5.123682
     24          6           0       -0.545317    9.638102   -5.880661
     25          8           0       -0.071840    9.291870   -6.955438
     26          6           0        0.383241   10.601891   -3.675721
     27          6           0        1.439071    9.490618   -3.524149
     28          6           0        2.681593    9.743807   -4.392406
     29          6           0        1.823462    9.340761   -2.045628
     30          1           0       -2.027306   11.522820   -5.632661
     31          1           0        0.778747   11.276421   -5.692796
     32          1           0        0.774168   11.549064   -3.285784
     33          1           0       -0.499594   10.356742   -3.068324
     34          1           0        0.982348    8.544324   -3.852790
     35          1           0        2.448649    9.704307   -5.462022
     36          1           0        3.117077   10.726841   -4.172465
     37          1           0        3.448830    8.986830   -4.195877
     38          1           0        2.301772   10.255900   -1.674571
     39          1           0        0.945274    9.144551   -1.418458
     40          1           0        2.529381    8.514777   -1.905140
     41          7           0       -1.608371    8.976317   -5.297560
     42          6           0       -2.487133    8.206357   -6.157716
     43          6           0       -3.153559    9.175108   -7.175794
     44          8           0       -3.123617   10.401211   -7.013757
     45          6           0       -3.473572    7.369183   -5.330884
     46          6           0       -4.021977    6.169990   -6.111673
     47          7           0       -4.779463    5.311909   -5.389525
     48          8           0       -3.796096    5.994271   -7.308886
     49          1           0       -2.046506    9.448564   -4.515375
     50          1           0       -1.856823    7.532915   -6.743317
     51          1           0       -2.945593    6.998918   -4.443312
     52          1           0       -4.311628    7.980194   -4.970065
     53          1           0       -5.130996    4.480868   -5.846504
     54          1           0       -4.898198    5.395725   -4.390537
     55          7           0       -3.653182    8.605481   -8.298903
     56          6           0       -3.657581    9.366369   -9.549481
     57          6           0       -2.251384    9.993233   -9.709414
     58          8           0       -2.005059   11.161218   -9.974766
     59          6           0       -4.790142   10.398756   -9.629452
     60          6           0       -5.031326   10.981151  -11.045463
     61          6           0       -5.167609   12.507371  -11.036115
     62          7           0       -3.872003   13.084372  -10.667280
     63          6           0       -3.607409   14.371564  -10.527664
     64          7           0       -4.581642   15.295388  -10.650346
     65          7           0       -2.328065   14.775195  -10.360001
     66          8           0       -1.313442    9.080190   -9.491705
     67          1           0       -0.449581    9.502385   -9.315859
     68          1           0       -3.582920    7.587892   -8.340898
     69          1           0       -3.769397    8.629947  -10.353873
     70          1           0       -4.562035   11.190810   -8.913718
     71          1           0       -5.697320    9.906615   -9.267306
     72          1           0       -4.215105   10.713508  -11.728710
     73          1           0       -5.941928   10.559536  -11.481602
     74          1           0       -5.466798   12.888737  -12.018829
     75          1           0       -5.928773   12.808089  -10.302781
     76          1           0       -3.139130   12.411467  -10.406555
     77          1           0       -4.338678   16.257211  -10.453970
     78          1           0       -5.499393   15.044328  -10.299776
     79          1           0       -2.156484   15.620005   -9.831137
     80          1           0       -1.607000   14.067530  -10.293254
 ---------------------------------------------------------------------
 Rotational constants (GHZ):           0.1109358           0.0716716           0.0533647
 Standard basis: 6-31G(d) (6D, 7F)
   667 basis functions,  1256 primitive gaussians,   667 cartesian basis functions
   147 alpha electrons      147 beta electrons
       nuclear repulsion energy      4970.6240396657 Hartrees.
 NAtoms=   80 NActive=   80 NUniq=   80 SFac= 1.00D+00 NAtFMM=   60 NAOKFM=T Big=T
 Integral buffers will be    131072 words long.
 Raffenetti 2 integral format.
 Two-electron integral symmetry is turned off.
 Nuclear repulsion after empirical dispersion term =     4970.5070409274 Hartrees.
 One-electron integrals computed using PRISM.
 NBasis=   667 RedAO= T EigKep=  4.62D-04  NBF=   667
 NBsUse=   667 1.00D-06 EigRej= -1.00D+00 NBFU=   667
 Initial guess from the checkpoint file:  "conf-950.chk"
 B after Tr=     0.000000    0.000000    0.000000
         Rot=    1.000000    0.000000    0.000000    0.000000 Ang=   0.00 deg.
 Requested convergence on RMS density matrix=1.00D-08 within 128 cycles.
 Requested convergence on MAX density matrix=1.00D-06.
 Requested convergence on             energy=1.00D-06.
 No special actions if energy rises.
 SCF Done:  E(RB3LYP) =  -1866.73746356     A.U. after    2 cycles
            NFock=  2  Conv=0.88D-08     -V/T= 2.0094

 **********************************************************************

            Population analysis using the SCF Density.

 **********************************************************************

 Alpha  occ. eigenvalues --  -19.30362 -19.26687 -19.23483 -19.22379 -19.21376
 Alpha  occ. eigenvalues --  -19.19369 -14.50267 -14.49890 -14.49452 -14.46048
 Alpha  occ. eigenvalues --  -14.45909 -14.45491 -14.43493 -14.38959 -10.46268
 Alpha  occ. eigenvalues --  -10.44280 -10.40091 -10.39655 -10.38008 -10.35910
 Alpha  occ. eigenvalues --  -10.35516 -10.35012 -10.33856 -10.31220 -10.30802
 Alpha  occ. eigenvalues --  -10.30728 -10.30689 -10.29796 -10.29351 -10.29120
 Alpha  occ. eigenvalues --  -10.28882 -10.28801 -10.28705 -10.28319 -10.28270
 Alpha  occ. eigenvalues --  -10.25452 -10.25378 -10.23135 -10.22974  -1.22242
 Alpha  occ. eigenvalues --   -1.15156  -1.15094  -1.13992  -1.13431  -1.12933
 Alpha  occ. eigenvalues --   -1.11091  -1.04486  -1.03371  -1.03279  -1.02495
 Alpha  occ. eigenvalues --   -1.00906  -0.99891  -0.96896  -0.94946  -0.91793
 Alpha  occ. eigenvalues --   -0.89235  -0.87687  -0.87017  -0.86310  -0.84139
 Alpha  occ. eigenvalues --   -0.82645  -0.80572  -0.79884  -0.77689  -0.77229
 Alpha  occ. eigenvalues --   -0.74273  -0.74049  -0.73704  -0.72466  -0.71688
 Alpha  occ. eigenvalues --   -0.70858  -0.70197  -0.69427  -0.68531  -0.67826
 Alpha  occ. eigenvalues --   -0.67566  -0.66920  -0.65835  -0.64481  -0.63969
 Alpha  occ. eigenvalues --   -0.63833  -0.63413  -0.62583  -0.62006  -0.61224
 Alpha  occ. eigenvalues --   -0.60895  -0.60248  -0.59728  -0.59039  -0.58493
 Alpha  occ. eigenvalues --   -0.58347  -0.57009  -0.56347  -0.55856  -0.55472
 Alpha  occ. eigenvalues --   -0.55103  -0.54907  -0.54529  -0.54060  -0.53563
 Alpha  occ. eigenvalues --   -0.53438  -0.53001  -0.52332  -0.51839  -0.51597
 Alpha  occ. eigenvalues --   -0.51276  -0.50900  -0.50872  -0.50520  -0.50053
 Alpha  occ. eigenvalues --   -0.49526  -0.48896  -0.48672  -0.48164  -0.47939
 Alpha  occ. eigenvalues --   -0.47277  -0.46795  -0.46464  -0.46288  -0.46079
 Alpha  occ. eigenvalues --   -0.45696  -0.45654  -0.45364  -0.44595  -0.43889
 Alpha  occ. eigenvalues --   -0.43520  -0.43304  -0.43215  -0.43128  -0.42208
 Alpha  occ. eigenvalues --   -0.41446  -0.40937  -0.39454  -0.39364  -0.39001
 Alpha  occ. eigenvalues --   -0.38596  -0.37641  -0.37218  -0.36368  -0.36358
 Alpha  occ. eigenvalues --   -0.35662  -0.35145  -0.34760  -0.34536  -0.33322
 Alpha  occ. eigenvalues --   -0.32596  -0.31408
 Alpha virt. eigenvalues --   -0.11948  -0.11551  -0.10547  -0.10370  -0.09583
 Alpha virt. eigenvalues --   -0.08177  -0.07555  -0.05713  -0.04963  -0.03003
 Alpha virt. eigenvalues --   -0.01880  -0.01642  -0.01278  -0.01115  -0.00639
 Alpha virt. eigenvalues --   -0.00364   0.00706   0.01394   0.01666   0.01846
 Alpha virt. eigenvalues --    0.02034   0.02398   0.03111   0.03893   0.04372
 Alpha virt. eigenvalues --    0.04564   0.04738   0.05087   0.05362   0.05762
 Alpha virt. eigenvalues --    0.06026   0.06245   0.06749   0.07393   0.07647
 Alpha virt. eigenvalues --    0.07723   0.08171   0.08487   0.09074   0.09204
 Alpha virt. eigenvalues --    0.09430   0.09828   0.10197   0.10581   0.10921
 Alpha virt. eigenvalues --    0.11239   0.11395   0.11618   0.12053   0.12350
 Alpha virt. eigenvalues --    0.12488   0.12576   0.13345   0.13421   0.13844
 Alpha virt. eigenvalues --    0.14467   0.14986   0.15530   0.15605   0.15824
 Alpha virt. eigenvalues --    0.16337   0.16518   0.17160   0.17760   0.18513
 Alpha virt. eigenvalues --    0.18625   0.19048   0.19852   0.20489   0.21193
 Alpha virt. eigenvalues --    0.21631   0.22295   0.22735   0.23236   0.23969
 Alpha virt. eigenvalues --    0.24128   0.25003   0.25591   0.26023   0.27070
 Alpha virt. eigenvalues --    0.27887   0.29079   0.29898   0.30968   0.31407
 Alpha virt. eigenvalues --    0.32486   0.33374   0.34418   0.37148   0.37925
 Alpha virt. eigenvalues --    0.38543   0.39303   0.40438   0.41363   0.42118
 Alpha virt. eigenvalues --    0.42359   0.42711   0.43372   0.43506   0.43780
 Alpha virt. eigenvalues --    0.44278   0.44820   0.44991   0.45176   0.45789
 Alpha virt. eigenvalues --    0.45984   0.46190   0.46627   0.47282   0.47559
 Alpha virt. eigenvalues --    0.48460   0.49065   0.49227   0.49446   0.49798
 Alpha virt. eigenvalues --    0.50274   0.50601   0.51015   0.51339   0.51798
 Alpha virt. eigenvalues --    0.52489   0.52814   0.53155   0.53783   0.53846
 Alpha virt. eigenvalues --    0.54402   0.54904   0.55320   0.55406   0.55680
 Alpha virt. eigenvalues --    0.56161   0.56494   0.57139   0.57587   0.58026
 Alpha virt. eigenvalues --    0.58644   0.58845   0.59072   0.59427   0.59702
 Alpha virt. eigenvalues --    0.60308   0.60357   0.61465   0.62252   0.62713
 Alpha virt. eigenvalues --    0.62908   0.63610   0.64352   0.64861   0.65232
 Alpha virt. eigenvalues --    0.65465   0.66233   0.67130   0.67313   0.67737
 Alpha virt. eigenvalues --    0.68626   0.68645   0.68982   0.70068   0.70721
 Alpha virt. eigenvalues --    0.71016   0.71728   0.72640   0.72880   0.73509
 Alpha virt. eigenvalues --    0.73902   0.74344   0.74629   0.74801   0.74999
 Alpha virt. eigenvalues --    0.75216   0.75423   0.75701   0.75897   0.76574
 Alpha virt. eigenvalues --    0.76887   0.77450   0.77559   0.77716   0.77965
 Alpha virt. eigenvalues --    0.78305   0.78602   0.78752   0.79300   0.79615
 Alpha virt. eigenvalues --    0.79870   0.80714   0.81076   0.81591   0.82311
 Alpha virt. eigenvalues --    0.82362   0.82946   0.83017   0.83187   0.83631
 Alpha virt. eigenvalues --    0.84296   0.84711   0.84858   0.85110   0.85372
 Alpha virt. eigenvalues --    0.85707   0.86051   0.86246   0.86936   0.87266
 Alpha virt. eigenvalues --    0.87608   0.88013   0.88176   0.88557   0.88971
 Alpha virt. eigenvalues --    0.89600   0.89798   0.90265   0.91287   0.91414
 Alpha virt. eigenvalues --    0.92026   0.93179   0.93666   0.93747   0.94766
 Alpha virt. eigenvalues --    0.95075   0.96391   0.96781   0.97061   0.97500
 Alpha virt. eigenvalues --    0.98089   0.98921   0.99334   0.99677   1.00716
 Alpha virt. eigenvalues --    1.01386   1.02349   1.03040   1.03201   1.03879
 Alpha virt. eigenvalues --    1.04191   1.05718   1.06140   1.07320   1.09148
 Alpha virt. eigenvalues --    1.09674   1.10213   1.12347   1.12945   1.13583
 Alpha virt. eigenvalues --    1.14119   1.14519   1.15541   1.16331   1.16656
 Alpha virt. eigenvalues --    1.17655   1.18183   1.18283   1.19133   1.19825
 Alpha virt. eigenvalues --    1.20688   1.21233   1.22397   1.23229   1.23838
 Alpha virt. eigenvalues --    1.24630   1.25206   1.25802   1.27948   1.28934
 Alpha virt. eigenvalues --    1.29551   1.29988   1.31883   1.32708   1.33380
 Alpha virt. eigenvalues --    1.33778   1.34400   1.35031   1.35498   1.36471
 Alpha virt. eigenvalues --    1.37082   1.37907   1.38702   1.38990   1.39438
 Alpha virt. eigenvalues --    1.40006   1.40555   1.41356   1.41614   1.42711
 Alpha virt. eigenvalues --    1.43033   1.44102   1.44589   1.45132   1.46232
 Alpha virt. eigenvalues --    1.46930   1.48117   1.49042   1.49993   1.52398
 Alpha virt. eigenvalues --    1.53530   1.53955   1.55588   1.55968   1.56377
 Alpha virt. eigenvalues --    1.57249   1.58149   1.58693   1.59271   1.60588
 Alpha virt. eigenvalues --    1.61237   1.62356   1.63823   1.63971   1.65433
 Alpha virt. eigenvalues --    1.65983   1.66324   1.67514   1.67944   1.68216
 Alpha virt. eigenvalues --    1.68793   1.69093   1.69960   1.70842   1.71010
 Alpha virt. eigenvalues --    1.71158   1.71940   1.72935   1.73340   1.73607
 Alpha virt. eigenvalues --    1.74000   1.74386   1.74943   1.75860   1.76354
 Alpha virt. eigenvalues --    1.76650   1.76965   1.77214   1.78097   1.78621
 Alpha virt. eigenvalues --    1.79941   1.80589   1.81112   1.81500   1.82592
 Alpha virt. eigenvalues --    1.82900   1.83136   1.83728   1.84473   1.84944
 Alpha virt. eigenvalues --    1.85138   1.86158   1.86745   1.86870   1.87749
 Alpha virt. eigenvalues --    1.88154   1.88533   1.88887   1.89306   1.90629
 Alpha virt. eigenvalues --    1.91009   1.91582   1.92425   1.93119   1.93690
 Alpha virt. eigenvalues --    1.93973   1.94169   1.94684   1.95789   1.96186
 Alpha virt. eigenvalues --    1.96549   1.97064   1.97743   1.97889   1.98690
 Alpha virt. eigenvalues --    1.99396   2.00506   2.00983   2.02303   2.03014
 Alpha virt. eigenvalues --    2.04285   2.04765   2.05430   2.06010   2.06719
 Alpha virt. eigenvalues --    2.07297   2.09046   2.09301   2.09431   2.10291
 Alpha virt. eigenvalues --    2.10855   2.11118   2.12108   2.12754   2.13320
 Alpha virt. eigenvalues --    2.14238   2.15786   2.16236   2.18317   2.18813
 Alpha virt. eigenvalues --    2.19513   2.19563   2.20135   2.20664   2.22460
 Alpha virt. eigenvalues --    2.22766   2.24314   2.24902   2.25443   2.25467
 Alpha virt. eigenvalues --    2.26601   2.27515   2.28731   2.29058   2.30728
 Alpha virt. eigenvalues --    2.31254   2.32294   2.32635   2.33391   2.34279
 Alpha virt. eigenvalues --    2.34636   2.35574   2.36395   2.37420   2.39090
 Alpha virt. eigenvalues --    2.39231   2.41104   2.41701   2.42615   2.43514
 Alpha virt. eigenvalues --    2.44237   2.44941   2.45435   2.45862   2.47172
 Alpha virt. eigenvalues --    2.47522   2.48013   2.48692   2.49946   2.50471
 Alpha virt. eigenvalues --    2.51819   2.51928   2.52297   2.54602   2.54965
 Alpha virt. eigenvalues --    2.55726   2.56671   2.57278   2.58023   2.58396
 Alpha virt. eigenvalues --    2.58761   2.60733   2.61949   2.63330   2.63976
 Alpha virt. eigenvalues --    2.64710   2.65281   2.66343   2.66539   2.67043
 Alpha virt. eigenvalues --    2.67791   2.68691   2.72610   2.74087   2.75500
 Alpha virt. eigenvalues --    2.76121   2.79997   2.80436   2.83645   2.84386
 Alpha virt. eigenvalues --    2.86208   2.87715   2.87972   2.91284   2.92259
 Alpha virt. eigenvalues --    2.92728   2.95203   2.96313   2.98596   2.98825
 Alpha virt. eigenvalues --    2.99867   3.00351   3.05415   3.06068   3.09629
 Alpha virt. eigenvalues --    3.30593   3.68358   3.71289   3.75311   3.76647
 Alpha virt. eigenvalues --    3.78096   3.87590   3.94574   3.96777   3.96893
 Alpha virt. eigenvalues --    3.99663   4.01667   4.04985   4.05322   4.06500
 Alpha virt. eigenvalues --    4.10208   4.10783   4.11661   4.14164   4.18131
 Alpha virt. eigenvalues --    4.21535   4.22546   4.23220   4.23587   4.24620
 Alpha virt. eigenvalues --    4.26405   4.32368   4.34328   4.36167   4.38025
 Alpha virt. eigenvalues --    4.39892   4.44308   4.44843   4.48560   4.52992
 Alpha virt. eigenvalues --    4.54078   4.56418   4.57641   4.63020   4.63717
          Condensed to atoms (all electrons):
 Mulliken charges:
               1
     1  N   -0.712128
     2  C   -0.082223
     3  C    0.592202
     4  O   -0.514923
     5  C   -0.362085
     6  C    0.151512
     7  C   -0.207902
     8  C   -0.187315
     9  C   -0.161297
    10  C   -0.149867
    11  C   -0.158565
    12  H    0.323809
    13  H    0.154595
    14  H    0.169305
    15  H    0.128796
    16  H    0.165059
    17  H    0.162018
    18  H    0.146026
    19  H    0.155009
    20  H    0.154881
    21  H    0.315389
    22  N   -0.661034
    23  C   -0.036641
    24  C    0.592507
    25  O   -0.532354
    26  C   -0.262073
    27  C   -0.082678
    28  C   -0.459344
    29  C   -0.443850
    30  H    0.368650
    31  H    0.191211
    32  H    0.178196
    33  H    0.117783
    34  H    0.127730
    35  H    0.155473
    36  H    0.152705
    37  H    0.152911
    38  H    0.151712
    39  H    0.137600
    40  H    0.152609
    41  N   -0.596061
    42  C   -0.046454
    43  C    0.601174
    44  O   -0.547773
    45  C   -0.413612
    46  C    0.631873
    47  N   -0.740201
    48  O   -0.521360
    49  H    0.335642
    50  H    0.223380
    51  H    0.199478
    52  H    0.188668
    53  H    0.365715
    54  H    0.355869
    55  N   -0.595754
    56  C   -0.046689
    57  C    0.618457
    58  O   -0.512742
    59  C   -0.296184
    60  C   -0.320968
    61  C   -0.145655
    62  N   -0.626904
    63  C    0.762439
    64  N   -0.719777
    65  N   -0.745715
    66  O   -0.530772
    67  H    0.448723
    68  H    0.394784
    69  H    0.197490
    70  H    0.190601
    71  H    0.174006
    72  H    0.169631
    73  H    0.181281
    74  H    0.191806
    75  H    0.170031
    76  H    0.429346
    77  H    0.364271
    78  H    0.375496
    79  H    0.369957
    80  H    0.383092
 Sum of Mulliken charges =   1.00000
 Mulliken charges with hydrogens summed into heavy atoms:
               1
     1  N   -0.072930
     2  C    0.072372
     3  C    0.592202
     4  O   -0.514923
     5  C   -0.063984
     6  C    0.151512
     7  C   -0.042842
     8  C   -0.025297
     9  C   -0.015270
    10  C    0.005142
    11  C   -0.003684
    22  N   -0.292384
    23  C    0.154570
    24  C    0.592507
    25  O   -0.532354
    26  C    0.033906
    27  C    0.045052
    28  C    0.001746
    29  C   -0.001929
    41  N   -0.260419
    42  C    0.176925
    43  C    0.601174
    44  O   -0.547773
    45  C   -0.025466
    46  C    0.631873
    47  N   -0.018617
    48  O   -0.521360
    55  N   -0.200970
    56  C    0.150801
    57  C    0.618457
    58  O   -0.512742
    59  C    0.068423
    60  C    0.029944
    61  C    0.216182
    62  N   -0.197557
    63  C    0.762439
    64  N    0.019990
    65  N    0.007334
    66  O   -0.082048
 Electronic spatial extent (au):  <R**2>=         216656.1700
 Charge=              1.0000 electrons
 Dipole moment (field-independent basis, Debye):
    X=            -21.3782    Y=             55.2534    Z=            -39.3063  Tot=             71.0982
 Quadrupole moment (field-independent basis, Debye-Ang):
   XX=           -123.3680   YY=            490.0264   ZZ=            141.9759
   XY=           -243.0231   XZ=            176.0157   YZ=           -498.6718
 Traceless Quadrupole moment (field-independent basis, Debye-Ang):
   XX=           -292.9128   YY=            320.4817   ZZ=            -27.5689
   XY=           -243.0231   XZ=            176.0157   YZ=           -498.6718
 Octapole moment (field-independent basis, Debye-Ang**2):
  XXX=           1210.3926  YYY=           2315.5879  ZZZ=           1184.5354  XYY=          -2575.7870
  XXY=          -1415.6261  XXZ=            746.8986  XZZ=          -1037.9158  YZZ=           2297.0998
  YYZ=          -5194.4651  XYZ=           2181.1010
 Hexadecapole moment (field-independent basis, Debye-Ang**3):
 XXXX=         -13194.3807 YYYY=         -39626.1888 ZZZZ=         -40095.1652 XXXY=          14733.9894
 XXXZ=         -10177.4871 YYYX=         -23391.6470 YYYZ=         -41332.8295 ZZZX=            984.6362
 ZZZY=           7683.5451 XXYY=         -18962.4963 XXZZ=          -7470.7338 YYZZ=          23366.2425
 XXYZ=           8101.4611 YYXZ=          24524.4191 ZZXY=         -13925.1330
 N-N= 4.970507040927D+03 E-N=-1.425970342941D+04  KE= 1.849298570804D+03
 Unable to Open any file for archive entry.
 1\1\GINC-LAC-309\SP\RB3LYP\6-31G(d)\C25H41N8O6(1+)\KENGMITH\11-Jun-202
 2\0\\# B3LYP/6-31G* empiricaldispersion=gd3 guess=read geom=check nosy
 mm integral(ultrafinegrid)\\Candidate Structure: Conf:950 Charge calc 
 in gas phase\\1,1\N,0,-1.9222590333,15.4661874627,-5.0777276714\C,0,-2
 .1435073233,14.0785442072,-5.4665078068\C,0,-0.9270329575,13.181150048
 9,-5.1422171841\O,0,0.1722627805,13.6585228176,-4.882494691\C,0,-2.447
 8491774,14.0036519123,-6.9913114983\C,0,-3.7971642382,14.5965982525,-7
 .3201737824\C,0,-4.9084998436,13.7567922355,-7.4809090764\C,0,-3.98653
 80626,15.9848862357,-7.4104260265\C,0,-6.1771974304,14.2843636502,-7.7
 411318485\C,0,-5.2533670831,16.5164332925,-7.665539156\C,0,-6.35375223
 22,15.6688697377,-7.8378389432\H,0,-0.9162324523,15.6369046177,-5.1387
 178075\H,0,-3.0185022622,13.6875961377,-4.9331807106\H,0,-2.4085167094
 ,12.9641411527,-7.3364333308\H,0,-1.6421351199,14.5464113767,-7.502315
 633\H,0,-4.7757434236,12.682690216,-7.3732831344\H,0,-3.1423202032,16.
 6417524729,-7.2243807457\H,0,-7.0302484165,13.6177256983,-7.8421890505
 \H,0,-5.3876883661,17.5942986424,-7.7081101469\H,0,-7.3415025309,16.08
 41106067,-8.0186971592\H,0,-2.1546603529,15.5898869669,-4.09442485\N,0
 ,-1.1708999473,11.8410987111,-5.1852911344\C,0,-0.0615904685,10.873418
 9116,-5.1236822034\C,0,-0.5453174081,9.6381015715,-5.8806614696\O,0,-0
 .0718401582,9.2918695257,-6.955437871\C,0,0.383241184,10.6018911011,-3
 .6757211066\C,0,1.4390713759,9.4906183882,-3.5241494192\C,0,2.68159348
 31,9.7438071323,-4.3924061886\C,0,1.823461667,9.3407612895,-2.04562773
 97\H,0,-2.027305509,11.5228198944,-5.6326613036\H,0,0.7787474123,11.27
 64208094,-5.6927961153\H,0,0.7741679049,11.5490643962,-3.2857838695\H,
 0,-0.4995942233,10.35674231,-3.0683243968\H,0,0.9823483647,8.544324136
 4,-3.8527904459\H,0,2.4486488467,9.7043069735,-5.462022351\H,0,3.11707
 72343,10.7268408709,-4.1724647642\H,0,3.4488303538,8.9868300444,-4.195
 8766106\H,0,2.3017723967,10.2558998494,-1.6745709014\H,0,0.9452740081,
 9.1445512494,-1.4184583161\H,0,2.5293808529,8.5147771652,-1.9051403548
 \N,0,-1.6083712889,8.9763174307,-5.2975600306\C,0,-2.4871331518,8.2063
 567405,-6.1577158659\C,0,-3.1535593615,9.1751084051,-7.1757941022\O,0,
 -3.1236173567,10.4012113528,-7.0137565015\C,0,-3.4735724537,7.36918318
 37,-5.3308843013\C,0,-4.0219766951,6.1699895379,-6.1116732645\N,0,-4.7
 794630398,5.3119087575,-5.389525192\O,0,-3.7960956871,5.994271182,-7.3
 088857164\H,0,-2.0465059323,9.4485643362,-4.5153750141\H,0,-1.85682275
 75,7.5329152374,-6.7433165067\H,0,-2.9455925941,6.9989175156,-4.443311
 6328\H,0,-4.3116282985,7.9801940613,-4.9700646294\H,0,-5.1309964609,4.
 480867845,-5.8465043081\H,0,-4.8981983947,5.3957254081,-4.390537224\N,
 0,-3.6531821653,8.6054805291,-8.2989034922\C,0,-3.6575809692,9.3663694
 984,-9.5494808707\C,0,-2.2513842312,9.9932327588,-9.7094137774\O,0,-2.
 0050588718,11.1612181952,-9.9747661323\C,0,-4.7901418222,10.3987562603
 ,-9.6294523562\C,0,-5.0313257946,10.9811505199,-11.0454633257\C,0,-5.1
 676094548,12.5073713104,-11.0361151854\N,0,-3.8720029358,13.0843719056
 ,-10.667280428\C,0,-3.607408931,14.3715638614,-10.5276635549\N,0,-4.58
 16415776,15.2953875944,-10.6503459596\N,0,-2.3280646843,14.7751947979,
 -10.3600011728\O,0,-1.3134422011,9.080189835,-9.4917054498\H,0,-0.4495
 810706,9.5023846649,-9.3158589289\H,0,-3.5829197687,7.5878922539,-8.34
 08982879\H,0,-3.769396635,8.629947104,-10.3538726031\H,0,-4.5620352111
 ,11.1908104615,-8.9137182104\H,0,-5.6973197453,9.906615078,-9.26730620
 03\H,0,-4.2151052691,10.7135078219,-11.7287096167\H,0,-5.9419277999,10
 .5595358071,-11.481602013\H,0,-5.466797992,12.8887374518,-12.018829065
 7\H,0,-5.9287725843,12.808089316,-10.3027814322\H,0,-3.139130285,12.41
 14674019,-10.4065545723\H,0,-4.3386778509,16.2572106682,-10.4539704591
 \H,0,-5.4993933063,15.0443283084,-10.299776353\H,0,-2.15648367,15.6200
 047845,-9.8311372457\H,0,-1.6069995121,14.0675297568,-10.2932543325\\V
 ersion=ES64L-G16RevC.01\HF=-1866.7374636\RMSD=8.833e-09\Dipole=-3.5643
 484,0.338733,-1.9044794\Quadrupole=-217.7734875,238.2702824,-20.496794
 9,-180.6816881,130.8633727,-370.7502394\PG=C01 [X(C25H41N8O6)]\\@
 The archive entry for this job was punched.


 HAPPINESS IS NOT HAVING WHAT YOU WANT --
 HAPPINESS IS WANTING WHAT YOU HAVE!

              -- FROM MRS. SEVERN'S DESK
 Job cpu time:       0 days  0 hours  3 minutes 57.1 seconds.
 Elapsed time:       0 days  0 hours  1 minutes  0.6 seconds.
 File lengths (MBytes):  RWF=    344 Int=      0 D2E=      0 Chk=     48 Scr=     16
 Normal termination of Gaussian 16 at Sat Jun 11 21:07:24 2022.
