 Entering Gaussian System, Link 0=/opt/software/Gaussian/g16-AVX-C.01/g16/g16
 Input=charge-conf-112.com
 Output=charge-conf-112.log
 Initial command:
 /opt/software/Gaussian/g16-AVX-C.01/g16/l1.exe "/mnt/gs18/scratch/users/kengmith/Gau-34973.inp" -scrdir="/mnt/gs18/scratch/users/kengmith/"
 Entering Link 1 = /opt/software/Gaussian/g16-AVX-C.01/g16/l1.exe PID=     35001.
  
 Copyright (c) 1988-2019, Gaussian, Inc.  All Rights Reserved.
  
 This is part of the Gaussian(R) 16 program.  It is based on
 the Gaussian(R) 09 system (copyright 2009, Gaussian, Inc.),
 the Gaussian(R) 03 system (copyright 2003, Gaussian, Inc.),
 the Gaussian(R) 98 system (copyright 1998, Gaussian, Inc.),
 the Gaussian(R) 94 system (copyright 1995, Gaussian, Inc.),
 the Gaussian 92(TM) system (copyright 1992, Gaussian, Inc.),
 the Gaussian 90(TM) system (copyright 1990, Gaussian, Inc.),
 the Gaussian 88(TM) system (copyright 1988, Gaussian, Inc.),
 the Gaussian 86(TM) system (copyright 1986, Carnegie Mellon
 University), and the Gaussian 82(TM) system (copyright 1983,
 Carnegie Mellon University). Gaussian is a federally registered
 trademark of Gaussian, Inc.
  
 This software contains proprietary and confidential information,
 including trade secrets, belonging to Gaussian, Inc.
  
 This software is provided under written license and may be
 used, copied, transmitted, or stored only in accord with that
 written license.
  
 The following legend is applicable only to US Government
 contracts under FAR:
  
                    RESTRICTED RIGHTS LEGEND
  
 Use, reproduction and disclosure by the US Government is
 subject to restrictions as set forth in subparagraphs (a)
 and (c) of the Commercial Computer Software - Restricted
 Rights clause in FAR 52.227-19.
  
 Gaussian, Inc.
 340 Quinnipiac St., Bldg. 40, Wallingford CT 06492
  
  
 ---------------------------------------------------------------
 Warning -- This program may not be used in any manner that
 competes with the business of Gaussian, Inc. or will provide
 assistance to any competitor of Gaussian, Inc.  The licensee
 of this program is prohibited from giving any competitor of
 Gaussian, Inc. access to this program.  By using this program,
 the user acknowledges that Gaussian, Inc. is engaged in the
 business of creating and licensing software in the field of
 computational chemistry and represents and warrants to the
 licensee that it is not a competitor of Gaussian, Inc. and that
 it will not use this program in any manner prohibited above.
 ---------------------------------------------------------------
  

 Cite this work as:
 Gaussian 16, Revision C.01,
 M. J. Frisch, G. W. Trucks, H. B. Schlegel, G. E. Scuseria, 
 M. A. Robb, J. R. Cheeseman, G. Scalmani, V. Barone, 
 G. A. Petersson, H. Nakatsuji, X. Li, M. Caricato, A. V. Marenich, 
 J. Bloino, B. G. Janesko, R. Gomperts, B. Mennucci, H. P. Hratchian, 
 J. V. Ortiz, A. F. Izmaylov, J. L. Sonnenberg, D. Williams-Young, 
 F. Ding, F. Lipparini, F. Egidi, J. Goings, B. Peng, A. Petrone, 
 T. Henderson, D. Ranasinghe, V. G. Zakrzewski, J. Gao, N. Rega, 
 G. Zheng, W. Liang, M. Hada, M. Ehara, K. Toyota, R. Fukuda, 
 J. Hasegawa, M. Ishida, T. Nakajima, Y. Honda, O. Kitao, H. Nakai, 
 T. Vreven, K. Throssell, J. A. Montgomery, Jr., J. E. Peralta, 
 F. Ogliaro, M. J. Bearpark, J. J. Heyd, E. N. Brothers, K. N. Kudin, 
 V. N. Staroverov, T. A. Keith, R. Kobayashi, J. Normand, 
 K. Raghavachari, A. P. Rendell, J. C. Burant, S. S. Iyengar, 
 J. Tomasi, M. Cossi, J. M. Millam, M. Klene, C. Adamo, R. Cammi, 
 J. W. Ochterski, R. L. Martin, K. Morokuma, O. Farkas, 
 J. B. Foresman, and D. J. Fox, Gaussian, Inc., Wallingford CT, 2019.
 
 ******************************************
 Gaussian 16:  ES64L-G16RevC.01  3-Jul-2019
                11-Jun-2022 
 ******************************************
 %mem=8gb
 %nproc=4
 Will use up to    4 processors via shared memory.
 %chk=conf-112.chk
 ----------------------------------------------------------------------
 # B3LYP/6-31G* empiricaldispersion=gd3 guess=read geom=check nosymm in
 tegral(ultrafinegrid)
 ----------------------------------------------------------------------
 1/29=2,38=1,172=1/1;
 2/12=2,15=1,40=1/2;
 3/5=1,6=6,7=1,11=2,14=-4,25=1,30=1,74=-5,75=-5,116=-2,124=31/1,2,3;
 4/5=1/1;
 5/5=2,38=6/2;
 6/7=2,8=2,9=2,10=2,28=1/1;
 99/5=1,9=1/99;
 ------------------------------------------------------
 Candidate Structure: Conf:112 Charge calc in gas phase
 ------------------------------------------------------
 Structure from the checkpoint file:  "conf-112.chk"
 Charge =  1 Multiplicity = 1
 Redundant internal coordinates found in file.  (old form).
 N,0,-1.0157028181,10.605608639,-7.6513960131
 C,0,-0.3443666608,10.7559364983,-6.3396266988
 C,0,-1.0140088422,9.7919346087,-5.3387835888
 O,0,-0.534235366,8.6915795207,-5.1099285373
 C,0,-0.3404612072,12.2301698334,-5.8992366665
 C,0,0.2281099496,13.2019603142,-6.9132709545
 C,0,-0.5231238565,14.3173777228,-7.3124894168
 C,0,1.5205091793,13.0471684955,-7.4361347667
 C,0,0.0136125422,15.2730315448,-8.1827168078
 C,0,2.052509561,13.9874482684,-8.320128089
 C,0,1.3049245355,15.109693738,-8.6902534493
 H,0,-1.9346318825,11.0521515795,-7.6073819971
 H,0,0.6818154335,10.3934111718,-6.4441428229
 H,0,0.2270444379,12.2981935963,-4.9624831714
 H,0,-1.3611159008,12.5506038764,-5.6635078958
 H,0,-1.5301158916,14.4475610731,-6.9228935447
 H,0,2.1218056082,12.1909573299,-7.1415750612
 H,0,-0.5742968122,16.1457637635,-8.4551639801
 H,0,3.0561792968,13.850056206,-8.7117222339
 H,0,1.7259572789,15.8485265697,-9.3656237941
 H,0,-1.215069066,9.6178691955,-7.8227541959
 N,0,-2.2211434261,10.2125951952,-4.8343275081
 C,0,-3.2456510462,9.2445082993,-4.4067662882
 C,0,-4.3361533138,9.4363587616,-5.4658068199
 O,0,-4.2746479114,8.8653477646,-6.5577397128
 C,0,-3.66045699,9.4247269909,-2.943056378
 C,0,-2.5195389602,9.1892694332,-1.9323765794
 C,0,-3.016486782,9.5004033359,-0.5133977398
 C,0,-1.9485569975,7.7657764793,-2.0172590074
 H,0,-2.5991569286,11.0677086589,-5.228453945
 H,0,-2.829081763,8.2493159276,-4.566034307
 H,0,-4.0442187044,10.4454030104,-2.7871493214
 H,0,-4.4905598241,8.7370840789,-2.7285849138
 H,0,-1.7143938968,9.8956195661,-2.1785269228
 H,0,-3.8204040394,8.8128413366,-0.2206087125
 H,0,-2.2062677675,9.3911816135,0.2153759282
 H,0,-3.4036303554,10.5239114814,-0.4332054409
 H,0,-2.740619651,7.0170601576,-1.8832999812
 H,0,-1.4489638253,7.5835046293,-2.9733134829
 H,0,-1.2080483678,7.6070471442,-1.2256794285
 N,0,-5.2665167308,10.405062494,-5.2291336512
 C,0,-5.955615032,10.9766680766,-6.3724703875
 C,0,-4.8768482135,11.4411065855,-7.3924938999
 O,0,-3.7671751885,11.8393783154,-7.0160716512
 C,0,-6.8984860404,12.1048119799,-5.9442278156
 C,0,-7.923351858,12.4243802127,-7.0404752487
 N,0,-8.8039512298,13.4059722724,-6.7366882418
 O,0,-7.9440353211,11.8316652142,-8.1181907546
 H,0,-5.1828979249,10.9573211831,-4.3865179801
 H,0,-6.5460605719,10.187388595,-6.8428201233
 H,0,-7.4412321424,11.7917657152,-5.0426103624
 H,0,-6.335489907,13.0104678952,-5.683482104
 H,0,-9.5401540634,13.6115028575,-7.3993335224
 H,0,-8.8511034586,13.8328576993,-5.822877502
 N,0,-5.2302744568,11.286592724,-8.684343161
 C,0,-4.3386701456,11.4525970048,-9.8247338155
 C,0,-3.3692164803,10.2559901302,-10.0078633838
 O,0,-2.6429863611,10.2116252585,-10.9828478448
 C,0,-3.5578034628,12.7966783154,-9.8175410168
 C,0,-3.0247364571,13.2168411905,-11.2047780743
 C,0,-1.6337671085,13.868368827,-11.134129672
 N,0,-0.6197097935,12.9937348712,-10.5304125377
 C,0,-0.2491037904,11.7926842487,-10.9889244127
 N,0,-0.3478979636,11.4865043043,-12.3030187283
 N,0,0.2920561713,10.9220172476,-10.1374572409
 O,0,-3.3143244876,9.2881468514,-9.0957198781
 H,0,-3.9356955776,9.3521702582,-8.3333039482
 H,0,-6.2225879363,11.1251426349,-8.8501383406
 H,0,-4.9809384628,11.4356842555,-10.7111236465
 H,0,-2.7412790033,12.7198466945,-9.0975012774
 H,0,-4.235872869,13.5610630736,-9.4246111512
 H,0,-2.9692304607,12.3447478339,-11.8592290461
 H,0,-3.7096500529,13.9289115124,-11.6800707829
 H,0,-1.3057921885,14.1961527186,-12.1280513983
 H,0,-1.648779225,14.7635007733,-10.5074083168
 H,0,-0.3186184558,13.221608221,-9.5895834014
 H,0,-0.6423460273,10.5418993276,-12.5190201291
 H,0,-0.7076749686,12.1880443844,-12.9340593591
 H,0,0.6382506447,10.0494090797,-10.5145186696
 H,0,-0.0745540671,10.9027502827,-9.1524822757
 Recover connectivity data from disk.
                           ----------------------------
                           !    Current Parameters    !
                           ! (Angstroms and Degrees)  !
 --------------------------                            --------------------------
 ! Name  Definition              Value                                          !
 --------------------------------------------------------------------------------
 ! R1    R(1,2)                  1.4812                                         !
 ! R2    R(1,12)                 1.0226                                         !
 ! R3    R(1,21)                 1.0221                                         !
 ! R4    R(2,3)                  1.5425                                         !
 ! R5    R(2,5)                  1.5386                                         !
 ! R6    R(2,13)                 1.0933                                         !
 ! R7    R(3,4)                  1.222                                          !
 ! R8    R(3,22)                 1.3743                                         !
 ! R9    R(5,6)                  1.5152                                         !
 ! R10   R(5,14)                 1.0974                                         !
 ! R11   R(5,15)                 1.0954                                         !
 ! R12   R(6,7)                  1.4028                                         !
 ! R13   R(6,8)                  1.4027                                         !
 ! R14   R(7,9)                  1.3995                                         !
 ! R15   R(7,16)                 1.0876                                         !
 ! R16   R(8,10)                 1.3959                                         !
 ! R17   R(8,17)                 1.0869                                         !
 ! R18   R(9,11)                 1.3971                                         !
 ! R19   R(9,18)                 1.087                                          !
 ! R20   R(10,11)                1.3983                                         !
 ! R21   R(10,19)                1.0861                                         !
 ! R22   R(11,20)                1.0859                                         !
 ! R23   R(22,23)                1.473                                          !
 ! R24   R(22,30)                1.0146                                         !
 ! R25   R(23,24)                1.5322                                         !
 ! R26   R(23,26)                1.532                                          !
 ! R27   R(23,31)                1.0906                                         !
 ! R28   R(24,25)                1.2338                                         !
 ! R29   R(24,41)                1.3638                                         !
 ! R30   R(26,27)                1.5423                                         !
 ! R31   R(26,32)                1.1015                                         !
 ! R32   R(26,33)                1.0991                                         !
 ! R33   R(27,28)                1.5353                                         !
 ! R34   R(27,29)                1.5361                                         !
 ! R35   R(27,34)                1.099                                          !
 ! R36   R(28,35)                1.0976                                         !
 ! R37   R(28,36)                1.0952                                         !
 ! R38   R(28,37)                1.0972                                         !
 ! R39   R(29,38)                1.0981                                         !
 ! R40   R(29,39)                1.094                                          !
 ! R41   R(29,40)                1.0955                                         !
 ! R42   R(41,42)                1.4522                                         !
 ! R43   R(41,49)                1.0109                                         !
 ! R44   R(42,43)                1.5556                                         !
 ! R45   R(42,45)                1.5314                                         !
 ! R46   R(42,50)                1.0922                                         !
 ! R47   R(43,44)                1.2376                                         !
 ! R48   R(43,55)                1.3482                                         !
 ! R49   R(45,46)                1.5344                                         !
 ! R50   R(45,51)                1.0979                                         !
 ! R51   R(45,52)                1.0978                                         !
 ! R52   R(46,47)                1.3532                                         !
 ! R53   R(46,48)                1.2301                                         !
 ! R54   R(47,53)                1.0116                                         !
 ! R55   R(47,54)                1.0097                                         !
 ! R56   R(55,56)                1.4571                                         !
 ! R57   R(55,68)                1.0189                                         !
 ! R58   R(56,57)                1.5509                                         !
 ! R59   R(56,59)                1.5545                                         !
 ! R60   R(56,69)                1.0948                                         !
 ! R61   R(57,58)                1.2165                                         !
 ! R62   R(57,66)                1.3311                                         !
 ! R63   R(59,60)                1.5444                                         !
 ! R64   R(59,70)                1.0914                                         !
 ! R65   R(59,71)                1.0947                                         !
 ! R66   R(60,61)                1.5376                                         !
 ! R67   R(60,72)                1.0918                                         !
 ! R68   R(60,73)                1.0964                                         !
 ! R69   R(61,62)                1.4689                                         !
 ! R70   R(61,74)                1.0968                                         !
 ! R71   R(61,75)                1.0928                                         !
 ! R72   R(62,63)                1.3379                                         !
 ! R73   R(62,76)                1.0138                                         !
 ! R74   R(63,64)                1.3529                                         !
 ! R75   R(63,65)                1.3326                                         !
 ! R76   R(64,77)                1.0127                                         !
 ! R77   R(64,78)                1.0099                                         !
 ! R78   R(65,79)                1.0117                                         !
 ! R79   R(65,80)                1.0512                                         !
 ! R80   R(66,67)                0.9856                                         !
 ! A1    A(2,1,12)             108.9558                                         !
 ! A2    A(2,1,21)             109.5693                                         !
 ! A3    A(12,1,21)            104.7094                                         !
 ! A4    A(1,2,3)              108.3259                                         !
 ! A5    A(1,2,5)              110.602                                          !
 ! A6    A(1,2,13)             107.8834                                         !
 ! A7    A(3,2,5)              114.4682                                         !
 ! A8    A(3,2,13)             105.2041                                         !
 ! A9    A(5,2,13)             110.0403                                         !
 ! A10   A(2,3,4)              120.9172                                         !
 ! A11   A(2,3,22)             115.3532                                         !
 ! A12   A(4,3,22)             123.4863                                         !
 ! A13   A(2,5,6)              115.0821                                         !
 ! A14   A(2,5,14)             107.7607                                         !
 ! A15   A(2,5,15)             109.8468                                         !
 ! A16   A(6,5,14)             109.7228                                         !
 ! A17   A(6,5,15)             107.82                                           !
 ! A18   A(14,5,15)            106.2615                                         !
 ! A19   A(5,6,7)              119.9643                                         !
 ! A20   A(5,6,8)              121.6282                                         !
 ! A21   A(7,6,8)              118.3636                                         !
 ! A22   A(6,7,9)              120.9657                                         !
 ! A23   A(6,7,16)             119.2804                                         !
 ! A24   A(9,7,16)             119.7435                                         !
 ! A25   A(6,8,10)             120.8541                                         !
 ! A26   A(6,8,17)             119.7097                                         !
 ! A27   A(10,8,17)            119.4322                                         !
 ! A28   A(7,9,11)             120.0362                                         !
 ! A29   A(7,9,18)             119.7803                                         !
 ! A30   A(11,9,18)            120.1815                                         !
 ! A31   A(8,10,11)            120.2961                                         !
 ! A32   A(8,10,19)            119.6902                                         !
 ! A33   A(11,10,19)           120.01                                           !
 ! A34   A(9,11,10)            119.4613                                         !
 ! A35   A(9,11,20)            120.3154                                         !
 ! A36   A(10,11,20)           120.2232                                         !
 ! A37   A(3,22,23)            121.0861                                         !
 ! A38   A(3,22,30)            116.2729                                         !
 ! A39   A(23,22,30)           114.0501                                         !
 ! A40   A(22,23,24)           102.246                                          !
 ! A41   A(22,23,26)           112.8517                                         !
 ! A42   A(22,23,31)           106.9593                                         !
 ! A43   A(24,23,26)           116.9333                                         !
 ! A44   A(24,23,31)           106.5701                                         !
 ! A45   A(26,23,31)           110.5064                                         !
 ! A46   A(23,24,25)           121.219                                          !
 ! A47   A(23,24,41)           117.034                                          !
 ! A48   A(25,24,41)           121.0869                                         !
 ! A49   A(23,26,27)           114.0699                                         !
 ! A50   A(23,26,32)           109.7894                                         !
 ! A51   A(23,26,33)           108.5026                                         !
 ! A52   A(27,26,32)           107.8447                                         !
 ! A53   A(27,26,33)           109.5929                                         !
 ! A54   A(32,26,33)           106.7975                                         !
 ! A55   A(26,27,28)           109.5892                                         !
 ! A56   A(26,27,29)           112.3489                                         !
 ! A57   A(26,27,34)           107.2815                                         !
 ! A58   A(28,27,29)           111.0498                                         !
 ! A59   A(28,27,34)           108.2936                                         !
 ! A60   A(29,27,34)           108.1143                                         !
 ! A61   A(27,28,35)           110.8951                                         !
 ! A62   A(27,28,36)           110.8136                                         !
 ! A63   A(27,28,37)           111.7643                                         !
 ! A64   A(35,28,36)           107.5695                                         !
 ! A65   A(35,28,37)           107.843                                          !
 ! A66   A(36,28,37)           107.7834                                         !
 ! A67   A(27,29,38)           110.9151                                         !
 ! A68   A(27,29,39)           111.8659                                         !
 ! A69   A(27,29,40)           110.2184                                         !
 ! A70   A(38,29,39)           108.8077                                         !
 ! A71   A(38,29,40)           107.4947                                         !
 ! A72   A(39,29,40)           107.3753                                         !
 ! A73   A(24,41,42)           117.8182                                         !
 ! A74   A(24,41,49)           118.4402                                         !
 ! A75   A(42,41,49)           118.7156                                         !
 ! A76   A(41,42,43)           107.7404                                         !
 ! A77   A(41,42,45)           111.2213                                         !
 ! A78   A(41,42,50)           108.1286                                         !
 ! A79   A(43,42,45)           112.9791                                         !
 ! A80   A(43,42,50)           107.9556                                         !
 ! A81   A(45,42,50)           108.6603                                         !
 ! A82   A(42,43,44)           121.2268                                         !
 ! A83   A(42,43,55)           114.349                                          !
 ! A84   A(44,43,55)           124.2888                                         !
 ! A85   A(42,45,46)           111.401                                          !
 ! A86   A(42,45,51)           108.9024                                         !
 ! A87   A(42,45,52)           111.0026                                         !
 ! A88   A(46,45,51)           108.4158                                         !
 ! A89   A(46,45,52)           109.9029                                         !
 ! A90   A(51,45,52)           107.0786                                         !
 ! A91   A(45,46,47)           115.1723                                         !
 ! A92   A(45,46,48)           122.4678                                         !
 ! A93   A(47,46,48)           122.36                                           !
 ! A94   A(46,47,53)           118.2879                                         !
 ! A95   A(46,47,54)           122.6991                                         !
 ! A96   A(53,47,54)           118.226                                          !
 ! A97   A(43,55,56)           125.2035                                         !
 ! A98   A(43,55,68)           115.4273                                         !
 ! A99   A(56,55,68)           119.1195                                         !
 ! A100  A(55,56,57)           112.7694                                         !
 ! A101  A(55,56,59)           113.7209                                         !
 ! A102  A(55,56,69)           105.8394                                         !
 ! A103  A(57,56,59)           110.7123                                         !
 ! A104  A(57,56,69)           105.0229                                         !
 ! A105  A(59,56,69)           108.1687                                         !
 ! A106  A(56,57,58)           119.7312                                         !
 ! A107  A(56,57,66)           120.3897                                         !
 ! A108  A(58,57,66)           119.8724                                         !
 ! A109  A(56,59,60)           113.858                                          !
 ! A110  A(56,59,70)           108.5429                                         !
 ! A111  A(56,59,71)           107.1127                                         !
 ! A112  A(60,59,70)           110.704                                          !
 ! A113  A(60,59,71)           110.2571                                         !
 ! A114  A(70,59,71)           106.0072                                         !
 ! A115  A(59,60,61)           112.7214                                         !
 ! A116  A(59,60,72)           109.7965                                         !
 ! A117  A(59,60,73)           110.5159                                         !
 ! A118  A(61,60,72)           108.6642                                         !
 ! A119  A(61,60,73)           108.0498                                         !
 ! A120  A(72,60,73)           106.8994                                         !
 ! A121  A(60,61,62)           113.0219                                         !
 ! A122  A(60,61,74)           110.8251                                         !
 ! A123  A(60,61,75)           111.1613                                         !
 ! A124  A(62,61,74)           110.1186                                         !
 ! A125  A(62,61,75)           105.1587                                         !
 ! A126  A(74,61,75)           106.2018                                         !
 ! A127  A(61,62,63)           125.794                                          !
 ! A128  A(61,62,76)           116.9112                                         !
 ! A129  A(63,62,76)           115.9476                                         !
 ! A130  A(62,63,64)           121.0507                                         !
 ! A131  A(62,63,65)           118.6864                                         !
 ! A132  A(64,63,65)           120.159                                          !
 ! A133  A(63,64,77)           116.0711                                         !
 ! A134  A(63,64,78)           118.4084                                         !
 ! A135  A(77,64,78)           114.2738                                         !
 ! A136  A(63,65,79)           117.6688                                         !
 ! A137  A(63,65,80)           117.9727                                         !
 ! A138  A(79,65,80)           116.9223                                         !
 ! A139  A(57,66,67)           117.1838                                         !
 ! D1    D(12,1,2,3)            74.0133                                         !
 ! D2    D(12,1,2,5)           -52.189                                          !
 ! D3    D(12,1,2,13)         -172.5852                                         !
 ! D4    D(21,1,2,3)           -40.0051                                         !
 ! D5    D(21,1,2,5)          -166.2074                                         !
 ! D6    D(21,1,2,13)           73.3964                                         !
 ! D7    D(1,2,3,4)             96.4055                                         !
 ! D8    D(1,2,3,22)           -78.12                                           !
 ! D9    D(5,2,3,4)           -139.6789                                         !
 ! D10   D(5,2,3,22)            45.7957                                         !
 ! D11   D(13,2,3,4)           -18.7602                                         !
 ! D12   D(13,2,3,22)          166.7143                                         !
 ! D13   D(1,2,5,6)            -53.2984                                         !
 ! D14   D(1,2,5,14)          -176.0621                                         !
 ! D15   D(1,2,5,15)            68.5834                                         !
 ! D16   D(3,2,5,6)           -175.9895                                         !
 ! D17   D(3,2,5,14)            61.2468                                         !
 ! D18   D(3,2,5,15)           -54.1077                                         !
 ! D19   D(13,2,5,6)            65.801                                          !
 ! D20   D(13,2,5,14)          -56.9627                                         !
 ! D21   D(13,2,5,15)         -172.3171                                         !
 ! D22   D(2,3,22,23)          151.4708                                         !
 ! D23   D(2,3,22,30)            5.5443                                         !
 ! D24   D(4,3,22,23)          -22.8973                                         !
 ! D25   D(4,3,22,30)         -168.8238                                         !
 ! D26   D(2,5,6,7)            126.5539                                         !
 ! D27   D(2,5,6,8)            -55.8966                                         !
 ! D28   D(14,5,6,7)          -111.7382                                         !
 ! D29   D(14,5,6,8)            65.8113                                         !
 ! D30   D(15,5,6,7)             3.5837                                         !
 ! D31   D(15,5,6,8)          -178.8668                                         !
 ! D32   D(5,6,7,9)            175.937                                          !
 ! D33   D(5,6,7,16)            -2.8906                                         !
 ! D34   D(8,6,7,9)             -1.6918                                         !
 ! D35   D(8,6,7,16)           179.4806                                         !
 ! D36   D(5,6,8,10)          -176.8673                                         !
 ! D37   D(5,6,8,17)             2.4077                                         !
 ! D38   D(7,6,8,10)             0.7201                                         !
 ! D39   D(7,6,8,17)           179.9951                                         !
 ! D40   D(6,7,9,11)             1.3854                                         !
 ! D41   D(6,7,9,18)          -178.1066                                         !
 ! D42   D(16,7,9,11)         -179.7924                                         !
 ! D43   D(16,7,9,18)            0.7157                                         !
 ! D44   D(6,8,10,11)            0.5609                                         !
 ! D45   D(6,8,10,19)          179.8587                                         !
 ! D46   D(17,8,10,11)        -178.7162                                         !
 ! D47   D(17,8,10,19)           0.5817                                         !
 ! D48   D(7,9,11,10)           -0.0743                                         !
 ! D49   D(7,9,11,20)         -179.9857                                         !
 ! D50   D(18,9,11,10)         179.4156                                         !
 ! D51   D(18,9,11,20)          -0.4958                                         !
 ! D52   D(8,10,11,9)           -0.8877                                         !
 ! D53   D(8,10,11,20)         179.0238                                         !
 ! D54   D(19,10,11,9)         179.8167                                         !
 ! D55   D(19,10,11,20)         -0.2718                                         !
 ! D56   D(3,22,23,24)        -111.0254                                         !
 ! D57   D(3,22,23,26)         122.5015                                         !
 ! D58   D(3,22,23,31)           0.7696                                         !
 ! D59   D(30,22,23,24)         35.5982                                         !
 ! D60   D(30,22,23,26)        -90.8749                                         !
 ! D61   D(30,22,23,31)        147.3932                                         !
 ! D62   D(22,23,24,25)         83.3119                                         !
 ! D63   D(22,23,24,41)        -87.4729                                         !
 ! D64   D(26,23,24,25)       -152.9078                                         !
 ! D65   D(26,23,24,41)         36.3074                                         !
 ! D66   D(31,23,24,25)        -28.7741                                         !
 ! D67   D(31,23,24,41)        160.4411                                         !
 ! D68   D(22,23,26,27)        -62.9707                                         !
 ! D69   D(22,23,26,32)         58.188                                          !
 ! D70   D(22,23,26,33)        174.5651                                         !
 ! D71   D(24,23,26,27)        178.8464                                         !
 ! D72   D(24,23,26,32)        -59.9948                                         !
 ! D73   D(24,23,26,33)         56.3823                                         !
 ! D74   D(31,23,26,27)         56.7365                                         !
 ! D75   D(31,23,26,32)        177.8952                                         !
 ! D76   D(31,23,26,33)        -65.7276                                         !
 ! D77   D(23,24,41,42)        155.8979                                         !
 ! D78   D(23,24,41,49)          1.2652                                         !
 ! D79   D(25,24,41,42)        -14.8999                                         !
 ! D80   D(25,24,41,49)       -169.5326                                         !
 ! D81   D(23,26,27,28)        175.6798                                         !
 ! D82   D(23,26,27,29)        -60.3669                                         !
 ! D83   D(23,26,27,34)         58.3161                                         !
 ! D84   D(32,26,27,28)         53.4478                                         !
 ! D85   D(32,26,27,29)        177.4011                                         !
 ! D86   D(32,26,27,34)        -63.9158                                         !
 ! D87   D(33,26,27,28)        -62.4547                                         !
 ! D88   D(33,26,27,29)         61.4986                                         !
 ! D89   D(33,26,27,34)       -179.8184                                         !
 ! D90   D(26,27,28,35)         63.6286                                         !
 ! D91   D(26,27,28,36)       -176.9787                                         !
 ! D92   D(26,27,28,37)        -56.7408                                         !
 ! D93   D(29,27,28,35)        -61.0817                                         !
 ! D94   D(29,27,28,36)         58.3111                                         !
 ! D95   D(29,27,28,37)        178.5489                                         !
 ! D96   D(34,27,28,35)       -179.6438                                         !
 ! D97   D(34,27,28,36)        -60.2511                                         !
 ! D98   D(34,27,28,37)         59.9868                                         !
 ! D99   D(26,27,29,38)        -55.8256                                         !
 ! D100  D(26,27,29,39)         65.8597                                         !
 ! D101  D(26,27,29,40)       -174.7532                                         !
 ! D102  D(28,27,29,38)         67.3118                                         !
 ! D103  D(28,27,29,39)       -171.0028                                         !
 ! D104  D(28,27,29,40)        -51.6158                                         !
 ! D105  D(34,27,29,38)       -174.0179                                         !
 ! D106  D(34,27,29,39)        -52.3326                                         !
 ! D107  D(34,27,29,40)         67.0545                                         !
 ! D108  D(24,41,42,43)        -52.1398                                         !
 ! D109  D(24,41,42,45)       -176.4677                                         !
 ! D110  D(24,41,42,50)         64.304                                          !
 ! D111  D(49,41,42,43)        102.4217                                         !
 ! D112  D(49,41,42,45)        -21.9063                                         !
 ! D113  D(49,41,42,50)       -141.1345                                         !
 ! D114  D(41,42,43,44)        -31.257                                          !
 ! D115  D(41,42,43,55)        144.6871                                         !
 ! D116  D(45,42,43,44)         92.0044                                         !
 ! D117  D(45,42,43,55)        -92.0514                                         !
 ! D118  D(50,42,43,44)       -147.8138                                         !
 ! D119  D(50,42,43,55)         28.1304                                         !
 ! D120  D(41,42,45,46)       -162.8634                                         !
 ! D121  D(41,42,45,51)        -43.3355                                         !
 ! D122  D(41,42,45,52)         74.3085                                         !
 ! D123  D(43,42,45,46)         75.8243                                         !
 ! D124  D(43,42,45,51)       -164.6478                                         !
 ! D125  D(43,42,45,52)        -47.0038                                         !
 ! D126  D(50,42,45,46)        -43.9533                                         !
 ! D127  D(50,42,45,51)         75.5746                                         !
 ! D128  D(50,42,45,52)       -166.7814                                         !
 ! D129  D(42,43,55,56)       -170.3486                                         !
 ! D130  D(42,43,55,68)         15.4696                                         !
 ! D131  D(44,43,55,56)          5.4534                                         !
 ! D132  D(44,43,55,68)       -168.7285                                         !
 ! D133  D(42,45,46,47)        179.4896                                         !
 ! D134  D(42,45,46,48)         -0.5081                                         !
 ! D135  D(51,45,46,47)         59.6733                                         !
 ! D136  D(51,45,46,48)       -120.3244                                         !
 ! D137  D(52,45,46,47)        -57.0542                                         !
 ! D138  D(52,45,46,48)        122.9482                                         !
 ! D139  D(45,46,47,53)       -175.8503                                         !
 ! D140  D(45,46,47,54)         -6.2003                                         !
 ! D141  D(48,46,47,53)          4.1473                                         !
 ! D142  D(48,46,47,54)        173.7973                                         !
 ! D143  D(43,55,56,57)         75.7541                                         !
 ! D144  D(43,55,56,59)        -51.3594                                         !
 ! D145  D(43,55,56,69)       -169.9599                                         !
 ! D146  D(68,55,56,57)       -110.2614                                         !
 ! D147  D(68,55,56,59)        122.6251                                         !
 ! D148  D(68,55,56,69)          4.0246                                         !
 ! D149  D(55,56,57,58)        174.1112                                         !
 ! D150  D(55,56,57,66)         -6.8311                                         !
 ! D151  D(59,56,57,58)        -57.1967                                         !
 ! D152  D(59,56,57,66)        121.861                                          !
 ! D153  D(69,56,57,58)         59.3314                                         !
 ! D154  D(69,56,57,66)       -121.611                                          !
 ! D155  D(55,56,59,60)       -159.1637                                         !
 ! D156  D(55,56,59,70)         77.0507                                         !
 ! D157  D(55,56,59,71)        -37.0037                                         !
 ! D158  D(57,56,59,60)         72.6592                                         !
 ! D159  D(57,56,59,70)        -51.1264                                         !
 ! D160  D(57,56,59,71)       -165.1808                                         !
 ! D161  D(69,56,59,60)        -41.907                                          !
 ! D162  D(69,56,59,70)       -165.6926                                         !
 ! D163  D(69,56,59,71)         80.2529                                         !
 ! D164  D(56,57,66,67)          2.4157                                         !
 ! D165  D(58,57,66,67)       -178.528                                          !
 ! D166  D(56,59,60,61)       -142.0048                                         !
 ! D167  D(56,59,60,72)        -20.7082                                         !
 ! D168  D(56,59,60,73)         96.974                                          !
 ! D169  D(70,59,60,61)        -19.3969                                         !
 ! D170  D(70,59,60,72)        101.8997                                         !
 ! D171  D(70,59,60,73)       -140.4181                                         !
 ! D172  D(71,59,60,61)         97.5855                                         !
 ! D173  D(71,59,60,72)       -141.1179                                         !
 ! D174  D(71,59,60,73)        -23.4357                                         !
 ! D175  D(59,60,61,62)         58.4706                                         !
 ! D176  D(59,60,61,74)       -177.3712                                         !
 ! D177  D(59,60,61,75)        -59.5089                                         !
 ! D178  D(72,60,61,62)        -63.4675                                         !
 ! D179  D(72,60,61,74)         60.6907                                         !
 ! D180  D(72,60,61,75)        178.5529                                         !
 ! D181  D(73,60,61,62)       -179.112                                          !
 ! D182  D(73,60,61,74)        -54.9538                                         !
 ! D183  D(73,60,61,75)         62.9084                                         !
 ! D184  D(60,61,62,63)         59.9104                                         !
 ! D185  D(60,61,62,76)       -106.2425                                         !
 ! D186  D(74,61,62,63)        -64.6337                                         !
 ! D187  D(74,61,62,76)        129.2134                                         !
 ! D188  D(75,61,62,63)       -178.6569                                         !
 ! D189  D(75,61,62,76)         15.1902                                         !
 ! D190  D(61,62,63,64)         27.4731                                         !
 ! D191  D(61,62,63,65)       -156.2279                                         !
 ! D192  D(76,62,63,64)       -166.2564                                         !
 ! D193  D(76,62,63,65)         10.0426                                         !
 ! D194  D(62,63,64,77)       -141.6094                                         !
 ! D195  D(62,63,64,78)          0.1079                                         !
 ! D196  D(65,63,64,77)         42.1457                                         !
 ! D197  D(65,63,64,78)       -176.137                                          !
 ! D198  D(62,63,65,79)       -174.9332                                         !
 ! D199  D(62,63,65,80)         36.0478                                         !
 ! D200  D(64,63,65,79)          1.3998                                         !
 ! D201  D(64,63,65,80)       -147.6192                                         !
 --------------------------------------------------------------------------------
 Symmetry turned off by external request.
 Stoichiometry    C25H41N8O6(1+)
 Framework group  C1[X(C25H41N8O6)]
 Deg. of freedom   234
 Full point group                 C1      NOp   1
                          Input orientation:                          
 ---------------------------------------------------------------------
 Center     Atomic      Atomic             Coordinates (Angstroms)
 Number     Number       Type             X           Y           Z
 ---------------------------------------------------------------------
      1          7           0       -1.015703   10.605609   -7.651396
      2          6           0       -0.344367   10.755936   -6.339627
      3          6           0       -1.014009    9.791935   -5.338784
      4          8           0       -0.534235    8.691580   -5.109929
      5          6           0       -0.340461   12.230170   -5.899237
      6          6           0        0.228110   13.201960   -6.913271
      7          6           0       -0.523124   14.317378   -7.312489
      8          6           0        1.520509   13.047168   -7.436135
      9          6           0        0.013613   15.273032   -8.182717
     10          6           0        2.052510   13.987448   -8.320128
     11          6           0        1.304925   15.109694   -8.690253
     12          1           0       -1.934632   11.052152   -7.607382
     13          1           0        0.681815   10.393411   -6.444143
     14          1           0        0.227044   12.298194   -4.962483
     15          1           0       -1.361116   12.550604   -5.663508
     16          1           0       -1.530116   14.447561   -6.922894
     17          1           0        2.121806   12.190957   -7.141575
     18          1           0       -0.574297   16.145764   -8.455164
     19          1           0        3.056179   13.850056   -8.711722
     20          1           0        1.725957   15.848527   -9.365624
     21          1           0       -1.215069    9.617869   -7.822754
     22          7           0       -2.221143   10.212595   -4.834328
     23          6           0       -3.245651    9.244508   -4.406766
     24          6           0       -4.336153    9.436359   -5.465807
     25          8           0       -4.274648    8.865348   -6.557740
     26          6           0       -3.660457    9.424727   -2.943056
     27          6           0       -2.519539    9.189269   -1.932377
     28          6           0       -3.016487    9.500403   -0.513398
     29          6           0       -1.948557    7.765776   -2.017259
     30          1           0       -2.599157   11.067709   -5.228454
     31          1           0       -2.829082    8.249316   -4.566034
     32          1           0       -4.044219   10.445403   -2.787149
     33          1           0       -4.490560    8.737084   -2.728585
     34          1           0       -1.714394    9.895620   -2.178527
     35          1           0       -3.820404    8.812841   -0.220609
     36          1           0       -2.206268    9.391182    0.215376
     37          1           0       -3.403630   10.523911   -0.433205
     38          1           0       -2.740620    7.017060   -1.883300
     39          1           0       -1.448964    7.583505   -2.973313
     40          1           0       -1.208048    7.607047   -1.225679
     41          7           0       -5.266517   10.405062   -5.229134
     42          6           0       -5.955615   10.976668   -6.372470
     43          6           0       -4.876848   11.441107   -7.392494
     44          8           0       -3.767175   11.839378   -7.016072
     45          6           0       -6.898486   12.104812   -5.944228
     46          6           0       -7.923352   12.424380   -7.040475
     47          7           0       -8.803951   13.405972   -6.736688
     48          8           0       -7.944035   11.831665   -8.118191
     49          1           0       -5.182898   10.957321   -4.386518
     50          1           0       -6.546061   10.187389   -6.842820
     51          1           0       -7.441232   11.791766   -5.042610
     52          1           0       -6.335490   13.010468   -5.683482
     53          1           0       -9.540154   13.611503   -7.399334
     54          1           0       -8.851103   13.832858   -5.822878
     55          7           0       -5.230274   11.286593   -8.684343
     56          6           0       -4.338670   11.452597   -9.824734
     57          6           0       -3.369216   10.255990  -10.007863
     58          8           0       -2.642986   10.211625  -10.982848
     59          6           0       -3.557803   12.796678   -9.817541
     60          6           0       -3.024736   13.216841  -11.204778
     61          6           0       -1.633767   13.868369  -11.134130
     62          7           0       -0.619710   12.993735  -10.530413
     63          6           0       -0.249104   11.792684  -10.988924
     64          7           0       -0.347898   11.486504  -12.303019
     65          7           0        0.292056   10.922017  -10.137457
     66          8           0       -3.314324    9.288147   -9.095720
     67          1           0       -3.935696    9.352170   -8.333304
     68          1           0       -6.222588   11.125143   -8.850138
     69          1           0       -4.980938   11.435684  -10.711124
     70          1           0       -2.741279   12.719847   -9.097501
     71          1           0       -4.235873   13.561063   -9.424611
     72          1           0       -2.969230   12.344748  -11.859229
     73          1           0       -3.709650   13.928912  -11.680071
     74          1           0       -1.305792   14.196153  -12.128051
     75          1           0       -1.648779   14.763501  -10.507408
     76          1           0       -0.318618   13.221608   -9.589583
     77          1           0       -0.642346   10.541899  -12.519020
     78          1           0       -0.707675   12.188044  -12.934059
     79          1           0        0.638251   10.049409  -10.514519
     80          1           0       -0.074554   10.902750   -9.152482
 ---------------------------------------------------------------------
 Rotational constants (GHZ):           0.1079558           0.0772342           0.0574097
 Standard basis: 6-31G(d) (6D, 7F)
   667 basis functions,  1256 primitive gaussians,   667 cartesian basis functions
   147 alpha electrons      147 beta electrons
       nuclear repulsion energy      5057.4857199146 Hartrees.
 NAtoms=   80 NActive=   80 NUniq=   80 SFac= 1.00D+00 NAtFMM=   60 NAOKFM=T Big=T
 Integral buffers will be    131072 words long.
 Raffenetti 2 integral format.
 Two-electron integral symmetry is turned off.
 Nuclear repulsion after empirical dispersion term =     5057.3627583239 Hartrees.
 One-electron integrals computed using PRISM.
 NBasis=   667 RedAO= T EigKep=  4.67D-04  NBF=   667
 NBsUse=   667 1.00D-06 EigRej= -1.00D+00 NBFU=   667
 Initial guess from the checkpoint file:  "conf-112.chk"
 B after Tr=     0.000000    0.000000    0.000000
         Rot=    1.000000    0.000000    0.000000    0.000000 Ang=   0.00 deg.
 Requested convergence on RMS density matrix=1.00D-08 within 128 cycles.
 Requested convergence on MAX density matrix=1.00D-06.
 Requested convergence on             energy=1.00D-06.
 No special actions if energy rises.
 SCF Done:  E(RB3LYP) =  -1866.75132264     A.U. after    3 cycles
            NFock=  3  Conv=0.11D-08     -V/T= 2.0094

 **********************************************************************

            Population analysis using the SCF Density.

 **********************************************************************

 Alpha  occ. eigenvalues --  -19.28791 -19.24254 -19.23611 -19.23235 -19.22967
 Alpha  occ. eigenvalues --  -19.20281 -14.48966 -14.48691 -14.47644 -14.47440
 Alpha  occ. eigenvalues --  -14.46891 -14.46752 -14.44738 -14.43295 -10.44628
 Alpha  occ. eigenvalues --  -10.42475 -10.41006 -10.40944 -10.39656 -10.37186
 Alpha  occ. eigenvalues --  -10.35632 -10.35208 -10.34656 -10.32376 -10.32169
 Alpha  occ. eigenvalues --  -10.32109 -10.30136 -10.29805 -10.29762 -10.29169
 Alpha  occ. eigenvalues --  -10.29006 -10.28884 -10.28710 -10.28645 -10.28598
 Alpha  occ. eigenvalues --  -10.27214 -10.25885 -10.23732 -10.22879  -1.19992
 Alpha  occ. eigenvalues --   -1.16253  -1.14884  -1.14390  -1.13439  -1.12111
 Alpha  occ. eigenvalues --   -1.11453  -1.04522  -1.04004  -1.03132  -1.01785
 Alpha  occ. eigenvalues --   -1.01659  -1.01171  -0.99510  -0.95345  -0.91578
 Alpha  occ. eigenvalues --   -0.90063  -0.88485  -0.87656  -0.86142  -0.84201
 Alpha  occ. eigenvalues --   -0.83554  -0.81242  -0.80314  -0.78068  -0.75526
 Alpha  occ. eigenvalues --   -0.74912  -0.74276  -0.73796  -0.72241  -0.71979
 Alpha  occ. eigenvalues --   -0.71089  -0.70245  -0.69890  -0.69379  -0.68837
 Alpha  occ. eigenvalues --   -0.68000  -0.67058  -0.66604  -0.65369  -0.64960
 Alpha  occ. eigenvalues --   -0.63787  -0.63332  -0.63195  -0.61965  -0.61222
 Alpha  occ. eigenvalues --   -0.60813  -0.60626  -0.59983  -0.59337  -0.59160
 Alpha  occ. eigenvalues --   -0.57575  -0.57247  -0.56695  -0.56064  -0.55975
 Alpha  occ. eigenvalues --   -0.55402  -0.55276  -0.55074  -0.54841  -0.54307
 Alpha  occ. eigenvalues --   -0.53482  -0.53235  -0.52943  -0.52735  -0.52098
 Alpha  occ. eigenvalues --   -0.51840  -0.51467  -0.51192  -0.50858  -0.50126
 Alpha  occ. eigenvalues --   -0.49645  -0.49555  -0.49157  -0.48882  -0.48511
 Alpha  occ. eigenvalues --   -0.47678  -0.47611  -0.47286  -0.46563  -0.46268
 Alpha  occ. eigenvalues --   -0.45611  -0.45400  -0.45310  -0.45003  -0.44876
 Alpha  occ. eigenvalues --   -0.44486  -0.43755  -0.43326  -0.43091  -0.41364
 Alpha  occ. eigenvalues --   -0.40451  -0.40358  -0.39660  -0.39315  -0.39183
 Alpha  occ. eigenvalues --   -0.38693  -0.38409  -0.38265  -0.38074  -0.37445
 Alpha  occ. eigenvalues --   -0.37127  -0.36678  -0.35711  -0.35045  -0.34069
 Alpha  occ. eigenvalues --   -0.33743  -0.32764
 Alpha virt. eigenvalues --   -0.11650  -0.10977  -0.10414  -0.09863  -0.09629
 Alpha virt. eigenvalues --   -0.09063  -0.08697  -0.05699  -0.04558  -0.03325
 Alpha virt. eigenvalues --   -0.02598  -0.02198  -0.01340  -0.00993   0.00190
 Alpha virt. eigenvalues --    0.00637   0.00994   0.01154   0.01307   0.02320
 Alpha virt. eigenvalues --    0.02517   0.02884   0.03070   0.03674   0.03873
 Alpha virt. eigenvalues --    0.04342   0.04926   0.05263   0.05314   0.05786
 Alpha virt. eigenvalues --    0.05822   0.06280   0.06474   0.07268   0.07616
 Alpha virt. eigenvalues --    0.07753   0.08207   0.08387   0.08730   0.08910
 Alpha virt. eigenvalues --    0.09091   0.09636   0.09785   0.10081   0.10338
 Alpha virt. eigenvalues --    0.10618   0.10973   0.11248   0.11536   0.11797
 Alpha virt. eigenvalues --    0.12063   0.12456   0.12862   0.13100   0.13484
 Alpha virt. eigenvalues --    0.14234   0.14699   0.14862   0.15666   0.15846
 Alpha virt. eigenvalues --    0.16104   0.16453   0.16972   0.17631   0.17768
 Alpha virt. eigenvalues --    0.18025   0.18401   0.19044   0.19225   0.19985
 Alpha virt. eigenvalues --    0.21119   0.21673   0.22723   0.23444   0.24102
 Alpha virt. eigenvalues --    0.24453   0.25210   0.26327   0.26493   0.27192
 Alpha virt. eigenvalues --    0.28511   0.28716   0.29350   0.29883   0.31426
 Alpha virt. eigenvalues --    0.32658   0.33353   0.36596   0.37461   0.38358
 Alpha virt. eigenvalues --    0.38803   0.39780   0.40951   0.41174   0.41369
 Alpha virt. eigenvalues --    0.42169   0.42713   0.42885   0.43609   0.44235
 Alpha virt. eigenvalues --    0.44563   0.45198   0.45324   0.45452   0.45869
 Alpha virt. eigenvalues --    0.46295   0.46635   0.47105   0.47216   0.47400
 Alpha virt. eigenvalues --    0.47637   0.47860   0.48222   0.49121   0.49169
 Alpha virt. eigenvalues --    0.49867   0.50290   0.50586   0.51196   0.51755
 Alpha virt. eigenvalues --    0.51955   0.52224   0.52454   0.52806   0.53378
 Alpha virt. eigenvalues --    0.53712   0.54022   0.54172   0.54622   0.55222
 Alpha virt. eigenvalues --    0.56102   0.56321   0.56586   0.57390   0.57474
 Alpha virt. eigenvalues --    0.57884   0.58356   0.59031   0.59571   0.59770
 Alpha virt. eigenvalues --    0.60068   0.60396   0.61085   0.61493   0.62187
 Alpha virt. eigenvalues --    0.62641   0.63320   0.63468   0.64422   0.64938
 Alpha virt. eigenvalues --    0.65476   0.66012   0.66848   0.67152   0.67985
 Alpha virt. eigenvalues --    0.68253   0.68867   0.69310   0.70114   0.70165
 Alpha virt. eigenvalues --    0.71161   0.71643   0.72291   0.72606   0.73020
 Alpha virt. eigenvalues --    0.73356   0.73771   0.73995   0.74304   0.74560
 Alpha virt. eigenvalues --    0.75000   0.75208   0.75814   0.75861   0.76429
 Alpha virt. eigenvalues --    0.76586   0.76617   0.77492   0.77603   0.78027
 Alpha virt. eigenvalues --    0.78071   0.78346   0.78963   0.79288   0.79649
 Alpha virt. eigenvalues --    0.79965   0.80232   0.80871   0.81186   0.81329
 Alpha virt. eigenvalues --    0.82115   0.82310   0.82748   0.83331   0.83714
 Alpha virt. eigenvalues --    0.84134   0.84247   0.84697   0.84908   0.84935
 Alpha virt. eigenvalues --    0.85392   0.85875   0.86125   0.86980   0.87218
 Alpha virt. eigenvalues --    0.87737   0.88416   0.88678   0.89406   0.89499
 Alpha virt. eigenvalues --    0.90004   0.90400   0.90476   0.91185   0.91866
 Alpha virt. eigenvalues --    0.93044   0.93459   0.94043   0.94452   0.94785
 Alpha virt. eigenvalues --    0.95961   0.96042   0.96283   0.98069   0.98617
 Alpha virt. eigenvalues --    0.99343   0.99893   1.00252   1.00502   1.01867
 Alpha virt. eigenvalues --    1.02134   1.02284   1.04086   1.04712   1.05526
 Alpha virt. eigenvalues --    1.06184   1.06408   1.07717   1.08313   1.08742
 Alpha virt. eigenvalues --    1.10504   1.11226   1.11571   1.12430   1.13540
 Alpha virt. eigenvalues --    1.14647   1.15084   1.15454   1.16233   1.17300
 Alpha virt. eigenvalues --    1.17341   1.18009   1.18721   1.19041   1.20046
 Alpha virt. eigenvalues --    1.20598   1.22126   1.22303   1.22981   1.23729
 Alpha virt. eigenvalues --    1.24140   1.25451   1.26145   1.27639   1.28350
 Alpha virt. eigenvalues --    1.29168   1.29907   1.30825   1.31603   1.32329
 Alpha virt. eigenvalues --    1.33590   1.35218   1.35398   1.36798   1.37272
 Alpha virt. eigenvalues --    1.38324   1.38577   1.39008   1.39180   1.39552
 Alpha virt. eigenvalues --    1.40161   1.40747   1.41054   1.41619   1.42792
 Alpha virt. eigenvalues --    1.43906   1.44965   1.45670   1.47021   1.47594
 Alpha virt. eigenvalues --    1.48976   1.49870   1.50922   1.51444   1.52370
 Alpha virt. eigenvalues --    1.52735   1.53836   1.54433   1.55438   1.56611
 Alpha virt. eigenvalues --    1.57895   1.58095   1.59673   1.61263   1.61482
 Alpha virt. eigenvalues --    1.62160   1.62334   1.63437   1.63649   1.65540
 Alpha virt. eigenvalues --    1.65618   1.65963   1.66458   1.66654   1.67819
 Alpha virt. eigenvalues --    1.68679   1.69748   1.69956   1.70340   1.70796
 Alpha virt. eigenvalues --    1.71134   1.71818   1.72359   1.72557   1.73576
 Alpha virt. eigenvalues --    1.73633   1.74409   1.75177   1.75815   1.76100
 Alpha virt. eigenvalues --    1.76336   1.77140   1.77681   1.78462   1.78715
 Alpha virt. eigenvalues --    1.79709   1.79777   1.80946   1.81214   1.81629
 Alpha virt. eigenvalues --    1.82795   1.84032   1.84693   1.84769   1.85414
 Alpha virt. eigenvalues --    1.85551   1.86345   1.86578   1.87808   1.88251
 Alpha virt. eigenvalues --    1.88803   1.89203   1.89578   1.90222   1.90408
 Alpha virt. eigenvalues --    1.91072   1.91462   1.91912   1.92738   1.93233
 Alpha virt. eigenvalues --    1.93672   1.94859   1.95112   1.95190   1.95785
 Alpha virt. eigenvalues --    1.96074   1.96575   1.97574   1.98225   1.98658
 Alpha virt. eigenvalues --    1.98918   2.00503   2.01177   2.02159   2.02434
 Alpha virt. eigenvalues --    2.02808   2.03169   2.03879   2.04605   2.05273
 Alpha virt. eigenvalues --    2.05426   2.06041   2.06939   2.07215   2.08273
 Alpha virt. eigenvalues --    2.09557   2.10392   2.11351   2.11677   2.12839
 Alpha virt. eigenvalues --    2.13355   2.14629   2.15833   2.16432   2.18011
 Alpha virt. eigenvalues --    2.18639   2.19137   2.20179   2.20920   2.21269
 Alpha virt. eigenvalues --    2.21471   2.21805   2.23174   2.25038   2.25654
 Alpha virt. eigenvalues --    2.26713   2.28225   2.29461   2.30144   2.30536
 Alpha virt. eigenvalues --    2.31671   2.32071   2.32684   2.33302   2.33622
 Alpha virt. eigenvalues --    2.34977   2.35945   2.37066   2.37861   2.38752
 Alpha virt. eigenvalues --    2.39162   2.39904   2.40165   2.40579   2.42145
 Alpha virt. eigenvalues --    2.43607   2.44441   2.44858   2.45360   2.46173
 Alpha virt. eigenvalues --    2.47853   2.48544   2.49685   2.50020   2.50832
 Alpha virt. eigenvalues --    2.51490   2.52016   2.52406   2.52935   2.54738
 Alpha virt. eigenvalues --    2.55617   2.55827   2.56594   2.56836   2.59146
 Alpha virt. eigenvalues --    2.60100   2.60511   2.60900   2.61813   2.62934
 Alpha virt. eigenvalues --    2.64250   2.64755   2.65274   2.66146   2.66811
 Alpha virt. eigenvalues --    2.67135   2.68521   2.70461   2.72013   2.73226
 Alpha virt. eigenvalues --    2.74884   2.75612   2.79193   2.81704   2.84214
 Alpha virt. eigenvalues --    2.85428   2.87618   2.89292   2.90493   2.93095
 Alpha virt. eigenvalues --    2.93218   2.94783   2.96236   2.96459   2.97256
 Alpha virt. eigenvalues --    2.97798   3.01657   3.04500   3.06085   3.08929
 Alpha virt. eigenvalues --    3.30795   3.70374   3.72098   3.82718   3.84916
 Alpha virt. eigenvalues --    3.90294   3.93337   3.94458   3.95408   3.97836
 Alpha virt. eigenvalues --    3.98761   4.03145   4.05124   4.06037   4.08066
 Alpha virt. eigenvalues --    4.08997   4.12125   4.15018   4.15224   4.18221
 Alpha virt. eigenvalues --    4.19547   4.20997   4.23056   4.24573   4.24975
 Alpha virt. eigenvalues --    4.26970   4.28327   4.31152   4.33217   4.35889
 Alpha virt. eigenvalues --    4.37768   4.41267   4.43402   4.46108   4.51184
 Alpha virt. eigenvalues --    4.55836   4.58437   4.62449   4.63882   4.65148
          Condensed to atoms (all electrons):
 Mulliken charges:
               1
     1  N   -0.830019
     2  C   -0.051162
     3  C    0.593305
     4  O   -0.493472
     5  C   -0.386999
     6  C    0.179063
     7  C   -0.219511
     8  C   -0.183554
     9  C   -0.158978
    10  C   -0.134794
    11  C   -0.137065
    12  H    0.362378
    13  H    0.174357
    14  H    0.190021
    15  H    0.154701
    16  H    0.143496
    17  H    0.150392
    18  H    0.148416
    19  H    0.158498
    20  H    0.155161
    21  H    0.352730
    22  N   -0.616234
    23  C   -0.063901
    24  C    0.607733
    25  O   -0.543905
    26  C   -0.266915
    27  C   -0.069501
    28  C   -0.446413
    29  C   -0.473276
    30  H    0.351847
    31  H    0.217543
    32  H    0.109932
    33  H    0.153949
    34  H    0.138288
    35  H    0.147237
    36  H    0.158539
    37  H    0.135023
    38  H    0.139506
    39  H    0.183677
    40  H    0.154790
    41  N   -0.607879
    42  C   -0.005222
    43  C    0.571025
    44  O   -0.554221
    45  C   -0.429899
    46  C    0.628982
    47  N   -0.740347
    48  O   -0.519861
    49  H    0.345548
    50  H    0.209172
    51  H    0.200286
    52  H    0.191999
    53  H    0.367101
    54  H    0.356688
    55  N   -0.618951
    56  C   -0.069367
    57  C    0.610806
    58  O   -0.487914
    59  C   -0.275195
    60  C   -0.286216
    61  C   -0.182242
    62  N   -0.596502
    63  C    0.757672
    64  N   -0.730545
    65  N   -0.768453
    66  O   -0.588518
    67  H    0.476730
    68  H    0.394916
    69  H    0.199122
    70  H    0.170863
    71  H    0.165027
    72  H    0.178479
    73  H    0.164993
    74  H    0.172208
    75  H    0.182042
    76  H    0.392985
    77  H    0.382418
    78  H    0.364196
    79  H    0.356758
    80  H    0.436433
 Sum of Mulliken charges =   1.00000
 Mulliken charges with hydrogens summed into heavy atoms:
               1
     1  N   -0.114911
     2  C    0.123195
     3  C    0.593305
     4  O   -0.493472
     5  C   -0.042277
     6  C    0.179063
     7  C   -0.076015
     8  C   -0.033162
     9  C   -0.010562
    10  C    0.023704
    11  C    0.018096
    22  N   -0.264386
    23  C    0.153642
    24  C    0.607733
    25  O   -0.543905
    26  C   -0.003034
    27  C    0.068787
    28  C   -0.005613
    29  C    0.004697
    41  N   -0.262331
    42  C    0.203950
    43  C    0.571025
    44  O   -0.554221
    45  C   -0.037614
    46  C    0.628982
    47  N   -0.016558
    48  O   -0.519861
    55  N   -0.224036
    56  C    0.129755
    57  C    0.610806
    58  O   -0.487914
    59  C    0.060694
    60  C    0.057256
    61  C    0.172008
    62  N   -0.203518
    63  C    0.757672
    64  N    0.016069
    65  N    0.024738
    66  O   -0.111788
 Electronic spatial extent (au):  <R**2>=         218652.1582
 Charge=              1.0000 electrons
 Dipole moment (field-independent basis, Debye):
    X=            -17.0197    Y=             63.1578    Z=            -40.1844  Tot=             76.7683
 Quadrupole moment (field-independent basis, Debye-Ang):
   XX=           -100.2663   YY=            599.9753   ZZ=            169.5893
   XY=           -227.3312   XZ=            100.1816   YZ=           -529.8070
 Traceless Quadrupole moment (field-independent basis, Debye-Ang):
   XX=           -323.3657   YY=            376.8758   ZZ=            -53.5101
   XY=           -227.3312   XZ=            100.1816   YZ=           -529.8070
 Octapole moment (field-independent basis, Debye-Ang**2):
  XXX=            833.9803  YYY=           3109.1208  ZZZ=            623.9261  XYY=          -2433.6361
  XXY=           -874.2555  XXZ=            902.3678  XZZ=           -103.8247  YZZ=           2562.5698
  YYZ=          -5343.0541  XYZ=           1397.0703
 Hexadecapole moment (field-independent basis, Debye-Ang**3):
 XXXX=         -11067.5089 YYYY=         -37886.8736 ZZZZ=         -33218.7683 XXXY=           6475.6846
 XXXZ=          -6592.8069 YYYX=         -20711.7013 YYYZ=         -34610.6487 ZZZX=          -6090.2240
 ZZZY=           3146.1866 XXYY=         -10356.5640 XXZZ=         -12317.4565 YYZZ=          23271.0066
 XXYZ=           9108.9248 YYXZ=          15110.6894 ZZXY=          -3430.5396
 N-N= 5.057362758324D+03 E-N=-1.443235785160D+04  KE= 1.849315362634D+03
 Unable to Open any file for archive entry.
 1\1\GINC-QML-003\SP\RB3LYP\6-31G(d)\C25H41N8O6(1+)\KENGMITH\11-Jun-202
 2\0\\# B3LYP/6-31G* empiricaldispersion=gd3 guess=read geom=check nosy
 mm integral(ultrafinegrid)\\Candidate Structure: Conf:112 Charge calc 
 in gas phase\\1,1\N,0,-1.0157028181,10.605608639,-7.6513960131\C,0,-0.
 3443666608,10.7559364983,-6.3396266988\C,0,-1.0140088422,9.7919346087,
 -5.3387835888\O,0,-0.534235366,8.6915795207,-5.1099285373\C,0,-0.34046
 12072,12.2301698334,-5.8992366665\C,0,0.2281099496,13.2019603142,-6.91
 32709545\C,0,-0.5231238565,14.3173777228,-7.3124894168\C,0,1.520509179
 3,13.0471684955,-7.4361347667\C,0,0.0136125422,15.2730315448,-8.182716
 8078\C,0,2.052509561,13.9874482684,-8.320128089\C,0,1.3049245355,15.10
 9693738,-8.6902534493\H,0,-1.9346318825,11.0521515795,-7.6073819971\H,
 0,0.6818154335,10.3934111718,-6.4441428229\H,0,0.2270444379,12.2981935
 963,-4.9624831714\H,0,-1.3611159008,12.5506038764,-5.6635078958\H,0,-1
 .5301158916,14.4475610731,-6.9228935447\H,0,2.1218056082,12.1909573299
 ,-7.1415750612\H,0,-0.5742968122,16.1457637635,-8.4551639801\H,0,3.056
 1792968,13.850056206,-8.7117222339\H,0,1.7259572789,15.8485265697,-9.3
 656237941\H,0,-1.215069066,9.6178691955,-7.8227541959\N,0,-2.221143426
 1,10.2125951952,-4.8343275081\C,0,-3.2456510462,9.2445082993,-4.406766
 2882\C,0,-4.3361533138,9.4363587616,-5.4658068199\O,0,-4.2746479114,8.
 8653477646,-6.5577397128\C,0,-3.66045699,9.4247269909,-2.943056378\C,0
 ,-2.5195389602,9.1892694332,-1.9323765794\C,0,-3.016486782,9.500403335
 9,-0.5133977398\C,0,-1.9485569975,7.7657764793,-2.0172590074\H,0,-2.59
 91569286,11.0677086589,-5.228453945\H,0,-2.829081763,8.2493159276,-4.5
 66034307\H,0,-4.0442187044,10.4454030104,-2.7871493214\H,0,-4.49055982
 41,8.7370840789,-2.7285849138\H,0,-1.7143938968,9.8956195661,-2.178526
 9228\H,0,-3.8204040394,8.8128413366,-0.2206087125\H,0,-2.2062677675,9.
 3911816135,0.2153759282\H,0,-3.4036303554,10.5239114814,-0.4332054409\
 H,0,-2.740619651,7.0170601576,-1.8832999812\H,0,-1.4489638253,7.583504
 6293,-2.9733134829\H,0,-1.2080483678,7.6070471442,-1.2256794285\N,0,-5
 .2665167308,10.405062494,-5.2291336512\C,0,-5.955615032,10.9766680766,
 -6.3724703875\C,0,-4.8768482135,11.4411065855,-7.3924938999\O,0,-3.767
 1751885,11.8393783154,-7.0160716512\C,0,-6.8984860404,12.1048119799,-5
 .9442278156\C,0,-7.923351858,12.4243802127,-7.0404752487\N,0,-8.803951
 2298,13.4059722724,-6.7366882418\O,0,-7.9440353211,11.8316652142,-8.11
 81907546\H,0,-5.1828979249,10.9573211831,-4.3865179801\H,0,-6.54606057
 19,10.187388595,-6.8428201233\H,0,-7.4412321424,11.7917657152,-5.04261
 03624\H,0,-6.335489907,13.0104678952,-5.683482104\H,0,-9.5401540634,13
 .6115028575,-7.3993335224\H,0,-8.8511034586,13.8328576993,-5.822877502
 \N,0,-5.2302744568,11.286592724,-8.684343161\C,0,-4.3386701456,11.4525
 970048,-9.8247338155\C,0,-3.3692164803,10.2559901302,-10.0078633838\O,
 0,-2.6429863611,10.2116252585,-10.9828478448\C,0,-3.5578034628,12.7966
 783154,-9.8175410168\C,0,-3.0247364571,13.2168411905,-11.2047780743\C,
 0,-1.6337671085,13.868368827,-11.134129672\N,0,-0.6197097935,12.993734
 8712,-10.5304125377\C,0,-0.2491037904,11.7926842487,-10.9889244127\N,0
 ,-0.3478979636,11.4865043043,-12.3030187283\N,0,0.2920561713,10.922017
 2476,-10.1374572409\O,0,-3.3143244876,9.2881468514,-9.0957198781\H,0,-
 3.9356955776,9.3521702582,-8.3333039482\H,0,-6.2225879363,11.125142634
 9,-8.8501383406\H,0,-4.9809384628,11.4356842555,-10.7111236465\H,0,-2.
 7412790033,12.7198466945,-9.0975012774\H,0,-4.235872869,13.5610630736,
 -9.4246111512\H,0,-2.9692304607,12.3447478339,-11.8592290461\H,0,-3.70
 96500529,13.9289115124,-11.6800707829\H,0,-1.3057921885,14.1961527186,
 -12.1280513983\H,0,-1.648779225,14.7635007733,-10.5074083168\H,0,-0.31
 86184558,13.221608221,-9.5895834014\H,0,-0.6423460273,10.5418993276,-1
 2.5190201291\H,0,-0.7076749686,12.1880443844,-12.9340593591\H,0,0.6382
 506447,10.0494090797,-10.5145186696\H,0,-0.0745540671,10.9027502827,-9
 .1524822757\\Version=ES64L-G16RevC.01\HF=-1866.7513226\RMSD=1.116e-09\
 Dipole=-1.6078154,3.3749481,-2.0627501\Quadrupole=-240.4144878,280.197
 95,-39.7834622,-169.0151813,74.4825818,-393.8985293\PG=C01 [X(C25H41N8
 O6)]\\@
 The archive entry for this job was punched.


 FAULTILY FAULTLESS, ICILY REGULAR, SPLENDIDLY NULL...
           MAUDE BY TENNYSON
 Job cpu time:       0 days  0 hours  8 minutes  7.1 seconds.
 Elapsed time:       0 days  0 hours  2 minutes  2.5 seconds.
 File lengths (MBytes):  RWF=    344 Int=      0 D2E=      0 Chk=     48 Scr=     16
 Normal termination of Gaussian 16 at Sat Jun 11 21:08:26 2022.
