 Entering Gaussian System, Link 0=/opt/software/Gaussian/g16-AVX2-C.01/g16/g16
 Input=charge-conf-399.com
 Output=charge-conf-399.log
 Initial command:
 /opt/software/Gaussian/g16-AVX2-C.01/g16/l1.exe "/mnt/gs18/scratch/users/kengmith/Gau-9856.inp" -scrdir="/mnt/gs18/scratch/users/kengmith/"
 Entering Link 1 = /opt/software/Gaussian/g16-AVX2-C.01/g16/l1.exe PID=      9866.
  
 Copyright (c) 1988-2019, Gaussian, Inc.  All Rights Reserved.
  
 This is part of the Gaussian(R) 16 program.  It is based on
 the Gaussian(R) 09 system (copyright 2009, Gaussian, Inc.),
 the Gaussian(R) 03 system (copyright 2003, Gaussian, Inc.),
 the Gaussian(R) 98 system (copyright 1998, Gaussian, Inc.),
 the Gaussian(R) 94 system (copyright 1995, Gaussian, Inc.),
 the Gaussian 92(TM) system (copyright 1992, Gaussian, Inc.),
 the Gaussian 90(TM) system (copyright 1990, Gaussian, Inc.),
 the Gaussian 88(TM) system (copyright 1988, Gaussian, Inc.),
 the Gaussian 86(TM) system (copyright 1986, Carnegie Mellon
 University), and the Gaussian 82(TM) system (copyright 1983,
 Carnegie Mellon University). Gaussian is a federally registered
 trademark of Gaussian, Inc.
  
 This software contains proprietary and confidential information,
 including trade secrets, belonging to Gaussian, Inc.
  
 This software is provided under written license and may be
 used, copied, transmitted, or stored only in accord with that
 written license.
  
 The following legend is applicable only to US Government
 contracts under FAR:
  
                    RESTRICTED RIGHTS LEGEND
  
 Use, reproduction and disclosure by the US Government is
 subject to restrictions as set forth in subparagraphs (a)
 and (c) of the Commercial Computer Software - Restricted
 Rights clause in FAR 52.227-19.
  
 Gaussian, Inc.
 340 Quinnipiac St., Bldg. 40, Wallingford CT 06492
  
  
 ---------------------------------------------------------------
 Warning -- This program may not be used in any manner that
 competes with the business of Gaussian, Inc. or will provide
 assistance to any competitor of Gaussian, Inc.  The licensee
 of this program is prohibited from giving any competitor of
 Gaussian, Inc. access to this program.  By using this program,
 the user acknowledges that Gaussian, Inc. is engaged in the
 business of creating and licensing software in the field of
 computational chemistry and represents and warrants to the
 licensee that it is not a competitor of Gaussian, Inc. and that
 it will not use this program in any manner prohibited above.
 ---------------------------------------------------------------
  

 Cite this work as:
 Gaussian 16, Revision C.01,
 M. J. Frisch, G. W. Trucks, H. B. Schlegel, G. E. Scuseria, 
 M. A. Robb, J. R. Cheeseman, G. Scalmani, V. Barone, 
 G. A. Petersson, H. Nakatsuji, X. Li, M. Caricato, A. V. Marenich, 
 J. Bloino, B. G. Janesko, R. Gomperts, B. Mennucci, H. P. Hratchian, 
 J. V. Ortiz, A. F. Izmaylov, J. L. Sonnenberg, D. Williams-Young, 
 F. Ding, F. Lipparini, F. Egidi, J. Goings, B. Peng, A. Petrone, 
 T. Henderson, D. Ranasinghe, V. G. Zakrzewski, J. Gao, N. Rega, 
 G. Zheng, W. Liang, M. Hada, M. Ehara, K. Toyota, R. Fukuda, 
 J. Hasegawa, M. Ishida, T. Nakajima, Y. Honda, O. Kitao, H. Nakai, 
 T. Vreven, K. Throssell, J. A. Montgomery, Jr., J. E. Peralta, 
 F. Ogliaro, M. J. Bearpark, J. J. Heyd, E. N. Brothers, K. N. Kudin, 
 V. N. Staroverov, T. A. Keith, R. Kobayashi, J. Normand, 
 K. Raghavachari, A. P. Rendell, J. C. Burant, S. S. Iyengar, 
 J. Tomasi, M. Cossi, J. M. Millam, M. Klene, C. Adamo, R. Cammi, 
 J. W. Ochterski, R. L. Martin, K. Morokuma, O. Farkas, 
 J. B. Foresman, and D. J. Fox, Gaussian, Inc., Wallingford CT, 2019.
 
 ******************************************
 Gaussian 16:  ES64L-G16RevC.01  3-Jul-2019
                11-Jun-2022 
 ******************************************
 %mem=8gb
 %nproc=4
 Will use up to    4 processors via shared memory.
 %chk=conf-399.chk
 ----------------------------------------------------------------------
 # B3LYP/6-31G* empiricaldispersion=gd3 guess=read geom=check nosymm in
 tegral(ultrafinegrid)
 ----------------------------------------------------------------------
 1/29=2,38=1,172=1/1;
 2/12=2,15=1,40=1/2;
 3/5=1,6=6,7=1,11=2,14=-4,25=1,30=1,74=-5,75=-5,116=-2,124=31/1,2,3;
 4/5=1/1;
 5/5=2,38=6/2;
 6/7=2,8=2,9=2,10=2,28=1/1;
 99/5=1,9=1/99;
 ------------------------------------------------------
 Candidate Structure: Conf:399 Charge calc in gas phase
 ------------------------------------------------------
 Structure from the checkpoint file:  "conf-399.chk"
 Charge =  1 Multiplicity = 1
 Redundant internal coordinates found in file.  (old form).
 N,0,-4.7009836947,9.9265872943,-5.4901971788
 C,0,-3.3744103368,9.7692074874,-4.8041362107
 C,0,-3.0008368316,11.1846956535,-4.3166766315
 O,0,-3.8481097845,12.073226584,-4.3401343523
 C,0,-2.3778855161,9.0771562271,-5.7548003821
 C,0,-2.8533816673,7.6851122953,-6.1218303786
 C,0,-2.5765068281,6.6013348403,-5.2762347028
 C,0,-3.6299735847,7.4687460429,-7.2697634352
 C,0,-3.0596826394,5.3262252934,-5.5689241183
 C,0,-4.1174977158,6.1911180554,-7.5592439555
 C,0,-3.8348775753,5.1184651104,-6.7126469768
 H,0,-5.2895737593,10.5533638119,-4.929674631
 H,0,-3.5401106559,9.1352180653,-3.9243335876
 H,0,-1.4113494467,9.0079925475,-5.2427719867
 H,0,-2.2256255778,9.7110471315,-6.6338113814
 H,0,-1.9686631679,6.754948062,-4.3864200855
 H,0,-3.8537311899,8.2905241653,-7.9456267466
 H,0,-2.8283048636,4.4956019153,-4.9082128737
 H,0,-4.7148901129,6.0369750703,-8.4538366456
 H,0,-4.2109083435,4.1257084211,-6.9426029363
 H,0,-5.1471257502,9.0180256641,-5.6356347889
 N,0,-1.7472804261,11.366411884,-3.8424285295
 C,0,-1.2936834856,12.6952909229,-3.3997746362
 C,0,-1.447108342,13.7285179668,-4.5363411295
 O,0,-1.844276306,14.8655820978,-4.323825065
 C,0,0.1533381122,12.5937745352,-2.8917302506
 C,0,0.7910858801,13.9340571068,-2.4757873416
 C,0,-0.0406687816,14.6719560284,-1.4167170165
 C,0,2.2242133886,13.6855937715,-1.9849295939
 H,0,-1.0795189923,10.6078661915,-3.8601126824
 H,0,-1.961186564,13.0406881445,-2.6075754666
 H,0,0.1676058664,11.9065113944,-2.0333522003
 H,0,0.7704194847,12.137344492,-3.6800878866
 H,0,0.841622246,14.5720579358,-3.368980027
 H,0,0.4899593765,15.5653353595,-1.0696496462
 H,0,-1.0043260191,14.9956405136,-1.8206798893
 H,0,-0.2193014322,14.032334424,-0.5420248283
 H,0,2.7212689742,14.6311877996,-1.7432588514
 H,0,2.2255425533,13.068535469,-1.0771689377
 H,0,2.8289067972,13.1714841806,-2.741994442
 N,0,-1.0853867334,13.275382117,-5.7696444422
 C,0,-1.6967948282,13.8369637721,-6.9607153713
 C,0,-1.830038665,12.654866385,-7.9458694949
 O,0,-1.3141185645,11.5594189872,-7.6907499709
 C,0,-0.923200825,15.0640925808,-7.4875314095
 C,0,-1.792981793,16.010398958,-8.311571379
 N,0,-1.3304707958,17.2805026074,-8.4135686378
 O,0,-2.834841269,15.6582373214,-8.870600151
 H,0,-0.8691184571,12.2897678008,-5.8874037256
 H,0,-2.7121442946,14.1662244235,-6.7078204127
 H,0,-0.5408992039,15.5956501631,-6.6105477331
 H,0,-0.056343393,14.7580843301,-8.0869919054
 H,0,-1.8987902483,17.9561545372,-8.9067248851
 H,0,-0.566331395,17.6217565053,-7.849429552
 N,0,-2.5731126813,12.8845495284,-9.0472138543
 C,0,-3.1654453442,11.7657291234,-9.7615223669
 C,0,-4.085082491,10.9230100519,-8.8211930285
 O,0,-4.6688196684,9.9146471127,-9.3351586861
 C,0,-2.0930930613,10.9075131511,-10.5094352998
 C,0,-2.1830044055,10.9541685853,-12.0512852967
 C,0,-3.0892759137,9.8743791105,-12.6669262724
 N,0,-4.3920191555,9.8114646827,-12.0004043065
 C,0,-5.5462343591,10.3214903038,-12.4038462102
 N,0,-5.8228658516,10.5699988524,-13.6998587524
 N,0,-6.4821778493,10.6003640721,-11.472480278
 O,0,-4.2114555023,11.3041661094,-7.6342166122
 H,0,-4.5792767821,10.4280227982,-6.4600492214
 H,0,-2.9899544608,13.815479843,-9.1143145133
 H,0,-3.8403559328,12.2081698801,-10.5037821265
 H,0,-2.1316083039,9.8695001416,-10.1592465766
 H,0,-1.1167841268,11.2822226928,-10.2023785628
 H,0,-2.5215553744,11.9473446209,-12.3742542809
 H,0,-1.1854748,10.8114690173,-12.4838559916
 H,0,-3.2135328905,10.0406368135,-13.741433473
 H,0,-2.628131846,8.8879858051,-12.5508294708
 H,0,-4.3596896479,9.6622932292,-10.965013765
 H,0,-6.5962742101,11.1653080003,-13.955979272
 H,0,-5.1838985035,10.2974540707,-14.4302156768
 H,0,-7.4611662293,10.5919913724,-11.7214150582
 H,0,-6.228708601,10.4102421157,-10.5003743405
 Recover connectivity data from disk.
                           ----------------------------
                           !    Current Parameters    !
                           ! (Angstroms and Degrees)  !
 --------------------------                            --------------------------
 ! Name  Definition              Value                                          !
 --------------------------------------------------------------------------------
 ! R1    R(1,2)                  1.5017                                         !
 ! R2    R(1,12)                 1.0264                                         !
 ! R3    R(1,21)                 1.0226                                         !
 ! R4    R(2,3)                  1.543                                          !
 ! R5    R(2,5)                  1.5413                                         !
 ! R6    R(2,13)                 1.097                                          !
 ! R7    R(3,4)                  1.228                                          !
 ! R8    R(3,22)                 1.3525                                         !
 ! R9    R(5,6)                  1.5161                                         !
 ! R10   R(5,14)                 1.096                                          !
 ! R11   R(5,15)                 1.0944                                         !
 ! R12   R(6,7)                  1.4022                                         !
 ! R13   R(6,8)                  1.4027                                         !
 ! R14   R(7,9)                  1.3946                                         !
 ! R15   R(7,16)                 1.0885                                         !
 ! R16   R(8,10)                 1.3978                                         !
 ! R17   R(8,17)                 1.0873                                         !
 ! R18   R(9,11)                 1.3972                                         !
 ! R19   R(9,18)                 1.0863                                         !
 ! R20   R(10,11)                1.3954                                         !
 ! R21   R(10,19)                1.0867                                         !
 ! R22   R(11,20)                1.0862                                         !
 ! R23   R(22,23)                1.4723                                         !
 ! R24   R(22,30)                1.0107                                         !
 ! R25   R(23,24)                1.5437                                         !
 ! R26   R(23,26)                1.537                                          !
 ! R27   R(23,31)                1.092                                          !
 ! R28   R(24,25)                1.223                                          !
 ! R29   R(24,41)                1.3628                                         !
 ! R30   R(26,27)                1.5415                                         !
 ! R31   R(26,32)                1.0997                                         !
 ! R32   R(26,33)                1.1003                                         !
 ! R33   R(27,28)                1.5356                                         !
 ! R34   R(27,29)                1.5351                                         !
 ! R35   R(27,34)                1.0988                                         !
 ! R36   R(28,35)                1.0955                                         !
 ! R37   R(28,36)                1.0939                                         !
 ! R38   R(28,37)                1.0982                                         !
 ! R39   R(29,38)                1.0953                                         !
 ! R40   R(29,39)                1.0976                                         !
 ! R41   R(29,40)                1.0969                                         !
 ! R42   R(41,42)                1.4518                                         !
 ! R43   R(41,49)                1.0159                                         !
 ! R44   R(42,43)                1.5446                                         !
 ! R45   R(42,45)                1.5433                                         !
 ! R46   R(42,50)                1.097                                          !
 ! R47   R(43,44)                1.2374                                         !
 ! R48   R(43,55)                1.3483                                         !
 ! R49   R(45,46)                1.5268                                         !
 ! R50   R(45,51)                1.0944                                         !
 ! R51   R(45,52)                1.0975                                         !
 ! R52   R(46,47)                1.3555                                         !
 ! R53   R(46,48)                1.2337                                         !
 ! R54   R(47,53)                1.0113                                         !
 ! R55   R(47,54)                1.0093                                         !
 ! R56   R(55,56)                1.4536                                         !
 ! R57   R(55,68)                1.0222                                         !
 ! R58   R(56,57)                1.5621                                         !
 ! R59   R(56,59)                1.5639                                         !
 ! R60   R(56,69)                1.0965                                         !
 ! R61   R(57,58)                1.2735                                         !
 ! R62   R(57,66)                1.2531                                         !
 ! R63   R(59,60)                1.5452                                         !
 ! R64   R(59,70)                1.0962                                         !
 ! R65   R(59,71)                1.0899                                         !
 ! R66   R(60,61)                1.5383                                         !
 ! R67   R(60,72)                1.0979                                         !
 ! R68   R(60,73)                1.0966                                         !
 ! R69   R(61,62)                1.4647                                         !
 ! R70   R(61,74)                1.0944                                         !
 ! R71   R(61,75)                1.095                                          !
 ! R72   R(62,63)                1.3248                                         !
 ! R73   R(62,76)                1.0466                                         !
 ! R74   R(63,64)                1.3483                                         !
 ! R75   R(63,65)                1.3495                                         !
 ! R76   R(64,77)                1.009                                          !
 ! R77   R(64,78)                1.008                                          !
 ! R78   R(65,79)                1.0102                                         !
 ! R79   R(65,80)                1.0224                                         !
 ! R80   R(66,67)                1.5105                                         !
 ! A1    A(2,1,12)             108.728                                          !
 ! A2    A(2,1,21)             110.932                                          !
 ! A3    A(12,1,21)            111.7186                                         !
 ! A4    A(1,2,3)              105.1922                                         !
 ! A5    A(1,2,5)              109.6575                                         !
 ! A6    A(1,2,13)             107.0689                                         !
 ! A7    A(3,2,5)              116.7573                                         !
 ! A8    A(3,2,13)             108.2626                                         !
 ! A9    A(5,2,13)             109.4402                                         !
 ! A10   A(2,3,4)              119.3869                                         !
 ! A11   A(2,3,22)             117.2853                                         !
 ! A12   A(4,3,22)             123.2965                                         !
 ! A13   A(2,5,6)              111.026                                          !
 ! A14   A(2,5,14)             108.0807                                         !
 ! A15   A(2,5,15)             108.9826                                         !
 ! A16   A(6,5,14)             109.3749                                         !
 ! A17   A(6,5,15)             112.3966                                         !
 ! A18   A(14,5,15)            106.8045                                         !
 ! A19   A(5,6,7)              120.1146                                         !
 ! A20   A(5,6,8)              120.8886                                         !
 ! A21   A(7,6,8)              118.9205                                         !
 ! A22   A(6,7,9)              120.7761                                         !
 ! A23   A(6,7,16)             119.6136                                         !
 ! A24   A(9,7,16)             119.6073                                         !
 ! A25   A(6,8,10)             120.236                                          !
 ! A26   A(6,8,17)             120.4011                                         !
 ! A27   A(10,8,17)            119.362                                          !
 ! A28   A(7,9,11)             119.9974                                         !
 ! A29   A(7,9,18)             119.8459                                         !
 ! A30   A(11,9,18)            120.1562                                         !
 ! A31   A(8,10,11)            120.4197                                         !
 ! A32   A(8,10,19)            119.4637                                         !
 ! A33   A(11,10,19)           120.1156                                         !
 ! A34   A(9,11,10)            119.6497                                         !
 ! A35   A(9,11,20)            120.0841                                         !
 ! A36   A(10,11,20)           120.2655                                         !
 ! A37   A(3,22,23)            120.8128                                         !
 ! A38   A(3,22,30)            120.3548                                         !
 ! A39   A(23,22,30)           118.6266                                         !
 ! A40   A(22,23,24)           110.619                                          !
 ! A41   A(22,23,26)           109.2582                                         !
 ! A42   A(22,23,31)           108.3779                                         !
 ! A43   A(24,23,26)           112.4055                                         !
 ! A44   A(24,23,31)           105.1697                                         !
 ! A45   A(26,23,31)           110.8908                                         !
 ! A46   A(23,24,25)           121.7777                                         !
 ! A47   A(23,24,41)           114.6694                                         !
 ! A48   A(25,24,41)           123.5439                                         !
 ! A49   A(23,26,27)           114.9156                                         !
 ! A50   A(23,26,32)           108.1499                                         !
 ! A51   A(23,26,33)           108.5768                                         !
 ! A52   A(27,26,32)           109.1111                                         !
 ! A53   A(27,26,33)           108.7836                                         !
 ! A54   A(32,26,33)           107.0223                                         !
 ! A55   A(26,27,28)           112.3231                                         !
 ! A56   A(26,27,29)           109.378                                          !
 ! A57   A(26,27,34)           107.7302                                         !
 ! A58   A(28,27,29)           111.2799                                         !
 ! A59   A(28,27,34)           107.8503                                         !
 ! A60   A(29,27,34)           108.1171                                         !
 ! A61   A(27,28,35)           110.366                                          !
 ! A62   A(27,28,36)           111.3873                                         !
 ! A63   A(27,28,37)           110.9495                                         !
 ! A64   A(35,28,36)           107.6011                                         !
 ! A65   A(35,28,37)           107.5423                                         !
 ! A66   A(36,28,37)           108.8547                                         !
 ! A67   A(27,29,38)           110.7623                                         !
 ! A68   A(27,29,39)           110.8894                                         !
 ! A69   A(27,29,40)           111.7055                                         !
 ! A70   A(38,29,39)           107.5969                                         !
 ! A71   A(38,29,40)           107.8642                                         !
 ! A72   A(39,29,40)           107.8576                                         !
 ! A73   A(24,41,42)           120.1351                                         !
 ! A74   A(24,41,49)           118.9466                                         !
 ! A75   A(42,41,49)           111.7049                                         !
 ! A76   A(41,42,43)           105.2812                                         !
 ! A77   A(41,42,45)           112.1176                                         !
 ! A78   A(41,42,50)           108.4675                                         !
 ! A79   A(43,42,45)           115.7251                                         !
 ! A80   A(43,42,50)           107.2727                                         !
 ! A81   A(45,42,50)           107.6979                                         !
 ! A82   A(42,43,44)           120.667                                          !
 ! A83   A(42,43,55)           115.9875                                         !
 ! A84   A(44,43,55)           123.2977                                         !
 ! A85   A(42,45,46)           113.048                                          !
 ! A86   A(42,45,51)           106.7231                                         !
 ! A87   A(42,45,52)           111.1416                                         !
 ! A88   A(46,45,51)           109.296                                          !
 ! A89   A(46,45,52)           109.1467                                         !
 ! A90   A(51,45,52)           107.2898                                         !
 ! A91   A(45,46,47)           115.2758                                         !
 ! A92   A(45,46,48)           123.2807                                         !
 ! A93   A(47,46,48)           121.4337                                         !
 ! A94   A(46,47,53)           118.096                                          !
 ! A95   A(46,47,54)           122.214                                          !
 ! A96   A(53,47,54)           118.1748                                         !
 ! A97   A(43,55,56)           119.6617                                         !
 ! A98   A(43,55,68)           115.6902                                         !
 ! A99   A(56,55,68)           120.1688                                         !
 ! A100  A(55,56,57)           111.0591                                         !
 ! A101  A(55,56,59)           112.2084                                         !
 ! A102  A(55,56,69)           105.8378                                         !
 ! A103  A(57,56,59)           113.2978                                         !
 ! A104  A(57,56,69)           105.2375                                         !
 ! A105  A(59,56,69)           108.6482                                         !
 ! A106  A(56,57,58)           117.0061                                         !
 ! A107  A(56,57,66)           117.7423                                         !
 ! A108  A(58,57,66)           125.2357                                         !
 ! A109  A(56,59,60)           114.8808                                         !
 ! A110  A(56,59,70)           110.046                                          !
 ! A111  A(56,59,71)           106.9074                                         !
 ! A112  A(60,59,70)           110.2017                                         !
 ! A113  A(60,59,71)           108.8365                                         !
 ! A114  A(70,59,71)           105.4879                                         !
 ! A115  A(59,60,61)           114.3583                                         !
 ! A116  A(59,60,72)           109.8039                                         !
 ! A117  A(59,60,73)           109.6792                                         !
 ! A118  A(61,60,72)           109.609                                          !
 ! A119  A(61,60,73)           106.6608                                         !
 ! A120  A(72,60,73)           106.3907                                         !
 ! A121  A(60,61,62)           111.8411                                         !
 ! A122  A(60,61,74)           110.6834                                         !
 ! A123  A(60,61,75)           109.9848                                         !
 ! A124  A(62,61,74)           110.6302                                         !
 ! A125  A(62,61,75)           106.7155                                         !
 ! A126  A(74,61,75)           106.7837                                         !
 ! A127  A(61,62,63)           128.3004                                         !
 ! A128  A(61,62,76)           115.3939                                         !
 ! A129  A(63,62,76)           112.5233                                         !
 ! A130  A(62,63,64)           122.8489                                         !
 ! A131  A(62,63,65)           118.2695                                         !
 ! A132  A(64,63,65)           118.8814                                         !
 ! A133  A(63,64,77)           120.6626                                         !
 ! A134  A(63,64,78)           121.1037                                         !
 ! A135  A(77,64,78)           117.4837                                         !
 ! A136  A(63,65,79)           120.0227                                         !
 ! A137  A(63,65,80)           116.4753                                         !
 ! A138  A(79,65,80)           118.2297                                         !
 ! A139  A(57,66,67)           125.7653                                         !
 ! D1    D(12,1,2,3)           -42.1094                                         !
 ! D2    D(12,1,2,5)          -168.436                                          !
 ! D3    D(12,1,2,13)           72.9186                                         !
 ! D4    D(21,1,2,3)          -165.3409                                         !
 ! D5    D(21,1,2,5)            68.3325                                         !
 ! D6    D(21,1,2,13)          -50.3129                                         !
 ! D7    D(1,2,3,4)             11.9527                                         !
 ! D8    D(1,2,3,22)          -170.0156                                         !
 ! D9    D(5,2,3,4)            133.7756                                         !
 ! D10   D(5,2,3,22)           -48.1927                                         !
 ! D11   D(13,2,3,4)          -102.2454                                         !
 ! D12   D(13,2,3,22)           75.7863                                         !
 ! D13   D(1,2,5,6)            -62.0413                                         !
 ! D14   D(1,2,5,14)           178.0007                                         !
 ! D15   D(1,2,5,15)            62.2841                                         !
 ! D16   D(3,2,5,6)            178.5027                                         !
 ! D17   D(3,2,5,14)            58.5447                                         !
 ! D18   D(3,2,5,15)           -57.1718                                         !
 ! D19   D(13,2,5,6)            55.1272                                         !
 ! D20   D(13,2,5,14)          -64.8309                                         !
 ! D21   D(13,2,5,15)          179.4526                                         !
 ! D22   D(2,3,22,23)          177.9104                                         !
 ! D23   D(2,3,22,30)            3.1952                                         !
 ! D24   D(4,3,22,23)           -4.1415                                         !
 ! D25   D(4,3,22,30)         -178.8567                                         !
 ! D26   D(2,5,6,7)            -84.5083                                         !
 ! D27   D(2,5,6,8)             92.2799                                         !
 ! D28   D(14,5,6,7)            34.6765                                         !
 ! D29   D(14,5,6,8)          -148.5353                                         !
 ! D30   D(15,5,6,7)           153.1261                                         !
 ! D31   D(15,5,6,8)           -30.0857                                         !
 ! D32   D(5,6,7,9)            177.0295                                         !
 ! D33   D(5,6,7,16)            -3.6116                                         !
 ! D34   D(8,6,7,9)              0.1784                                         !
 ! D35   D(8,6,7,16)           179.5372                                         !
 ! D36   D(5,6,8,10)          -176.7758                                         !
 ! D37   D(5,6,8,17)             3.5842                                         !
 ! D38   D(7,6,8,10)             0.0502                                         !
 ! D39   D(7,6,8,17)          -179.5899                                         !
 ! D40   D(6,7,9,11)            -0.3096                                         !
 ! D41   D(6,7,9,18)           179.4324                                         !
 ! D42   D(16,7,9,11)         -179.6684                                         !
 ! D43   D(16,7,9,18)            0.0735                                         !
 ! D44   D(6,8,10,11)           -0.1482                                         !
 ! D45   D(6,8,10,19)         -179.7812                                         !
 ! D46   D(17,8,10,11)         179.4956                                         !
 ! D47   D(17,8,10,19)          -0.1374                                         !
 ! D48   D(7,9,11,10)            0.2091                                         !
 ! D49   D(7,9,11,20)          179.9256                                         !
 ! D50   D(18,9,11,10)        -179.532                                          !
 ! D51   D(18,9,11,20)           0.1845                                         !
 ! D52   D(8,10,11,9)            0.0182                                         !
 ! D53   D(8,10,11,20)        -179.6978                                         !
 ! D54   D(19,10,11,9)         179.6487                                         !
 ! D55   D(19,10,11,20)         -0.0672                                         !
 ! D56   D(3,22,23,24)         -56.7493                                         !
 ! D57   D(3,22,23,26)         178.9982                                         !
 ! D58   D(3,22,23,31)          58.0611                                         !
 ! D59   D(30,22,23,24)        118.0555                                         !
 ! D60   D(30,22,23,26)         -6.1969                                         !
 ! D61   D(30,22,23,31)       -127.1341                                         !
 ! D62   D(22,23,24,25)        139.5977                                         !
 ! D63   D(22,23,24,41)        -41.4581                                         !
 ! D64   D(26,23,24,25)        -97.9703                                         !
 ! D65   D(26,23,24,41)         80.9739                                         !
 ! D66   D(31,23,24,25)         22.7876                                         !
 ! D67   D(31,23,24,41)       -158.2682                                         !
 ! D68   D(22,23,26,27)        176.3548                                         !
 ! D69   D(22,23,26,32)        -61.4926                                         !
 ! D70   D(22,23,26,33)         54.3041                                         !
 ! D71   D(24,23,26,27)         53.1573                                         !
 ! D72   D(24,23,26,32)        175.3098                                         !
 ! D73   D(24,23,26,33)        -68.8934                                         !
 ! D74   D(31,23,26,27)        -64.2507                                         !
 ! D75   D(31,23,26,32)         57.9019                                         !
 ! D76   D(31,23,26,33)        173.6986                                         !
 ! D77   D(23,24,41,42)        152.2079                                         !
 ! D78   D(23,24,41,49)          8.1375                                         !
 ! D79   D(25,24,41,42)        -28.869                                          !
 ! D80   D(25,24,41,49)       -172.9394                                         !
 ! D81   D(23,26,27,28)         55.6204                                         !
 ! D82   D(23,26,27,29)        179.6974                                         !
 ! D83   D(23,26,27,34)        -63.0106                                         !
 ! D84   D(32,26,27,28)        -66.0113                                         !
 ! D85   D(32,26,27,29)         58.0656                                         !
 ! D86   D(32,26,27,34)        175.3576                                         !
 ! D87   D(33,26,27,28)        177.5592                                         !
 ! D88   D(33,26,27,29)        -58.3639                                         !
 ! D89   D(33,26,27,34)         58.9282                                         !
 ! D90   D(26,27,28,35)        174.1786                                         !
 ! D91   D(26,27,28,36)        -66.3631                                         !
 ! D92   D(26,27,28,37)         55.0751                                         !
 ! D93   D(29,27,28,35)         51.1645                                         !
 ! D94   D(29,27,28,36)        170.6228                                         !
 ! D95   D(29,27,28,37)        -67.939                                          !
 ! D96   D(34,27,28,35)        -67.2611                                         !
 ! D97   D(34,27,28,36)         52.1973                                         !
 ! D98   D(34,27,28,37)        173.6354                                         !
 ! D99   D(26,27,29,38)        176.4003                                         !
 ! D100  D(26,27,29,39)        -64.2099                                         !
 ! D101  D(26,27,29,40)         56.1344                                         !
 ! D102  D(28,27,29,38)        -58.913                                          !
 ! D103  D(28,27,29,39)         60.4769                                         !
 ! D104  D(28,27,29,40)       -179.1788                                         !
 ! D105  D(34,27,29,38)         59.352                                          !
 ! D106  D(34,27,29,39)        178.7419                                         !
 ! D107  D(34,27,29,40)        -60.9138                                         !
 ! D108  D(24,41,42,43)       -144.1812                                         !
 ! D109  D(24,41,42,45)         89.1817                                         !
 ! D110  D(24,41,42,50)        -29.6141                                         !
 ! D111  D(49,41,42,43)          2.2686                                         !
 ! D112  D(49,41,42,45)       -124.3685                                         !
 ! D113  D(49,41,42,50)        116.8357                                         !
 ! D114  D(41,42,43,44)         -8.0488                                         !
 ! D115  D(41,42,43,55)        169.5163                                         !
 ! D116  D(45,42,43,44)        116.3457                                         !
 ! D117  D(45,42,43,55)        -66.0892                                         !
 ! D118  D(50,42,43,44)       -123.4428                                         !
 ! D119  D(50,42,43,55)         54.1223                                         !
 ! D120  D(41,42,45,46)       -155.3904                                         !
 ! D121  D(41,42,45,51)        -35.2045                                         !
 ! D122  D(41,42,45,52)         81.4693                                         !
 ! D123  D(43,42,45,46)         83.8389                                         !
 ! D124  D(43,42,45,51)       -155.9753                                         !
 ! D125  D(43,42,45,52)        -39.3015                                         !
 ! D126  D(50,42,45,46)        -36.1415                                         !
 ! D127  D(50,42,45,51)         84.0443                                         !
 ! D128  D(50,42,45,52)       -159.2819                                         !
 ! D129  D(42,43,55,56)       -157.3452                                         !
 ! D130  D(42,43,55,68)         -1.0348                                         !
 ! D131  D(44,43,55,56)         20.149                                          !
 ! D132  D(44,43,55,68)        176.4594                                         !
 ! D133  D(42,45,46,47)        158.5712                                         !
 ! D134  D(42,45,46,48)        -22.552                                          !
 ! D135  D(51,45,46,47)         39.8672                                         !
 ! D136  D(51,45,46,48)       -141.2559                                         !
 ! D137  D(52,45,46,47)        -77.1907                                         !
 ! D138  D(52,45,46,48)        101.6861                                         !
 ! D139  D(45,46,47,53)       -176.6772                                         !
 ! D140  D(45,46,47,54)        -10.9828                                         !
 ! D141  D(48,46,47,53)          4.4232                                         !
 ! D142  D(48,46,47,54)        170.1176                                         !
 ! D143  D(43,55,56,57)         57.3932                                         !
 ! D144  D(43,55,56,59)        -70.5571                                         !
 ! D145  D(43,55,56,69)        171.0949                                         !
 ! D146  D(68,55,56,57)        -97.8485                                         !
 ! D147  D(68,55,56,59)        134.2012                                         !
 ! D148  D(68,55,56,69)         15.8533                                         !
 ! D149  D(55,56,57,58)        179.6726                                         !
 ! D150  D(55,56,57,66)          1.0465                                         !
 ! D151  D(59,56,57,58)        -52.9692                                         !
 ! D152  D(59,56,57,66)        128.4047                                         !
 ! D153  D(69,56,57,58)         65.594                                          !
 ! D154  D(69,56,57,66)       -113.0321                                         !
 ! D155  D(55,56,59,60)       -113.2697                                         !
 ! D156  D(55,56,59,70)        121.6706                                         !
 ! D157  D(55,56,59,71)          7.5909                                         !
 ! D158  D(57,56,59,60)        119.9758                                         !
 ! D159  D(57,56,59,70)         -5.0839                                         !
 ! D160  D(57,56,59,71)       -119.1636                                         !
 ! D161  D(69,56,59,60)          3.4031                                         !
 ! D162  D(69,56,59,70)       -121.6566                                         !
 ! D163  D(69,56,59,71)        124.2637                                         !
 ! D164  D(56,57,66,67)       -155.2441                                         !
 ! D165  D(58,57,66,67)         26.2545                                         !
 ! D166  D(56,59,60,61)        -89.9376                                         !
 ! D167  D(56,59,60,72)         33.7443                                         !
 ! D168  D(56,59,60,73)        150.3159                                         !
 ! D169  D(70,59,60,61)         35.0407                                         !
 ! D170  D(70,59,60,72)        158.7226                                         !
 ! D171  D(70,59,60,73)        -84.7058                                         !
 ! D172  D(71,59,60,61)        150.2651                                         !
 ! D173  D(71,59,60,72)        -86.053                                          !
 ! D174  D(71,59,60,73)         30.5186                                         !
 ! D175  D(59,60,61,62)         48.7928                                         !
 ! D176  D(59,60,61,74)        172.645                                          !
 ! D177  D(59,60,61,75)        -69.5976                                         !
 ! D178  D(72,60,61,62)        -74.9936                                         !
 ! D179  D(72,60,61,74)         48.8585                                         !
 ! D180  D(72,60,61,75)        166.616                                          !
 ! D181  D(73,60,61,62)        170.2157                                         !
 ! D182  D(73,60,61,74)        -65.9321                                         !
 ! D183  D(73,60,61,75)         51.8253                                         !
 ! D184  D(60,61,62,63)        100.6278                                         !
 ! D185  D(60,61,62,76)        -55.6097                                         !
 ! D186  D(74,61,62,63)        -23.2542                                         !
 ! D187  D(74,61,62,76)       -179.4917                                         !
 ! D188  D(75,61,62,63)       -139.0534                                         !
 ! D189  D(75,61,62,76)         64.7091                                         !
 ! D190  D(61,62,63,64)         24.6879                                         !
 ! D191  D(61,62,63,65)       -155.4099                                         !
 ! D192  D(76,62,63,64)       -178.5202                                         !
 ! D193  D(76,62,63,65)          1.382                                          !
 ! D194  D(62,63,64,77)       -164.2722                                         !
 ! D195  D(62,63,64,78)          5.5575                                         !
 ! D196  D(65,63,64,77)         15.8262                                         !
 ! D197  D(65,63,64,78)       -174.3441                                         !
 ! D198  D(62,63,65,79)       -152.9623                                         !
 ! D199  D(62,63,65,80)          0.9498                                         !
 ! D200  D(64,63,65,79)         26.9439                                         !
 ! D201  D(64,63,65,80)       -179.144                                          !
 --------------------------------------------------------------------------------
 Symmetry turned off by external request.
 Stoichiometry    C25H41N8O6(1+)
 Framework group  C1[X(C25H41N8O6)]
 Deg. of freedom   234
 Full point group                 C1      NOp   1
                          Input orientation:                          
 ---------------------------------------------------------------------
 Center     Atomic      Atomic             Coordinates (Angstroms)
 Number     Number       Type             X           Y           Z
 ---------------------------------------------------------------------
      1          7           0       -4.700984    9.926587   -5.490197
      2          6           0       -3.374410    9.769207   -4.804136
      3          6           0       -3.000837   11.184696   -4.316677
      4          8           0       -3.848110   12.073227   -4.340134
      5          6           0       -2.377886    9.077156   -5.754800
      6          6           0       -2.853382    7.685112   -6.121830
      7          6           0       -2.576507    6.601335   -5.276235
      8          6           0       -3.629974    7.468746   -7.269763
      9          6           0       -3.059683    5.326225   -5.568924
     10          6           0       -4.117498    6.191118   -7.559244
     11          6           0       -3.834878    5.118465   -6.712647
     12          1           0       -5.289574   10.553364   -4.929675
     13          1           0       -3.540111    9.135218   -3.924334
     14          1           0       -1.411349    9.007993   -5.242772
     15          1           0       -2.225626    9.711047   -6.633811
     16          1           0       -1.968663    6.754948   -4.386420
     17          1           0       -3.853731    8.290524   -7.945627
     18          1           0       -2.828305    4.495602   -4.908213
     19          1           0       -4.714890    6.036975   -8.453837
     20          1           0       -4.210908    4.125708   -6.942603
     21          1           0       -5.147126    9.018026   -5.635635
     22          7           0       -1.747280   11.366412   -3.842429
     23          6           0       -1.293683   12.695291   -3.399775
     24          6           0       -1.447108   13.728518   -4.536341
     25          8           0       -1.844276   14.865582   -4.323825
     26          6           0        0.153338   12.593775   -2.891730
     27          6           0        0.791086   13.934057   -2.475787
     28          6           0       -0.040669   14.671956   -1.416717
     29          6           0        2.224213   13.685594   -1.984930
     30          1           0       -1.079519   10.607866   -3.860113
     31          1           0       -1.961187   13.040688   -2.607575
     32          1           0        0.167606   11.906511   -2.033352
     33          1           0        0.770419   12.137344   -3.680088
     34          1           0        0.841622   14.572058   -3.368980
     35          1           0        0.489959   15.565335   -1.069650
     36          1           0       -1.004326   14.995641   -1.820680
     37          1           0       -0.219301   14.032334   -0.542025
     38          1           0        2.721269   14.631188   -1.743259
     39          1           0        2.225543   13.068535   -1.077169
     40          1           0        2.828907   13.171484   -2.741994
     41          7           0       -1.085387   13.275382   -5.769644
     42          6           0       -1.696795   13.836964   -6.960715
     43          6           0       -1.830039   12.654866   -7.945869
     44          8           0       -1.314119   11.559419   -7.690750
     45          6           0       -0.923201   15.064093   -7.487531
     46          6           0       -1.792982   16.010399   -8.311571
     47          7           0       -1.330471   17.280503   -8.413569
     48          8           0       -2.834841   15.658237   -8.870600
     49          1           0       -0.869118   12.289768   -5.887404
     50          1           0       -2.712144   14.166224   -6.707820
     51          1           0       -0.540899   15.595650   -6.610548
     52          1           0       -0.056343   14.758084   -8.086992
     53          1           0       -1.898790   17.956155   -8.906725
     54          1           0       -0.566331   17.621757   -7.849430
     55          7           0       -2.573113   12.884550   -9.047214
     56          6           0       -3.165445   11.765729   -9.761522
     57          6           0       -4.085082   10.923010   -8.821193
     58          8           0       -4.668820    9.914647   -9.335159
     59          6           0       -2.093093   10.907513  -10.509435
     60          6           0       -2.183004   10.954169  -12.051285
     61          6           0       -3.089276    9.874379  -12.666926
     62          7           0       -4.392019    9.811465  -12.000404
     63          6           0       -5.546234   10.321490  -12.403846
     64          7           0       -5.822866   10.569999  -13.699859
     65          7           0       -6.482178   10.600364  -11.472480
     66          8           0       -4.211456   11.304166   -7.634217
     67          1           0       -4.579277   10.428023   -6.460049
     68          1           0       -2.989954   13.815480   -9.114315
     69          1           0       -3.840356   12.208170  -10.503782
     70          1           0       -2.131608    9.869500  -10.159247
     71          1           0       -1.116784   11.282223  -10.202379
     72          1           0       -2.521555   11.947345  -12.374254
     73          1           0       -1.185475   10.811469  -12.483856
     74          1           0       -3.213533   10.040637  -13.741433
     75          1           0       -2.628132    8.887986  -12.550829
     76          1           0       -4.359690    9.662293  -10.965014
     77          1           0       -6.596274   11.165308  -13.955979
     78          1           0       -5.183899   10.297454  -14.430216
     79          1           0       -7.461166   10.591991  -11.721415
     80          1           0       -6.228709   10.410242  -10.500374
 ---------------------------------------------------------------------
 Rotational constants (GHZ):           0.1071852           0.0652973           0.0453951
 Standard basis: 6-31G(d) (6D, 7F)
   667 basis functions,  1256 primitive gaussians,   667 cartesian basis functions
   147 alpha electrons      147 beta electrons
       nuclear repulsion energy      4858.3873490226 Hartrees.
 NAtoms=   80 NActive=   80 NUniq=   80 SFac= 1.00D+00 NAtFMM=   60 NAOKFM=T Big=T
 Integral buffers will be    131072 words long.
 Raffenetti 2 integral format.
 Two-electron integral symmetry is turned off.
 Nuclear repulsion after empirical dispersion term =     4858.2781920893 Hartrees.
 One-electron integrals computed using PRISM.
 NBasis=   667 RedAO= T EigKep=  4.37D-04  NBF=   667
 NBsUse=   667 1.00D-06 EigRej= -1.00D+00 NBFU=   667
 Initial guess from the checkpoint file:  "conf-399.chk"
 B after Tr=     0.000000    0.000000    0.000000
         Rot=    1.000000    0.000000    0.000000    0.000000 Ang=   0.00 deg.
 Requested convergence on RMS density matrix=1.00D-08 within 128 cycles.
 Requested convergence on MAX density matrix=1.00D-06.
 Requested convergence on             energy=1.00D-06.
 No special actions if energy rises.
 SCF Done:  E(RB3LYP) =  -1866.74913245     A.U. after    1 cycles
            NFock=  1  Conv=0.20D-08     -V/T= 2.0095

 **********************************************************************

            Population analysis using the SCF Density.

 **********************************************************************

 Alpha  occ. eigenvalues --  -19.22009 -19.20595 -19.20532 -19.20071 -19.19855
 Alpha  occ. eigenvalues --  -19.18281 -14.52147 -14.50253 -14.48588 -14.47947
 Alpha  occ. eigenvalues --  -14.46295 -14.43761 -14.42598 -14.41895 -10.45648
 Alpha  occ. eigenvalues --  -10.39334 -10.38141 -10.37545 -10.36531 -10.35847
 Alpha  occ. eigenvalues --  -10.35294 -10.34070 -10.31829 -10.31121 -10.30876
 Alpha  occ. eigenvalues --  -10.29424 -10.28884 -10.28479 -10.27679 -10.27646
 Alpha  occ. eigenvalues --  -10.27355 -10.27113 -10.27102 -10.26927 -10.26845
 Alpha  occ. eigenvalues --  -10.26719 -10.25402 -10.23169 -10.22492  -1.14505
 Alpha  occ. eigenvalues --   -1.14319  -1.13689  -1.11806  -1.11373  -1.10023
 Alpha  occ. eigenvalues --   -1.07481  -1.04983  -1.03311  -1.02590  -1.02219
 Alpha  occ. eigenvalues --   -0.99995  -0.98997  -0.98503  -0.94041  -0.89456
 Alpha  occ. eigenvalues --   -0.89316  -0.87826  -0.85904  -0.83590  -0.83126
 Alpha  occ. eigenvalues --   -0.82533  -0.80891  -0.78328  -0.76184  -0.75555
 Alpha  occ. eigenvalues --   -0.75040  -0.73897  -0.72173  -0.71246  -0.70647
 Alpha  occ. eigenvalues --   -0.69239  -0.68818  -0.68295  -0.67435  -0.67061
 Alpha  occ. eigenvalues --   -0.66968  -0.66184  -0.64940  -0.64020  -0.63317
 Alpha  occ. eigenvalues --   -0.62893  -0.62393  -0.62251  -0.61778  -0.61106
 Alpha  occ. eigenvalues --   -0.60139  -0.59497  -0.58876  -0.58473  -0.56976
 Alpha  occ. eigenvalues --   -0.56429  -0.56074  -0.55506  -0.54470  -0.54209
 Alpha  occ. eigenvalues --   -0.53916  -0.53656  -0.53527  -0.52879  -0.52660
 Alpha  occ. eigenvalues --   -0.52360  -0.51648  -0.51279  -0.51079  -0.50482
 Alpha  occ. eigenvalues --   -0.50390  -0.50168  -0.49460  -0.49116  -0.48886
 Alpha  occ. eigenvalues --   -0.48801  -0.48687  -0.47947  -0.47333  -0.46725
 Alpha  occ. eigenvalues --   -0.46302  -0.46117  -0.45282  -0.45050  -0.44789
 Alpha  occ. eigenvalues --   -0.44374  -0.44026  -0.43670  -0.43554  -0.43157
 Alpha  occ. eigenvalues --   -0.42874  -0.42435  -0.42003  -0.41748  -0.40888
 Alpha  occ. eigenvalues --   -0.39361  -0.38752  -0.38533  -0.38026  -0.36805
 Alpha  occ. eigenvalues --   -0.36589  -0.36455  -0.35998  -0.35159  -0.34612
 Alpha  occ. eigenvalues --   -0.34162  -0.33590  -0.33267  -0.32932  -0.32745
 Alpha  occ. eigenvalues --   -0.31657  -0.31304
 Alpha virt. eigenvalues --   -0.10059  -0.09215  -0.08593  -0.07849  -0.06657
 Alpha virt. eigenvalues --   -0.06188  -0.05641  -0.05494  -0.04712  -0.03143
 Alpha virt. eigenvalues --   -0.02550  -0.01951   0.00009   0.00542   0.00839
 Alpha virt. eigenvalues --    0.01482   0.01873   0.02051   0.02218   0.02785
 Alpha virt. eigenvalues --    0.03147   0.03604   0.04043   0.04279   0.04949
 Alpha virt. eigenvalues --    0.05272   0.05564   0.05790   0.06275   0.06595
 Alpha virt. eigenvalues --    0.07031   0.07437   0.07683   0.07955   0.08110
 Alpha virt. eigenvalues --    0.08592   0.08905   0.09140   0.09340   0.09568
 Alpha virt. eigenvalues --    0.10048   0.10375   0.10599   0.11075   0.11498
 Alpha virt. eigenvalues --    0.11932   0.12367   0.12458   0.12820   0.13141
 Alpha virt. eigenvalues --    0.13388   0.14190   0.14603   0.14779   0.14802
 Alpha virt. eigenvalues --    0.15037   0.15523   0.16578   0.16726   0.17257
 Alpha virt. eigenvalues --    0.17540   0.18250   0.18488   0.18793   0.19273
 Alpha virt. eigenvalues --    0.19777   0.20018   0.20567   0.21200   0.22175
 Alpha virt. eigenvalues --    0.23135   0.23926   0.24890   0.25312   0.26243
 Alpha virt. eigenvalues --    0.26599   0.26969   0.27235   0.28166   0.28672
 Alpha virt. eigenvalues --    0.29761   0.30858   0.31407   0.32334   0.35066
 Alpha virt. eigenvalues --    0.35906   0.36374   0.37349   0.39244   0.40183
 Alpha virt. eigenvalues --    0.40574   0.42136   0.42252   0.42329   0.43618
 Alpha virt. eigenvalues --    0.43709   0.44111   0.44537   0.45013   0.45454
 Alpha virt. eigenvalues --    0.45751   0.45901   0.46140   0.46623   0.46845
 Alpha virt. eigenvalues --    0.47188   0.47562   0.47639   0.47982   0.48991
 Alpha virt. eigenvalues --    0.49130   0.49721   0.49912   0.49956   0.51026
 Alpha virt. eigenvalues --    0.51307   0.51390   0.51831   0.52307   0.52692
 Alpha virt. eigenvalues --    0.52731   0.53191   0.53370   0.53821   0.54248
 Alpha virt. eigenvalues --    0.54894   0.55405   0.55703   0.55789   0.56006
 Alpha virt. eigenvalues --    0.56030   0.56562   0.57462   0.57630   0.57955
 Alpha virt. eigenvalues --    0.58429   0.58840   0.59353   0.59574   0.59882
 Alpha virt. eigenvalues --    0.60158   0.60961   0.61408   0.61903   0.63116
 Alpha virt. eigenvalues --    0.63684   0.64021   0.64387   0.64811   0.65312
 Alpha virt. eigenvalues --    0.65787   0.66284   0.67007   0.67168   0.67373
 Alpha virt. eigenvalues --    0.68720   0.69528   0.69986   0.70369   0.71069
 Alpha virt. eigenvalues --    0.71540   0.71838   0.72255   0.72388   0.73280
 Alpha virt. eigenvalues --    0.73986   0.74214   0.74345   0.74842   0.75071
 Alpha virt. eigenvalues --    0.75508   0.76180   0.76391   0.76575   0.76820
 Alpha virt. eigenvalues --    0.77537   0.77792   0.78157   0.78399   0.78591
 Alpha virt. eigenvalues --    0.79040   0.79502   0.79719   0.79968   0.80278
 Alpha virt. eigenvalues --    0.80377   0.80957   0.81393   0.81597   0.82134
 Alpha virt. eigenvalues --    0.82591   0.82829   0.83273   0.83629   0.83752
 Alpha virt. eigenvalues --    0.84854   0.85121   0.85164   0.85942   0.86298
 Alpha virt. eigenvalues --    0.86431   0.86622   0.86745   0.86959   0.87379
 Alpha virt. eigenvalues --    0.87848   0.87928   0.88346   0.88679   0.89764
 Alpha virt. eigenvalues --    0.90197   0.90700   0.90767   0.91981   0.92532
 Alpha virt. eigenvalues --    0.93106   0.93481   0.93883   0.94458   0.94754
 Alpha virt. eigenvalues --    0.96518   0.96984   0.97206   0.98318   0.98900
 Alpha virt. eigenvalues --    0.99101   1.00270   1.00656   1.01698   1.02231
 Alpha virt. eigenvalues --    1.03306   1.03528   1.05300   1.05937   1.06937
 Alpha virt. eigenvalues --    1.07223   1.08377   1.09726   1.09994   1.10537
 Alpha virt. eigenvalues --    1.11504   1.12609   1.12796   1.13364   1.13489
 Alpha virt. eigenvalues --    1.15343   1.16276   1.16926   1.17011   1.17564
 Alpha virt. eigenvalues --    1.17791   1.19715   1.20299   1.21097   1.22411
 Alpha virt. eigenvalues --    1.22604   1.22878   1.23322   1.25189   1.25867
 Alpha virt. eigenvalues --    1.26050   1.27385   1.27707   1.29809   1.31001
 Alpha virt. eigenvalues --    1.31914   1.32170   1.32997   1.34033   1.34560
 Alpha virt. eigenvalues --    1.34839   1.35488   1.36223   1.37477   1.37725
 Alpha virt. eigenvalues --    1.38846   1.39684   1.39947   1.40928   1.41055
 Alpha virt. eigenvalues --    1.41361   1.42051   1.43137   1.43289   1.43646
 Alpha virt. eigenvalues --    1.44425   1.44777   1.46408   1.46826   1.48832
 Alpha virt. eigenvalues --    1.49309   1.50291   1.51500   1.51777   1.52842
 Alpha virt. eigenvalues --    1.53423   1.54292   1.56549   1.57066   1.58224
 Alpha virt. eigenvalues --    1.58550   1.59247   1.60042   1.61382   1.61655
 Alpha virt. eigenvalues --    1.62111   1.63213   1.64446   1.64852   1.65419
 Alpha virt. eigenvalues --    1.65836   1.66719   1.67908   1.68111   1.69204
 Alpha virt. eigenvalues --    1.70630   1.70716   1.71561   1.71800   1.72103
 Alpha virt. eigenvalues --    1.72364   1.72674   1.73064   1.73717   1.74740
 Alpha virt. eigenvalues --    1.75077   1.75630   1.76286   1.76590   1.77461
 Alpha virt. eigenvalues --    1.77650   1.78452   1.79056   1.79408   1.80409
 Alpha virt. eigenvalues --    1.80774   1.81300   1.81918   1.82455   1.83048
 Alpha virt. eigenvalues --    1.83503   1.84263   1.84801   1.85335   1.85796
 Alpha virt. eigenvalues --    1.86109   1.86888   1.87049   1.88177   1.88930
 Alpha virt. eigenvalues --    1.89135   1.89496   1.90020   1.90491   1.91229
 Alpha virt. eigenvalues --    1.92006   1.92485   1.93331   1.93745   1.94139
 Alpha virt. eigenvalues --    1.95074   1.95298   1.95578   1.96403   1.96822
 Alpha virt. eigenvalues --    1.97200   1.97565   1.98284   1.98790   1.99592
 Alpha virt. eigenvalues --    2.01074   2.01248   2.02250   2.04002   2.04607
 Alpha virt. eigenvalues --    2.05308   2.05837   2.06054   2.06667   2.07600
 Alpha virt. eigenvalues --    2.07975   2.08209   2.08996   2.09817   2.11299
 Alpha virt. eigenvalues --    2.11639   2.12568   2.13367   2.14140   2.14966
 Alpha virt. eigenvalues --    2.15526   2.15733   2.16424   2.17018   2.18423
 Alpha virt. eigenvalues --    2.19275   2.19812   2.20846   2.21242   2.21935
 Alpha virt. eigenvalues --    2.22891   2.23405   2.23557   2.24514   2.25218
 Alpha virt. eigenvalues --    2.26097   2.28699   2.29534   2.30470   2.31672
 Alpha virt. eigenvalues --    2.32229   2.32907   2.34109   2.34764   2.35807
 Alpha virt. eigenvalues --    2.36248   2.36462   2.37712   2.38212   2.38897
 Alpha virt. eigenvalues --    2.39852   2.40478   2.42798   2.43234   2.44076
 Alpha virt. eigenvalues --    2.44822   2.45626   2.45903   2.47034   2.48008
 Alpha virt. eigenvalues --    2.48913   2.50257   2.50499   2.50765   2.51665
 Alpha virt. eigenvalues --    2.53221   2.53404   2.54039   2.54337   2.56143
 Alpha virt. eigenvalues --    2.56697   2.57409   2.57936   2.58160   2.58844
 Alpha virt. eigenvalues --    2.60461   2.61381   2.63368   2.63516   2.64070
 Alpha virt. eigenvalues --    2.65297   2.66064   2.66722   2.67389   2.67858
 Alpha virt. eigenvalues --    2.69028   2.69363   2.70975   2.75653   2.76852
 Alpha virt. eigenvalues --    2.77448   2.80800   2.82293   2.84291   2.87507
 Alpha virt. eigenvalues --    2.89492   2.90128   2.90479   2.93280   2.94564
 Alpha virt. eigenvalues --    2.95837   2.96495   2.97010   2.97470   2.98464
 Alpha virt. eigenvalues --    3.00074   3.06014   3.07539   3.09807   3.13142
 Alpha virt. eigenvalues --    3.32654   3.67736   3.73263   3.76154   3.78424
 Alpha virt. eigenvalues --    3.90109   3.90568   3.94188   3.97234   4.00800
 Alpha virt. eigenvalues --    4.01373   4.02748   4.04684   4.05976   4.08398
 Alpha virt. eigenvalues --    4.09427   4.09504   4.10875   4.17230   4.18537
 Alpha virt. eigenvalues --    4.20325   4.22929   4.24202   4.24938   4.26616
 Alpha virt. eigenvalues --    4.27558   4.32292   4.34470   4.35158   4.39480
 Alpha virt. eigenvalues --    4.41707   4.44057   4.49564   4.51971   4.52904
 Alpha virt. eigenvalues --    4.54994   4.59992   4.62756   4.63464   4.66161
          Condensed to atoms (all electrons):
 Mulliken charges:
               1
     1  N   -0.763827
     2  C   -0.116010
     3  C    0.667268
     4  O   -0.516472
     5  C   -0.409597
     6  C    0.138458
     7  C   -0.182283
     8  C   -0.234153
     9  C   -0.126136
    10  C   -0.138339
    11  C   -0.126722
    12  H    0.401081
    13  H    0.202022
    14  H    0.158526
    15  H    0.239615
    16  H    0.129798
    17  H    0.186588
    18  H    0.151864
    19  H    0.140021
    20  H    0.150149
    21  H    0.388693
    22  N   -0.652300
    23  C   -0.021225
    24  C    0.627066
    25  O   -0.522551
    26  C   -0.306088
    27  C   -0.077219
    28  C   -0.463415
    29  C   -0.445622
    30  H    0.342536
    31  H    0.199922
    32  H    0.149460
    33  H    0.137174
    34  H    0.144091
    35  H    0.152873
    36  H    0.179076
    37  H    0.136792
    38  H    0.156254
    39  H    0.145612
    40  H    0.140891
    41  N   -0.618732
    42  C   -0.044763
    43  C    0.620523
    44  O   -0.565960
    45  C   -0.377236
    46  C    0.627943
    47  N   -0.739456
    48  O   -0.533318
    49  H    0.346425
    50  H    0.208536
    51  H    0.197025
    52  H    0.186299
    53  H    0.356110
    54  H    0.353884
    55  N   -0.612920
    56  C   -0.057291
    57  C    0.642340
    58  O   -0.619523
    59  C   -0.287508
    60  C   -0.275623
    61  C   -0.170178
    62  N   -0.609876
    63  C    0.776681
    64  N   -0.759717
    65  N   -0.778055
    66  O   -0.576667
    67  H    0.451760
    68  H    0.388190
    69  H    0.152854
    70  H    0.160808
    71  H    0.192253
    72  H    0.153945
    73  H    0.168040
    74  H    0.151717
    75  H    0.191410
    76  H    0.416807
    77  H    0.376304
    78  H    0.378967
    79  H    0.361689
    80  H    0.402445
 Sum of Mulliken charges =   1.00000
 Mulliken charges with hydrogens summed into heavy atoms:
               1
     1  N    0.477707
     2  C    0.086012
     3  C    0.667268
     4  O   -0.516472
     5  C   -0.011456
     6  C    0.138458
     7  C   -0.052486
     8  C   -0.047565
     9  C    0.025728
    10  C    0.001682
    11  C    0.023427
    22  N   -0.309764
    23  C    0.178697
    24  C    0.627066
    25  O   -0.522551
    26  C   -0.019455
    27  C    0.066872
    28  C    0.005325
    29  C   -0.002865
    41  N   -0.272307
    42  C    0.163773
    43  C    0.620523
    44  O   -0.565960
    45  C    0.006089
    46  C    0.627943
    47  N   -0.029462
    48  O   -0.533318
    55  N   -0.224730
    56  C    0.095563
    57  C    0.642340
    58  O   -0.619523
    59  C    0.065553
    60  C    0.046361
    61  C    0.172949
    62  N   -0.193069
    63  C    0.776681
    64  N   -0.004446
    65  N   -0.013921
    66  O   -0.576667
 Electronic spatial extent (au):  <R**2>=         221932.8954
 Charge=              1.0000 electrons
 Dipole moment (field-independent basis, Debye):
    X=            -18.1089    Y=             50.2124    Z=            -45.9173  Tot=             70.4104
 Quadrupole moment (field-independent basis, Debye-Ang):
   XX=           -113.6440   YY=            343.6080   ZZ=            312.4823
   XY=           -163.5023   XZ=            211.9536   YZ=           -501.0909
 Traceless Quadrupole moment (field-independent basis, Debye-Ang):
   XX=           -294.4594   YY=            162.7926   ZZ=            131.6668
   XY=           -163.5023   XZ=            211.9536   YZ=           -501.0909
 Octapole moment (field-independent basis, Debye-Ang**2):
  XXX=            963.3731  YYY=           -596.8523  ZZZ=          -2075.7454  XYY=           -860.7316
  XXY=          -1484.4794  XXZ=            296.8865  XZZ=          -2120.4216  YZZ=           3346.1935
  YYZ=          -4226.1779  XYZ=           2124.9904
 Hexadecapole moment (field-independent basis, Debye-Ang**3):
 XXXX=          -8420.2799 YYYY=         -87477.6899 ZZZZ=           8850.7806 XXXY=           9991.6432
 XXXZ=          -6056.8015 YYYX=           6030.9426 YYYZ=         -19630.7669 ZZZX=          20830.9726
 ZZZY=         -21374.4022 XXYY=         -23111.5326 XXZZ=            426.4992 YYZZ=          22912.6440
 XXYZ=           4479.7721 YYXZ=          16455.4052 ZZXY=         -22290.4962
 N-N= 4.858278192089D+03 E-N=-1.403857084735D+04  KE= 1.849247851278D+03
 Unable to Open any file for archive entry.
 1\1\GINC-LAC-251\SP\RB3LYP\6-31G(d)\C25H41N8O6(1+)\KENGMITH\11-Jun-202
 2\0\\# B3LYP/6-31G* empiricaldispersion=gd3 guess=read geom=check nosy
 mm integral(ultrafinegrid)\\Candidate Structure: Conf:399 Charge calc 
 in gas phase\\1,1\N,0,-4.7009836947,9.9265872943,-5.4901971788\C,0,-3.
 3744103368,9.7692074874,-4.8041362107\C,0,-3.0008368316,11.1846956535,
 -4.3166766315\O,0,-3.8481097845,12.073226584,-4.3401343523\C,0,-2.3778
 855161,9.0771562271,-5.7548003821\C,0,-2.8533816673,7.6851122953,-6.12
 18303786\C,0,-2.5765068281,6.6013348403,-5.2762347028\C,0,-3.629973584
 7,7.4687460429,-7.2697634352\C,0,-3.0596826394,5.3262252934,-5.5689241
 183\C,0,-4.1174977158,6.1911180554,-7.5592439555\C,0,-3.8348775753,5.1
 184651104,-6.7126469768\H,0,-5.2895737593,10.5533638119,-4.929674631\H
 ,0,-3.5401106559,9.1352180653,-3.9243335876\H,0,-1.4113494467,9.007992
 5475,-5.2427719867\H,0,-2.2256255778,9.7110471315,-6.6338113814\H,0,-1
 .9686631679,6.754948062,-4.3864200855\H,0,-3.8537311899,8.2905241653,-
 7.9456267466\H,0,-2.8283048636,4.4956019153,-4.9082128737\H,0,-4.71489
 01129,6.0369750703,-8.4538366456\H,0,-4.2109083435,4.1257084211,-6.942
 6029363\H,0,-5.1471257502,9.0180256641,-5.6356347889\N,0,-1.7472804261
 ,11.366411884,-3.8424285295\C,0,-1.2936834856,12.6952909229,-3.3997746
 362\C,0,-1.447108342,13.7285179668,-4.5363411295\O,0,-1.844276306,14.8
 655820978,-4.323825065\C,0,0.1533381122,12.5937745352,-2.8917302506\C,
 0,0.7910858801,13.9340571068,-2.4757873416\C,0,-0.0406687816,14.671956
 0284,-1.4167170165\C,0,2.2242133886,13.6855937715,-1.9849295939\H,0,-1
 .0795189923,10.6078661915,-3.8601126824\H,0,-1.961186564,13.0406881445
 ,-2.6075754666\H,0,0.1676058664,11.9065113944,-2.0333522003\H,0,0.7704
 194847,12.137344492,-3.6800878866\H,0,0.841622246,14.5720579358,-3.368
 980027\H,0,0.4899593765,15.5653353595,-1.0696496462\H,0,-1.0043260191,
 14.9956405136,-1.8206798893\H,0,-0.2193014322,14.032334424,-0.54202482
 83\H,0,2.7212689742,14.6311877996,-1.7432588514\H,0,2.2255425533,13.06
 8535469,-1.0771689377\H,0,2.8289067972,13.1714841806,-2.741994442\N,0,
 -1.0853867334,13.275382117,-5.7696444422\C,0,-1.6967948282,13.83696377
 21,-6.9607153713\C,0,-1.830038665,12.654866385,-7.9458694949\O,0,-1.31
 41185645,11.5594189872,-7.6907499709\C,0,-0.923200825,15.0640925808,-7
 .4875314095\C,0,-1.792981793,16.010398958,-8.311571379\N,0,-1.33047079
 58,17.2805026074,-8.4135686378\O,0,-2.834841269,15.6582373214,-8.87060
 0151\H,0,-0.8691184571,12.2897678008,-5.8874037256\H,0,-2.7121442946,1
 4.1662244235,-6.7078204127\H,0,-0.5408992039,15.5956501631,-6.61054773
 31\H,0,-0.056343393,14.7580843301,-8.0869919054\H,0,-1.8987902483,17.9
 561545372,-8.9067248851\H,0,-0.566331395,17.6217565053,-7.849429552\N,
 0,-2.5731126813,12.8845495284,-9.0472138543\C,0,-3.1654453442,11.76572
 91234,-9.7615223669\C,0,-4.085082491,10.9230100519,-8.8211930285\O,0,-
 4.6688196684,9.9146471127,-9.3351586861\C,0,-2.0930930613,10.907513151
 1,-10.5094352998\C,0,-2.1830044055,10.9541685853,-12.0512852967\C,0,-3
 .0892759137,9.8743791105,-12.6669262724\N,0,-4.3920191555,9.8114646827
 ,-12.0004043065\C,0,-5.5462343591,10.3214903038,-12.4038462102\N,0,-5.
 8228658516,10.5699988524,-13.6998587524\N,0,-6.4821778493,10.600364072
 1,-11.472480278\O,0,-4.2114555023,11.3041661094,-7.6342166122\H,0,-4.5
 792767821,10.4280227982,-6.4600492214\H,0,-2.9899544608,13.815479843,-
 9.1143145133\H,0,-3.8403559328,12.2081698801,-10.5037821265\H,0,-2.131
 6083039,9.8695001416,-10.1592465766\H,0,-1.1167841268,11.2822226928,-1
 0.2023785628\H,0,-2.5215553744,11.9473446209,-12.3742542809\H,0,-1.185
 4748,10.8114690173,-12.4838559916\H,0,-3.2135328905,10.0406368135,-13.
 741433473\H,0,-2.628131846,8.8879858051,-12.5508294708\H,0,-4.35968964
 79,9.6622932292,-10.965013765\H,0,-6.5962742101,11.1653080003,-13.9559
 79272\H,0,-5.1838985035,10.2974540707,-14.4302156768\H,0,-7.4611662293
 ,10.5919913724,-11.7214150582\H,0,-6.228708601,10.4102421157,-10.50037
 43405\\Version=ES64L-G16RevC.01\HF=-1866.7491324\RMSD=2.019e-09\Dipole
 =-2.2186113,-1.8578384,-4.5199413\Quadrupole=-218.9233691,121.0323034,
 97.8910656,-121.5599258,157.5822982,-372.5488241\PG=C01 [X(C25H41N8O6)
 ]\\@
 The archive entry for this job was punched.


 IF YOU WANT TO LEARN FROM THE THEORETICAL PHYSICISTS ABOUT THE
 METHODS WHICH THEY USE, I ADVISE YOU TO FOLLOW THIS PRINCIPLE VERY STRICTLY:
 DON'T LISTEN TO THEIR WORDS; PAY ATTENTION, INSTEAD, TO THEIR ACTIONS.
 -- A.EINSTEIN, 1934
 Job cpu time:       0 days  0 hours  2 minutes 13.2 seconds.
 Elapsed time:       0 days  0 hours  0 minutes 34.0 seconds.
 File lengths (MBytes):  RWF=    344 Int=      0 D2E=      0 Chk=     56 Scr=     16
 Normal termination of Gaussian 16 at Sat Jun 11 21:06:57 2022.
