 Entering Gaussian System, Link 0=/opt/software/Gaussian/g16-AVX-C.01/g16/g16
 Input=charge-conf-95.com
 Output=charge-conf-95.log
 Initial command:
 /opt/software/Gaussian/g16-AVX-C.01/g16/l1.exe "/mnt/gs18/scratch/users/kengmith/Gau-35004.inp" -scrdir="/mnt/gs18/scratch/users/kengmith/"
 Entering Link 1 = /opt/software/Gaussian/g16-AVX-C.01/g16/l1.exe PID=     35020.
  
 Copyright (c) 1988-2019, Gaussian, Inc.  All Rights Reserved.
  
 This is part of the Gaussian(R) 16 program.  It is based on
 the Gaussian(R) 09 system (copyright 2009, Gaussian, Inc.),
 the Gaussian(R) 03 system (copyright 2003, Gaussian, Inc.),
 the Gaussian(R) 98 system (copyright 1998, Gaussian, Inc.),
 the Gaussian(R) 94 system (copyright 1995, Gaussian, Inc.),
 the Gaussian 92(TM) system (copyright 1992, Gaussian, Inc.),
 the Gaussian 90(TM) system (copyright 1990, Gaussian, Inc.),
 the Gaussian 88(TM) system (copyright 1988, Gaussian, Inc.),
 the Gaussian 86(TM) system (copyright 1986, Carnegie Mellon
 University), and the Gaussian 82(TM) system (copyright 1983,
 Carnegie Mellon University). Gaussian is a federally registered
 trademark of Gaussian, Inc.
  
 This software contains proprietary and confidential information,
 including trade secrets, belonging to Gaussian, Inc.
  
 This software is provided under written license and may be
 used, copied, transmitted, or stored only in accord with that
 written license.
  
 The following legend is applicable only to US Government
 contracts under FAR:
  
                    RESTRICTED RIGHTS LEGEND
  
 Use, reproduction and disclosure by the US Government is
 subject to restrictions as set forth in subparagraphs (a)
 and (c) of the Commercial Computer Software - Restricted
 Rights clause in FAR 52.227-19.
  
 Gaussian, Inc.
 340 Quinnipiac St., Bldg. 40, Wallingford CT 06492
  
  
 ---------------------------------------------------------------
 Warning -- This program may not be used in any manner that
 competes with the business of Gaussian, Inc. or will provide
 assistance to any competitor of Gaussian, Inc.  The licensee
 of this program is prohibited from giving any competitor of
 Gaussian, Inc. access to this program.  By using this program,
 the user acknowledges that Gaussian, Inc. is engaged in the
 business of creating and licensing software in the field of
 computational chemistry and represents and warrants to the
 licensee that it is not a competitor of Gaussian, Inc. and that
 it will not use this program in any manner prohibited above.
 ---------------------------------------------------------------
  

 Cite this work as:
 Gaussian 16, Revision C.01,
 M. J. Frisch, G. W. Trucks, H. B. Schlegel, G. E. Scuseria, 
 M. A. Robb, J. R. Cheeseman, G. Scalmani, V. Barone, 
 G. A. Petersson, H. Nakatsuji, X. Li, M. Caricato, A. V. Marenich, 
 J. Bloino, B. G. Janesko, R. Gomperts, B. Mennucci, H. P. Hratchian, 
 J. V. Ortiz, A. F. Izmaylov, J. L. Sonnenberg, D. Williams-Young, 
 F. Ding, F. Lipparini, F. Egidi, J. Goings, B. Peng, A. Petrone, 
 T. Henderson, D. Ranasinghe, V. G. Zakrzewski, J. Gao, N. Rega, 
 G. Zheng, W. Liang, M. Hada, M. Ehara, K. Toyota, R. Fukuda, 
 J. Hasegawa, M. Ishida, T. Nakajima, Y. Honda, O. Kitao, H. Nakai, 
 T. Vreven, K. Throssell, J. A. Montgomery, Jr., J. E. Peralta, 
 F. Ogliaro, M. J. Bearpark, J. J. Heyd, E. N. Brothers, K. N. Kudin, 
 V. N. Staroverov, T. A. Keith, R. Kobayashi, J. Normand, 
 K. Raghavachari, A. P. Rendell, J. C. Burant, S. S. Iyengar, 
 J. Tomasi, M. Cossi, J. M. Millam, M. Klene, C. Adamo, R. Cammi, 
 J. W. Ochterski, R. L. Martin, K. Morokuma, O. Farkas, 
 J. B. Foresman, and D. J. Fox, Gaussian, Inc., Wallingford CT, 2019.
 
 ******************************************
 Gaussian 16:  ES64L-G16RevC.01  3-Jul-2019
                11-Jun-2022 
 ******************************************
 %mem=8gb
 %nproc=4
 Will use up to    4 processors via shared memory.
 %chk=conf-95.chk
 ----------------------------------------------------------------------
 # B3LYP/6-31G* empiricaldispersion=gd3 guess=read geom=check nosymm in
 tegral(ultrafinegrid)
 ----------------------------------------------------------------------
 1/29=2,38=1,172=1/1;
 2/12=2,15=1,40=1/2;
 3/5=1,6=6,7=1,11=2,14=-4,25=1,30=1,74=-5,75=-5,116=-2,124=31/1,2,3;
 4/5=1/1;
 5/5=2,38=6/2;
 6/7=2,8=2,9=2,10=2,28=1/1;
 99/5=1,9=1/99;
 -----------------------------------------------------
 Candidate Structure: Conf:95 Charge calc in gas phase
 -----------------------------------------------------
 Structure from the checkpoint file:  "conf-95.chk"
 Charge =  1 Multiplicity = 1
 Redundant internal coordinates found in file.  (old form).
 N,0,-2.1118874138,9.8227211616,-5.1776794805
 C,0,-3.4720230966,9.9799974696,-4.5051483095
 C,0,-4.4320466884,9.0558843879,-5.2799490646
 O,0,-4.8408803354,8.0272398569,-4.765523308
 C,0,-3.8822044145,11.4508408162,-4.4301047587
 C,0,-2.9463359031,12.3556492501,-3.6440585936
 C,0,-2.026226931,11.888343754,-2.6992693847
 C,0,-3.028821579,13.7402450207,-3.8617356663
 C,0,-1.2074112806,12.7749890315,-1.9912289697
 C,0,-2.2280586841,14.6281804168,-3.1474011413
 C,0,-1.3073942265,14.1483296749,-2.2099614396
 H,0,-2.1628110011,9.1433073712,-5.9724278014
 H,0,-3.3972032519,9.5411408771,-3.5101858829
 H,0,-4.8839705148,11.4764102735,-3.9809626707
 H,0,-3.9732965197,11.866901216,-5.4393480702
 H,0,-1.9473698613,10.8264154226,-2.479424935
 H,0,-3.7297215924,14.1152002882,-4.601210568
 H,0,-0.5075055272,12.3877039036,-1.25581778
 H,0,-2.3222075815,15.6967909185,-3.3223072064
 H,0,-0.6886248518,14.8395933911,-1.6438517503
 H,0,-1.4113183204,9.4787979416,-4.5193830533
 N,0,-4.6681381057,9.4162055912,-6.5778930143
 C,0,-4.7979443432,8.3729597938,-7.6031317304
 C,0,-3.3855832728,8.31271117,-8.2316733686
 O,0,-2.3913464048,8.2371792675,-7.5006433568
 C,0,-5.9641892736,8.6417280097,-8.556527802
 C,0,-7.3360538403,8.7528038075,-7.8611011214
 C,0,-8.4201142629,9.0461838033,-8.9075331691
 C,0,-7.6815997036,7.501009189,-7.0411068811
 H,0,-4.2564610259,10.2761802409,-6.9339750477
 H,0,-4.9538832782,7.4331321616,-7.0685212282
 H,0,-5.7671248811,9.5767756012,-9.0995225492
 H,0,-6.0063475081,7.8262796087,-9.2943837215
 H,0,-7.2821715181,9.6070943839,-7.1728039244
 H,0,-8.5221056293,8.2098245262,-9.6112968783
 H,0,-9.3938891728,9.1956389204,-8.4288106876
 H,0,-8.188648421,9.9480450477,-9.4874027687
 H,0,-7.6506832494,6.6002631228,-7.6689199026
 H,0,-6.9969261372,7.3594140546,-6.1985005307
 H,0,-8.6945238294,7.5814768232,-6.6315776552
 N,0,-3.2484372824,8.4445115204,-9.5857593678
 C,0,-2.0915429499,9.2267629717,-10.0189554552
 C,0,-2.2337007462,10.6354820572,-9.349692069
 O,0,-3.2820824415,10.9383056371,-8.7692430664
 C,0,-2.020220538,9.2590052423,-11.5536448769
 C,0,-0.6190222938,9.5772162271,-12.0814660806
 N,0,-0.4305416066,9.3260426459,-13.3982862279
 O,0,0.2757274755,10.0379838204,-11.3720298983
 H,0,-4.1067883473,8.7004351025,-10.0591992086
 H,0,-1.1915926863,8.7525806493,-9.6239026212
 H,0,-2.3301668093,8.2774902305,-11.9322207298
 H,0,-2.7262496909,9.9939286277,-11.9638786475
 H,0,0.4826489126,9.5029931134,-13.7952020273
 H,0,-1.1258625434,8.876406218,-13.9754610647
 N,0,-1.1569927472,11.4335072575,-9.401282673
 C,0,-1.0603018164,12.6985540345,-8.6644077878
 C,0,-1.6807201116,12.5155789997,-7.2488149498
 O,0,-2.7241788096,13.1263907629,-6.9392591566
 C,0,-1.6183047802,13.9059381193,-9.4405614781
 C,0,-0.962525419,15.264123292,-9.0965658584
 C,0,-1.4455651394,16.0089797509,-7.8380293686
 N,0,-1.1732755197,15.3106472336,-6.5722371867
 C,0,-0.0054087143,15.2253781936,-5.9373835607
 N,0,0.8718268732,16.2500742825,-5.9606491725
 N,0,0.309644026,14.1155154406,-5.2571516436
 O,0,-0.9715058494,11.7982667722,-6.4597826364
 H,0,-1.7235227276,10.7387905132,-5.6037351896
 H,0,-0.3545782205,11.0886986574,-9.9290855731
 H,0,0.0135942495,12.84047334,-8.4971495885
 H,0,-2.7027380652,13.9459273481,-9.2960663263
 H,0,-1.4352145462,13.7215644249,-10.505153739
 H,0,0.1290126535,15.1434892276,-9.0378434263
 H,0,-1.1449385593,15.9510817228,-9.9327187879
 H,0,-1.0017822272,17.0096220681,-7.8114748463
 H,0,-2.5294740225,16.1461028256,-7.8710712835
 H,0,-1.8434815763,14.5537651314,-6.3861860398
 H,0,1.8348914902,16.1133371944,-5.6932244885
 H,0,0.5937911875,17.1664061103,-6.2768392571
 H,0,0.8995014853,14.1665732545,-4.4386915692
 H,0,-0.2116274638,13.2452892227,-5.4217571591
 Recover connectivity data from disk.
                           ----------------------------
                           !    Current Parameters    !
                           ! (Angstroms and Degrees)  !
 --------------------------                            --------------------------
 ! Name  Definition              Value                                          !
 --------------------------------------------------------------------------------
 ! R1    R(1,2)                  1.5255                                         !
 ! R2    R(1,12)                 1.0468                                         !
 ! R3    R(1,21)                 1.021                                          !
 ! R4    R(2,3)                  1.5414                                         !
 ! R5    R(2,5)                  1.5288                                         !
 ! R6    R(2,13)                 1.09                                           !
 ! R7    R(3,4)                  1.2206                                         !
 ! R8    R(3,22)                 1.3676                                         !
 ! R9    R(5,6)                  1.5207                                         !
 ! R10   R(5,14)                 1.0981                                         !
 ! R11   R(5,15)                 1.0954                                         !
 ! R12   R(6,7)                  1.3991                                         !
 ! R13   R(6,8)                  1.404                                          !
 ! R14   R(7,9)                  1.3993                                         !
 ! R15   R(7,16)                 1.0873                                         !
 ! R16   R(8,10)                 1.3928                                         !
 ! R17   R(8,17)                 1.0857                                         !
 ! R18   R(9,11)                 1.3942                                         !
 ! R19   R(9,18)                 1.0866                                         !
 ! R20   R(10,11)                1.3988                                         !
 ! R21   R(10,19)                1.0869                                         !
 ! R22   R(11,20)                1.0868                                         !
 ! R23   R(22,23)                1.4684                                         !
 ! R24   R(22,30)                1.0178                                         !
 ! R25   R(23,24)                1.5471                                         !
 ! R26   R(23,26)                1.5301                                         !
 ! R27   R(23,31)                1.0924                                         !
 ! R28   R(24,25)                1.2364                                         !
 ! R29   R(24,41)                1.3674                                         !
 ! R30   R(26,27)                1.5421                                         !
 ! R31   R(26,32)                1.0991                                         !
 ! R32   R(26,33)                1.1005                                         !
 ! R33   R(27,28)                1.535                                          !
 ! R34   R(27,29)                1.5358                                         !
 ! R35   R(27,34)                1.0984                                         !
 ! R36   R(28,35)                1.0978                                         !
 ! R37   R(28,36)                1.0953                                         !
 ! R38   R(28,37)                1.0969                                         !
 ! R39   R(29,38)                1.0984                                         !
 ! R40   R(29,39)                1.0949                                         !
 ! R41   R(29,40)                1.0955                                         !
 ! R42   R(41,42)                1.4622                                         !
 ! R43   R(41,49)                1.0131                                         !
 ! R44   R(42,43)                1.5661                                         !
 ! R45   R(42,45)                1.5367                                         !
 ! R46   R(42,50)                1.0912                                         !
 ! R47   R(43,44)                1.236                                          !
 ! R48   R(43,55)                1.3412                                         !
 ! R49   R(45,46)                1.5308                                         !
 ! R50   R(45,51)                1.0967                                         !
 ! R51   R(45,52)                1.0986                                         !
 ! R52   R(46,47)                1.3537                                         !
 ! R53   R(46,48)                1.2313                                         !
 ! R54   R(47,53)                1.0113                                         !
 ! R55   R(47,54)                1.0093                                         !
 ! R56   R(55,56)                1.4672                                         !
 ! R57   R(55,68)                1.0205                                         !
 ! R58   R(56,57)                1.5564                                         !
 ! R59   R(56,59)                1.54                                           !
 ! R60   R(56,69)                1.0961                                         !
 ! R61   R(57,58)                1.2481                                         !
 ! R62   R(57,66)                1.2807                                         !
 ! R63   R(59,60)                1.5469                                         !
 ! R64   R(59,70)                1.0947                                         !
 ! R65   R(59,71)                1.0958                                         !
 ! R66   R(60,61)                1.5401                                         !
 ! R67   R(60,72)                1.0998                                         !
 ! R68   R(60,73)                1.0974                                         !
 ! R69   R(61,62)                1.4711                                         !
 ! R70   R(61,74)                1.095                                          !
 ! R71   R(61,75)                1.093                                          !
 ! R72   R(62,63)                1.332                                          !
 ! R73   R(62,76)                1.0279                                         !
 ! R74   R(63,64)                1.3491                                         !
 ! R75   R(63,65)                1.3393                                         !
 ! R76   R(64,77)                1.0088                                         !
 ! R77   R(64,78)                1.0084                                         !
 ! R78   R(65,79)                1.0102                                         !
 ! R79   R(65,80)                1.0277                                         !
 ! R80   R(66,67)                1.5559                                         !
 ! A1    A(2,1,12)             110.9931                                         !
 ! A2    A(2,1,21)             111.2399                                         !
 ! A3    A(12,1,21)            107.7135                                         !
 ! A4    A(1,2,3)              105.7777                                         !
 ! A5    A(1,2,5)              111.1037                                         !
 ! A6    A(1,2,13)             107.4404                                         !
 ! A7    A(3,2,5)              115.7447                                         !
 ! A8    A(3,2,13)             105.0817                                         !
 ! A9    A(5,2,13)             111.1591                                         !
 ! A10   A(2,3,4)              120.1325                                         !
 ! A11   A(2,3,22)             115.2538                                         !
 ! A12   A(4,3,22)             124.3475                                         !
 ! A13   A(2,5,6)              115.6392                                         !
 ! A14   A(2,5,14)             106.6923                                         !
 ! A15   A(2,5,15)             110.0292                                         !
 ! A16   A(6,5,14)             109.6426                                         !
 ! A17   A(6,5,15)             107.5432                                         !
 ! A18   A(14,5,15)            106.9848                                         !
 ! A19   A(5,6,7)              123.7139                                         !
 ! A20   A(5,6,8)              118.0654                                         !
 ! A21   A(7,6,8)              118.2096                                         !
 ! A22   A(6,7,9)              120.9895                                         !
 ! A23   A(6,7,16)             120.6921                                         !
 ! A24   A(9,7,16)             118.3015                                         !
 ! A25   A(6,8,10)             121.0241                                         !
 ! A26   A(6,8,17)             118.9546                                         !
 ! A27   A(10,8,17)            120.0212                                         !
 ! A28   A(7,9,11)             120.1859                                         !
 ! A29   A(7,9,18)             119.5744                                         !
 ! A30   A(11,9,18)            120.2284                                         !
 ! A31   A(8,10,11)            120.2265                                         !
 ! A32   A(8,10,19)            119.6332                                         !
 ! A33   A(11,10,19)           120.1403                                         !
 ! A34   A(9,11,10)            119.3561                                         !
 ! A35   A(9,11,20)            120.2621                                         !
 ! A36   A(10,11,20)           120.3721                                         !
 ! A37   A(3,22,23)            119.3875                                         !
 ! A38   A(3,22,30)            119.0032                                         !
 ! A39   A(23,22,30)           113.0658                                         !
 ! A40   A(22,23,24)           103.3337                                         !
 ! A41   A(22,23,26)           112.1855                                         !
 ! A42   A(22,23,31)           106.3883                                         !
 ! A43   A(24,23,26)           116.7123                                         !
 ! A44   A(24,23,31)           107.1956                                         !
 ! A45   A(26,23,31)           110.3183                                         !
 ! A46   A(23,24,25)           119.7549                                         !
 ! A47   A(23,24,41)           119.3496                                         !
 ! A48   A(25,24,41)           120.7141                                         !
 ! A49   A(23,26,27)           114.1873                                         !
 ! A50   A(23,26,32)           108.6993                                         !
 ! A51   A(23,26,33)           108.4691                                         !
 ! A52   A(27,26,32)           108.7251                                         !
 ! A53   A(27,26,33)           108.7626                                         !
 ! A54   A(32,26,33)           107.8188                                         !
 ! A55   A(26,27,28)           109.5488                                         !
 ! A56   A(26,27,29)           112.4715                                         !
 ! A57   A(26,27,34)           107.1562                                         !
 ! A58   A(28,27,29)           111.1527                                         !
 ! A59   A(28,27,34)           108.2509                                         !
 ! A60   A(29,27,34)           108.0829                                         !
 ! A61   A(27,28,35)           110.9173                                         !
 ! A62   A(27,28,36)           110.8535                                         !
 ! A63   A(27,28,37)           111.623                                          !
 ! A64   A(35,28,36)           107.55                                           !
 ! A65   A(35,28,37)           107.8842                                         !
 ! A66   A(36,28,37)           107.8462                                         !
 ! A67   A(27,29,38)           110.9098                                         !
 ! A68   A(27,29,39)           112.061                                          !
 ! A69   A(27,29,40)           110.3491                                         !
 ! A70   A(38,29,39)           108.4343                                         !
 ! A71   A(38,29,40)           107.453                                          !
 ! A72   A(39,29,40)           107.4572                                         !
 ! A73   A(24,41,42)           115.107                                          !
 ! A74   A(24,41,49)           113.7119                                         !
 ! A75   A(42,41,49)           113.3752                                         !
 ! A76   A(41,42,43)           106.4275                                         !
 ! A77   A(41,42,45)           110.1104                                         !
 ! A78   A(41,42,50)           108.2272                                         !
 ! A79   A(43,42,45)           114.339                                          !
 ! A80   A(43,42,50)           108.1208                                         !
 ! A81   A(45,42,50)           109.4139                                         !
 ! A82   A(42,43,44)           119.872                                          !
 ! A83   A(42,43,55)           116.4817                                         !
 ! A84   A(44,43,55)           123.5879                                         !
 ! A85   A(42,45,46)           113.0298                                         !
 ! A86   A(42,45,51)           108.2311                                         !
 ! A87   A(42,45,52)           110.9249                                         !
 ! A88   A(46,45,51)           109.0089                                         !
 ! A89   A(46,45,52)           108.6904                                         !
 ! A90   A(51,45,52)           106.7489                                         !
 ! A91   A(45,46,47)           115.1052                                         !
 ! A92   A(45,46,48)           122.9751                                         !
 ! A93   A(47,46,48)           121.9173                                         !
 ! A94   A(46,47,53)           118.3608                                         !
 ! A95   A(46,47,54)           122.8864                                         !
 ! A96   A(53,47,54)           118.3956                                         !
 ! A97   A(43,55,56)           123.1351                                         !
 ! A98   A(43,55,68)           116.7504                                         !
 ! A99   A(56,55,68)           119.9526                                         !
 ! A100  A(55,56,57)           109.2181                                         !
 ! A101  A(55,56,59)           113.5153                                         !
 ! A102  A(55,56,69)           104.6461                                         !
 ! A103  A(57,56,59)           113.9628                                         !
 ! A104  A(57,56,69)           105.4854                                         !
 ! A105  A(59,56,69)           109.2935                                         !
 ! A106  A(56,57,58)           120.0878                                         !
 ! A107  A(56,57,66)           113.9209                                         !
 ! A108  A(58,57,66)           125.7534                                         !
 ! A109  A(56,59,60)           115.0036                                         !
 ! A110  A(56,59,70)           108.7261                                         !
 ! A111  A(56,59,71)           107.2882                                         !
 ! A112  A(60,59,70)           111.0083                                         !
 ! A113  A(60,59,71)           107.0329                                         !
 ! A114  A(70,59,71)           107.45                                           !
 ! A115  A(59,60,61)           118.2533                                         !
 ! A116  A(59,60,72)           109.6527                                         !
 ! A117  A(59,60,73)           108.041                                          !
 ! A118  A(61,60,72)           108.7057                                         !
 ! A119  A(61,60,73)           105.5298                                         !
 ! A120  A(72,60,73)           105.9218                                         !
 ! A121  A(60,61,62)           114.5502                                         !
 ! A122  A(60,61,74)           109.5526                                         !
 ! A123  A(60,61,75)           110.3027                                         !
 ! A124  A(62,61,74)           109.7511                                         !
 ! A125  A(62,61,75)           105.6115                                         !
 ! A126  A(74,61,75)           106.7381                                         !
 ! A127  A(61,62,63)           127.0697                                         !
 ! A128  A(61,62,76)           112.6184                                         !
 ! A129  A(63,62,76)           115.9922                                         !
 ! A130  A(62,63,64)           120.8819                                         !
 ! A131  A(62,63,65)           120.0905                                         !
 ! A132  A(64,63,65)           119.0265                                         !
 ! A133  A(63,64,77)           120.8789                                         !
 ! A134  A(63,64,78)           121.0842                                         !
 ! A135  A(77,64,78)           118.0009                                         !
 ! A136  A(63,65,79)           120.4633                                         !
 ! A137  A(63,65,80)           120.0694                                         !
 ! A138  A(79,65,80)           117.9542                                         !
 ! A139  A(57,66,67)           116.9183                                         !
 ! D1    D(12,1,2,3)            -0.2662                                         !
 ! D2    D(12,1,2,5)          -126.6269                                         !
 ! D3    D(12,1,2,13)          111.5837                                         !
 ! D4    D(21,1,2,3)          -120.1858                                         !
 ! D5    D(21,1,2,5)           113.4535                                         !
 ! D6    D(21,1,2,13)           -8.3359                                         !
 ! D7    D(1,2,3,4)            108.2809                                         !
 ! D8    D(1,2,3,22)           -66.0478                                         !
 ! D9    D(5,2,3,4)           -128.2395                                         !
 ! D10   D(5,2,3,22)            57.4318                                         !
 ! D11   D(13,2,3,4)            -5.2161                                         !
 ! D12   D(13,2,3,22)         -179.5448                                         !
 ! D13   D(1,2,5,6)            -60.411                                          !
 ! D14   D(1,2,5,14)           177.3675                                         !
 ! D15   D(1,2,5,15)            61.651                                          !
 ! D16   D(3,2,5,6)            178.9462                                         !
 ! D17   D(3,2,5,14)            56.7247                                         !
 ! D18   D(3,2,5,15)           -58.9918                                         !
 ! D19   D(13,2,5,6)            59.184                                          !
 ! D20   D(13,2,5,14)          -63.0375                                         !
 ! D21   D(13,2,5,15)         -178.754                                          !
 ! D22   D(2,3,22,23)          142.1879                                         !
 ! D23   D(2,3,22,30)           -3.5368                                         !
 ! D24   D(4,3,22,23)          -31.8703                                         !
 ! D25   D(4,3,22,30)         -177.595                                          !
 ! D26   D(2,5,6,7)            -19.9766                                         !
 ! D27   D(2,5,6,8)            161.258                                          !
 ! D28   D(14,5,6,7)           100.6604                                         !
 ! D29   D(14,5,6,8)           -78.105                                          !
 ! D30   D(15,5,6,7)          -143.355                                          !
 ! D31   D(15,5,6,8)            37.8797                                         !
 ! D32   D(5,6,7,9)           -178.8912                                         !
 ! D33   D(5,6,7,16)            -0.4112                                         !
 ! D34   D(8,6,7,9)             -0.1275                                         !
 ! D35   D(8,6,7,16)           178.3525                                         !
 ! D36   D(5,6,8,10)           178.1388                                         !
 ! D37   D(5,6,8,17)            -1.9357                                         !
 ! D38   D(7,6,8,10)            -0.6958                                         !
 ! D39   D(7,6,8,17)           179.2297                                         !
 ! D40   D(6,7,9,11)             0.6353                                         !
 ! D41   D(6,7,9,18)           179.416                                          !
 ! D42   D(16,7,9,11)         -177.8801                                         !
 ! D43   D(16,7,9,18)            0.9005                                         !
 ! D44   D(6,8,10,11)            1.0151                                         !
 ! D45   D(6,8,10,19)         -178.9908                                         !
 ! D46   D(17,8,10,11)        -178.9096                                         !
 ! D47   D(17,8,10,19)           1.0844                                         !
 ! D48   D(7,9,11,10)           -0.3206                                         !
 ! D49   D(7,9,11,20)          178.5531                                         !
 ! D50   D(18,9,11,10)        -179.0933                                         !
 ! D51   D(18,9,11,20)          -0.2195                                         !
 ! D52   D(8,10,11,9)           -0.494                                          !
 ! D53   D(8,10,11,20)        -179.3665                                         !
 ! D54   D(19,10,11,9)         179.512                                          !
 ! D55   D(19,10,11,20)          0.6395                                         !
 ! D56   D(3,22,23,24)         -97.0841                                         !
 ! D57   D(3,22,23,26)         136.364                                          !
 ! D58   D(3,22,23,31)          15.6462                                         !
 ! D59   D(30,22,23,24)         50.5488                                         !
 ! D60   D(30,22,23,26)        -76.0031                                         !
 ! D61   D(30,22,23,31)        163.2791                                         !
 ! D62   D(22,23,24,25)         48.9332                                         !
 ! D63   D(22,23,24,41)       -126.2075                                         !
 ! D64   D(26,23,24,25)        172.5544                                         !
 ! D65   D(26,23,24,41)         -2.5863                                         !
 ! D66   D(31,23,24,25)        -63.2072                                         !
 ! D67   D(31,23,24,41)        121.6522                                         !
 ! D68   D(22,23,26,27)        -58.4393                                         !
 ! D69   D(22,23,26,32)         63.1319                                         !
 ! D70   D(22,23,26,33)       -179.89                                           !
 ! D71   D(24,23,26,27)       -177.3881                                         !
 ! D72   D(24,23,26,32)        -55.8169                                         !
 ! D73   D(24,23,26,33)         61.1612                                         !
 ! D74   D(31,23,26,27)         59.9799                                         !
 ! D75   D(31,23,26,32)       -178.449                                          !
 ! D76   D(31,23,26,33)        -61.4708                                         !
 ! D77   D(23,24,41,42)        141.0554                                         !
 ! D78   D(23,24,41,49)          7.8703                                         !
 ! D79   D(25,24,41,42)        -34.0375                                         !
 ! D80   D(25,24,41,49)       -167.2227                                         !
 ! D81   D(23,26,27,28)        179.0069                                         !
 ! D82   D(23,26,27,29)        -56.8498                                         !
 ! D83   D(23,26,27,34)         61.7855                                         !
 ! D84   D(32,26,27,28)         57.4499                                         !
 ! D85   D(32,26,27,29)       -178.4068                                         !
 ! D86   D(32,26,27,34)        -59.7714                                         !
 ! D87   D(33,26,27,28)        -59.7046                                         !
 ! D88   D(33,26,27,29)         64.4388                                         !
 ! D89   D(33,26,27,34)       -176.9259                                         !
 ! D90   D(26,27,28,35)         64.3679                                         !
 ! D91   D(26,27,28,36)       -176.2232                                         !
 ! D92   D(26,27,28,37)        -55.9735                                         !
 ! D93   D(29,27,28,35)        -60.5426                                         !
 ! D94   D(29,27,28,36)         58.8662                                         !
 ! D95   D(29,27,28,37)        179.1159                                         !
 ! D96   D(34,27,28,35)       -179.1002                                         !
 ! D97   D(34,27,28,36)        -59.6914                                         !
 ! D98   D(34,27,28,37)         60.5584                                         !
 ! D99   D(26,27,29,38)        -56.3525                                         !
 ! D100  D(26,27,29,39)         64.9856                                         !
 ! D101  D(26,27,29,40)       -175.3087                                         !
 ! D102  D(28,27,29,38)         66.8986                                         !
 ! D103  D(28,27,29,39)       -171.7633                                         !
 ! D104  D(28,27,29,40)        -52.0575                                         !
 ! D105  D(34,27,29,38)       -174.4427                                         !
 ! D106  D(34,27,29,39)        -53.1046                                         !
 ! D107  D(34,27,29,40)         66.6012                                         !
 ! D108  D(24,41,42,43)        -57.5846                                         !
 ! D109  D(24,41,42,45)        177.9765                                         !
 ! D110  D(24,41,42,50)         58.4223                                         !
 ! D111  D(49,41,42,43)         75.7564                                         !
 ! D112  D(49,41,42,45)        -48.6825                                         !
 ! D113  D(49,41,42,50)       -168.2366                                         !
 ! D114  D(41,42,43,44)         -9.633                                          !
 ! D115  D(41,42,43,55)        167.6891                                         !
 ! D116  D(45,42,43,44)        112.1562                                         !
 ! D117  D(45,42,43,55)        -70.5217                                         !
 ! D118  D(50,42,43,44)       -125.7114                                         !
 ! D119  D(50,42,43,55)         51.6107                                         !
 ! D120  D(41,42,45,46)       -158.3278                                         !
 ! D121  D(41,42,45,51)        -37.4876                                         !
 ! D122  D(41,42,45,52)         79.3059                                         !
 ! D123  D(43,42,45,46)         81.9256                                         !
 ! D124  D(43,42,45,51)       -157.2343                                         !
 ! D125  D(43,42,45,52)        -40.4408                                         !
 ! D126  D(50,42,45,46)        -39.4976                                         !
 ! D127  D(50,42,45,51)         81.3426                                         !
 ! D128  D(50,42,45,52)       -161.8639                                         !
 ! D129  D(42,43,55,56)       -171.0933                                         !
 ! D130  D(42,43,55,68)          4.2721                                         !
 ! D131  D(44,43,55,56)          6.1191                                         !
 ! D132  D(44,43,55,68)       -178.5156                                         !
 ! D133  D(42,45,46,47)        165.8417                                         !
 ! D134  D(42,45,46,48)        -14.7069                                         !
 ! D135  D(51,45,46,47)         45.4443                                         !
 ! D136  D(51,45,46,48)       -135.1043                                         !
 ! D137  D(52,45,46,47)        -70.5519                                         !
 ! D138  D(52,45,46,48)        108.8995                                         !
 ! D139  D(45,46,47,53)       -178.9251                                         !
 ! D140  D(45,46,47,54)         -5.9044                                         !
 ! D141  D(48,46,47,53)          1.6171                                         !
 ! D142  D(48,46,47,54)        174.6378                                         !
 ! D143  D(43,55,56,57)         40.0946                                         !
 ! D144  D(43,55,56,59)        -88.2763                                         !
 ! D145  D(43,55,56,69)        152.6358                                         !
 ! D146  D(68,55,56,57)       -135.1284                                         !
 ! D147  D(68,55,56,59)         96.5006                                         !
 ! D148  D(68,55,56,69)        -22.5872                                         !
 ! D149  D(55,56,57,58)       -113.5477                                         !
 ! D150  D(55,56,57,66)         71.7383                                         !
 ! D151  D(59,56,57,58)         14.5736                                         !
 ! D152  D(59,56,57,66)       -160.1404                                         !
 ! D153  D(69,56,57,58)        134.4629                                         !
 ! D154  D(69,56,57,66)        -40.2511                                         !
 ! D155  D(55,56,59,60)       -151.165                                          !
 ! D156  D(55,56,59,70)         83.6803                                         !
 ! D157  D(55,56,59,71)        -32.2402                                         !
 ! D158  D(57,56,59,60)         82.945                                          !
 ! D159  D(57,56,59,70)        -42.2097                                         !
 ! D160  D(57,56,59,71)       -158.1302                                         !
 ! D161  D(69,56,59,60)        -34.7749                                         !
 ! D162  D(69,56,59,70)       -159.9296                                         !
 ! D163  D(69,56,59,71)         84.1499                                         !
 ! D164  D(56,57,66,67)       -136.3324                                         !
 ! D165  D(58,57,66,67)         49.3046                                         !
 ! D166  D(56,59,60,61)        -81.4192                                         !
 ! D167  D(56,59,60,72)         43.9271                                         !
 ! D168  D(56,59,60,73)        158.9307                                         !
 ! D169  D(70,59,60,61)         42.538                                          !
 ! D170  D(70,59,60,72)        167.8843                                         !
 ! D171  D(70,59,60,73)        -77.1121                                         !
 ! D172  D(71,59,60,61)        159.5137                                         !
 ! D173  D(71,59,60,72)        -75.14                                           !
 ! D174  D(71,59,60,73)         39.8636                                         !
 ! D175  D(59,60,61,62)         64.6012                                         !
 ! D176  D(59,60,61,74)       -171.5857                                         !
 ! D177  D(59,60,61,75)        -54.3753                                         !
 ! D178  D(72,60,61,62)        -61.2056                                         !
 ! D179  D(72,60,61,74)         62.6075                                         !
 ! D180  D(72,60,61,75)        179.8179                                         !
 ! D181  D(73,60,61,62)       -174.4521                                         !
 ! D182  D(73,60,61,74)        -50.6391                                         !
 ! D183  D(73,60,61,75)         66.5713                                         !
 ! D184  D(60,61,62,63)         76.7028                                         !
 ! D185  D(60,61,62,76)        -78.7706                                         !
 ! D186  D(74,61,62,63)        -47.0042                                         !
 ! D187  D(74,61,62,76)        157.5224                                         !
 ! D188  D(75,61,62,63)       -161.7156                                         !
 ! D189  D(75,61,62,76)         42.8109                                         !
 ! D190  D(61,62,63,64)         34.4869                                         !
 ! D191  D(61,62,63,65)       -145.9087                                         !
 ! D192  D(76,62,63,64)       -170.7465                                         !
 ! D193  D(76,62,63,65)          8.858                                          !
 ! D194  D(62,63,64,77)       -164.1621                                         !
 ! D195  D(62,63,64,78)         13.6135                                         !
 ! D196  D(65,63,64,77)         16.2293                                         !
 ! D197  D(65,63,64,78)       -165.9951                                         !
 ! D198  D(62,63,65,79)       -149.2174                                         !
 ! D199  D(62,63,65,80)         16.4678                                         !
 ! D200  D(64,63,65,79)         30.3944                                         !
 ! D201  D(64,63,65,80)       -163.9205                                         !
 --------------------------------------------------------------------------------
 Symmetry turned off by external request.
 Stoichiometry    C25H41N8O6(1+)
 Framework group  C1[X(C25H41N8O6)]
 Deg. of freedom   234
 Full point group                 C1      NOp   1
                          Input orientation:                          
 ---------------------------------------------------------------------
 Center     Atomic      Atomic             Coordinates (Angstroms)
 Number     Number       Type             X           Y           Z
 ---------------------------------------------------------------------
      1          7           0       -2.111887    9.822721   -5.177679
      2          6           0       -3.472023    9.979997   -4.505148
      3          6           0       -4.432047    9.055884   -5.279949
      4          8           0       -4.840880    8.027240   -4.765523
      5          6           0       -3.882204   11.450841   -4.430105
      6          6           0       -2.946336   12.355649   -3.644059
      7          6           0       -2.026227   11.888344   -2.699269
      8          6           0       -3.028822   13.740245   -3.861736
      9          6           0       -1.207411   12.774989   -1.991229
     10          6           0       -2.228059   14.628180   -3.147401
     11          6           0       -1.307394   14.148330   -2.209961
     12          1           0       -2.162811    9.143307   -5.972428
     13          1           0       -3.397203    9.541141   -3.510186
     14          1           0       -4.883971   11.476410   -3.980963
     15          1           0       -3.973297   11.866901   -5.439348
     16          1           0       -1.947370   10.826415   -2.479425
     17          1           0       -3.729722   14.115200   -4.601211
     18          1           0       -0.507506   12.387704   -1.255818
     19          1           0       -2.322208   15.696791   -3.322307
     20          1           0       -0.688625   14.839593   -1.643852
     21          1           0       -1.411318    9.478798   -4.519383
     22          7           0       -4.668138    9.416206   -6.577893
     23          6           0       -4.797944    8.372960   -7.603132
     24          6           0       -3.385583    8.312711   -8.231673
     25          8           0       -2.391346    8.237179   -7.500643
     26          6           0       -5.964189    8.641728   -8.556528
     27          6           0       -7.336054    8.752804   -7.861101
     28          6           0       -8.420114    9.046184   -8.907533
     29          6           0       -7.681600    7.501009   -7.041107
     30          1           0       -4.256461   10.276180   -6.933975
     31          1           0       -4.953883    7.433132   -7.068521
     32          1           0       -5.767125    9.576776   -9.099523
     33          1           0       -6.006348    7.826280   -9.294384
     34          1           0       -7.282172    9.607094   -7.172804
     35          1           0       -8.522106    8.209825   -9.611297
     36          1           0       -9.393889    9.195639   -8.428811
     37          1           0       -8.188648    9.948045   -9.487403
     38          1           0       -7.650683    6.600263   -7.668920
     39          1           0       -6.996926    7.359414   -6.198501
     40          1           0       -8.694524    7.581477   -6.631578
     41          7           0       -3.248437    8.444512   -9.585759
     42          6           0       -2.091543    9.226763  -10.018955
     43          6           0       -2.233701   10.635482   -9.349692
     44          8           0       -3.282082   10.938306   -8.769243
     45          6           0       -2.020221    9.259005  -11.553645
     46          6           0       -0.619022    9.577216  -12.081466
     47          7           0       -0.430542    9.326043  -13.398286
     48          8           0        0.275727   10.037984  -11.372030
     49          1           0       -4.106788    8.700435  -10.059199
     50          1           0       -1.191593    8.752581   -9.623903
     51          1           0       -2.330167    8.277490  -11.932221
     52          1           0       -2.726250    9.993929  -11.963879
     53          1           0        0.482649    9.502993  -13.795202
     54          1           0       -1.125863    8.876406  -13.975461
     55          7           0       -1.156993   11.433507   -9.401283
     56          6           0       -1.060302   12.698554   -8.664408
     57          6           0       -1.680720   12.515579   -7.248815
     58          8           0       -2.724179   13.126391   -6.939259
     59          6           0       -1.618305   13.905938   -9.440561
     60          6           0       -0.962525   15.264123   -9.096566
     61          6           0       -1.445565   16.008980   -7.838029
     62          7           0       -1.173276   15.310647   -6.572237
     63          6           0       -0.005409   15.225378   -5.937384
     64          7           0        0.871827   16.250074   -5.960649
     65          7           0        0.309644   14.115515   -5.257152
     66          8           0       -0.971506   11.798267   -6.459783
     67          1           0       -1.723523   10.738791   -5.603735
     68          1           0       -0.354578   11.088699   -9.929086
     69          1           0        0.013594   12.840473   -8.497150
     70          1           0       -2.702738   13.945927   -9.296066
     71          1           0       -1.435215   13.721564  -10.505154
     72          1           0        0.129013   15.143489   -9.037843
     73          1           0       -1.144939   15.951082   -9.932719
     74          1           0       -1.001782   17.009622   -7.811475
     75          1           0       -2.529474   16.146103   -7.871071
     76          1           0       -1.843482   14.553765   -6.386186
     77          1           0        1.834891   16.113337   -5.693224
     78          1           0        0.593791   17.166406   -6.276839
     79          1           0        0.899501   14.166573   -4.438692
     80          1           0       -0.211627   13.245289   -5.421757
 ---------------------------------------------------------------------
 Rotational constants (GHZ):           0.1071655           0.0769380           0.0532240
 Standard basis: 6-31G(d) (6D, 7F)
   667 basis functions,  1256 primitive gaussians,   667 cartesian basis functions
   147 alpha electrons      147 beta electrons
       nuclear repulsion energy      5023.5576563391 Hartrees.
 NAtoms=   80 NActive=   80 NUniq=   80 SFac= 1.00D+00 NAtFMM=   60 NAOKFM=T Big=T
 Integral buffers will be    131072 words long.
 Raffenetti 2 integral format.
 Two-electron integral symmetry is turned off.
 Nuclear repulsion after empirical dispersion term =     5023.4383930046 Hartrees.
 One-electron integrals computed using PRISM.
 NBasis=   667 RedAO= T EigKep=  4.58D-04  NBF=   667
 NBsUse=   667 1.00D-06 EigRej= -1.00D+00 NBFU=   667
 Initial guess from the checkpoint file:  "conf-95.chk"
 B after Tr=     0.000000    0.000000    0.000000
         Rot=    1.000000    0.000000    0.000000    0.000000 Ang=   0.00 deg.
 Requested convergence on RMS density matrix=1.00D-08 within 128 cycles.
 Requested convergence on MAX density matrix=1.00D-06.
 Requested convergence on             energy=1.00D-06.
 No special actions if energy rises.
 SCF Done:  E(RB3LYP) =  -1866.74100218     A.U. after    3 cycles
            NFock=  3  Conv=0.12D-08     -V/T= 2.0094

 **********************************************************************

            Population analysis using the SCF Density.

 **********************************************************************

 Alpha  occ. eigenvalues --  -19.22317 -19.21975 -19.20993 -19.20945 -19.20285
 Alpha  occ. eigenvalues --  -19.19447 -14.51165 -14.50223 -14.48284 -14.48100
 Alpha  occ. eigenvalues --  -14.45721 -14.45383 -14.44534 -14.44485 -10.45553
 Alpha  occ. eigenvalues --  -10.39700 -10.38896 -10.38171 -10.37836 -10.37813
 Alpha  occ. eigenvalues --  -10.34740 -10.33881 -10.33286 -10.31831 -10.31651
 Alpha  occ. eigenvalues --  -10.30647 -10.29138 -10.29122 -10.29017 -10.28222
 Alpha  occ. eigenvalues --  -10.28052 -10.27937 -10.27836 -10.27508 -10.27361
 Alpha  occ. eigenvalues --  -10.26556 -10.25544 -10.23411 -10.22834  -1.14647
 Alpha  occ. eigenvalues --   -1.14198  -1.13654  -1.13323  -1.12867  -1.12077
 Alpha  occ. eigenvalues --   -1.06707  -1.04477  -1.03111  -1.02322  -1.01982
 Alpha  occ. eigenvalues --   -1.01327  -1.01079  -1.00468  -0.94634  -0.89646
 Alpha  occ. eigenvalues --   -0.89182  -0.88333  -0.87436  -0.84024  -0.83587
 Alpha  occ. eigenvalues --   -0.83364  -0.81540  -0.78943  -0.76800  -0.75561
 Alpha  occ. eigenvalues --   -0.75181  -0.74174  -0.73013  -0.71332  -0.70401
 Alpha  occ. eigenvalues --   -0.69744  -0.69573  -0.68182  -0.67660  -0.67361
 Alpha  occ. eigenvalues --   -0.67127  -0.66807  -0.66317  -0.64732  -0.63735
 Alpha  occ. eigenvalues --   -0.63596  -0.63290  -0.62770  -0.62270  -0.61258
 Alpha  occ. eigenvalues --   -0.60343  -0.59742  -0.59511  -0.58980  -0.58656
 Alpha  occ. eigenvalues --   -0.56605  -0.56199  -0.55699  -0.55354  -0.54892
 Alpha  occ. eigenvalues --   -0.54533  -0.54204  -0.53885  -0.53388  -0.53012
 Alpha  occ. eigenvalues --   -0.52648  -0.52441  -0.51780  -0.51527  -0.51127
 Alpha  occ. eigenvalues --   -0.50799  -0.50680  -0.50612  -0.50142  -0.49818
 Alpha  occ. eigenvalues --   -0.49258  -0.48831  -0.48531  -0.48257  -0.47316
 Alpha  occ. eigenvalues --   -0.47101  -0.46830  -0.46079  -0.45728  -0.45537
 Alpha  occ. eigenvalues --   -0.45354  -0.44738  -0.44527  -0.44152  -0.43863
 Alpha  occ. eigenvalues --   -0.43362  -0.43236  -0.42779  -0.42741  -0.40611
 Alpha  occ. eigenvalues --   -0.40168  -0.38979  -0.38915  -0.38277  -0.37080
 Alpha  occ. eigenvalues --   -0.36982  -0.36420  -0.36301  -0.36195  -0.35389
 Alpha  occ. eigenvalues --   -0.34599  -0.34525  -0.34139  -0.33799  -0.33607
 Alpha  occ. eigenvalues --   -0.33218  -0.32604
 Alpha virt. eigenvalues --   -0.10931  -0.10641  -0.09365  -0.09173  -0.07742
 Alpha virt. eigenvalues --   -0.07589  -0.06811  -0.06392  -0.05747  -0.04313
 Alpha virt. eigenvalues --   -0.02288  -0.01409  -0.00282   0.00189   0.00799
 Alpha virt. eigenvalues --    0.00971   0.01662   0.02073   0.02604   0.02957
 Alpha virt. eigenvalues --    0.03278   0.03944   0.04406   0.04943   0.04998
 Alpha virt. eigenvalues --    0.05418   0.05493   0.05753   0.06062   0.06438
 Alpha virt. eigenvalues --    0.06564   0.07137   0.07516   0.07718   0.07863
 Alpha virt. eigenvalues --    0.07988   0.08541   0.08644   0.09213   0.09493
 Alpha virt. eigenvalues --    0.09778   0.09951   0.10218   0.10690   0.10991
 Alpha virt. eigenvalues --    0.11524   0.11813   0.11983   0.12172   0.12393
 Alpha virt. eigenvalues --    0.12647   0.12934   0.13749   0.13918   0.14050
 Alpha virt. eigenvalues --    0.14316   0.14940   0.15173   0.15380   0.15838
 Alpha virt. eigenvalues --    0.16612   0.17264   0.17771   0.18019   0.18772
 Alpha virt. eigenvalues --    0.19170   0.19693   0.20374   0.21085   0.21710
 Alpha virt. eigenvalues --    0.21857   0.22591   0.23138   0.24498   0.25492
 Alpha virt. eigenvalues --    0.26488   0.26608   0.26630   0.27436   0.28051
 Alpha virt. eigenvalues --    0.29821   0.29919   0.30902   0.31923   0.32854
 Alpha virt. eigenvalues --    0.33674   0.34469   0.37081   0.37378   0.38000
 Alpha virt. eigenvalues --    0.40296   0.40450   0.40915   0.41514   0.42471
 Alpha virt. eigenvalues --    0.42587   0.42924   0.43171   0.43795   0.44325
 Alpha virt. eigenvalues --    0.44836   0.45317   0.45735   0.45999   0.46296
 Alpha virt. eigenvalues --    0.46668   0.47218   0.47577   0.48049   0.48270
 Alpha virt. eigenvalues --    0.48680   0.48910   0.49312   0.49847   0.50353
 Alpha virt. eigenvalues --    0.50994   0.51166   0.51624   0.51867   0.52172
 Alpha virt. eigenvalues --    0.52620   0.53203   0.53719   0.53749   0.54043
 Alpha virt. eigenvalues --    0.54429   0.54731   0.55136   0.55248   0.55917
 Alpha virt. eigenvalues --    0.56032   0.56825   0.57091   0.57379   0.57672
 Alpha virt. eigenvalues --    0.58080   0.58595   0.59169   0.59599   0.60195
 Alpha virt. eigenvalues --    0.60530   0.61157   0.62368   0.62749   0.63080
 Alpha virt. eigenvalues --    0.63245   0.63735   0.64126   0.65121   0.65328
 Alpha virt. eigenvalues --    0.66220   0.66918   0.67326   0.67578   0.68773
 Alpha virt. eigenvalues --    0.69073   0.69463   0.70416   0.71057   0.71325
 Alpha virt. eigenvalues --    0.71719   0.72030   0.72449   0.73062   0.73469
 Alpha virt. eigenvalues --    0.74097   0.74510   0.74993   0.75141   0.75401
 Alpha virt. eigenvalues --    0.75707   0.75850   0.76183   0.76404   0.77032
 Alpha virt. eigenvalues --    0.77284   0.77524   0.78059   0.78258   0.78471
 Alpha virt. eigenvalues --    0.78877   0.79077   0.79395   0.79832   0.80196
 Alpha virt. eigenvalues --    0.80596   0.80929   0.81214   0.82008   0.82262
 Alpha virt. eigenvalues --    0.83054   0.83401   0.83739   0.84092   0.84230
 Alpha virt. eigenvalues --    0.84447   0.84874   0.85087   0.85492   0.85926
 Alpha virt. eigenvalues --    0.86289   0.86428   0.86734   0.87150   0.87827
 Alpha virt. eigenvalues --    0.88655   0.88823   0.89181   0.89606   0.89890
 Alpha virt. eigenvalues --    0.90587   0.91159   0.91540   0.92018   0.92457
 Alpha virt. eigenvalues --    0.93225   0.93445   0.94385   0.94972   0.95344
 Alpha virt. eigenvalues --    0.96652   0.97256   0.97793   0.98697   0.99172
 Alpha virt. eigenvalues --    0.99880   1.00521   1.01679   1.02476   1.03112
 Alpha virt. eigenvalues --    1.03200   1.03442   1.05142   1.05669   1.05885
 Alpha virt. eigenvalues --    1.06602   1.07953   1.08449   1.08937   1.09790
 Alpha virt. eigenvalues --    1.10314   1.11745   1.11956   1.12405   1.13517
 Alpha virt. eigenvalues --    1.14183   1.14615   1.16020   1.17293   1.17715
 Alpha virt. eigenvalues --    1.17987   1.18580   1.19677   1.20676   1.21119
 Alpha virt. eigenvalues --    1.22138   1.23048   1.23680   1.24108   1.25637
 Alpha virt. eigenvalues --    1.26661   1.27111   1.28464   1.28590   1.30398
 Alpha virt. eigenvalues --    1.30685   1.31935   1.32632   1.34206   1.34547
 Alpha virt. eigenvalues --    1.35578   1.35692   1.36481   1.36792   1.38124
 Alpha virt. eigenvalues --    1.38736   1.39738   1.40000   1.40723   1.40882
 Alpha virt. eigenvalues --    1.41242   1.41858   1.42165   1.42597   1.43771
 Alpha virt. eigenvalues --    1.44827   1.46255   1.47440   1.48018   1.48723
 Alpha virt. eigenvalues --    1.49294   1.50266   1.52341   1.53489   1.54716
 Alpha virt. eigenvalues --    1.55084   1.55537   1.55741   1.57028   1.57510
 Alpha virt. eigenvalues --    1.57911   1.59125   1.59749   1.60981   1.61904
 Alpha virt. eigenvalues --    1.62505   1.62751   1.63716   1.64866   1.65541
 Alpha virt. eigenvalues --    1.66676   1.66851   1.67121   1.68196   1.68794
 Alpha virt. eigenvalues --    1.69230   1.70130   1.70192   1.71068   1.71413
 Alpha virt. eigenvalues --    1.71980   1.72567   1.73280   1.73634   1.74014
 Alpha virt. eigenvalues --    1.74511   1.75269   1.77007   1.77311   1.77493
 Alpha virt. eigenvalues --    1.78080   1.78911   1.79123   1.79598   1.80656
 Alpha virt. eigenvalues --    1.81075   1.81364   1.81903   1.82415   1.82672
 Alpha virt. eigenvalues --    1.83059   1.83269   1.83813   1.85155   1.85604
 Alpha virt. eigenvalues --    1.86199   1.87106   1.87506   1.88252   1.88829
 Alpha virt. eigenvalues --    1.89027   1.89669   1.89903   1.90421   1.91023
 Alpha virt. eigenvalues --    1.91641   1.91682   1.92578   1.93743   1.94917
 Alpha virt. eigenvalues --    1.95479   1.95529   1.95631   1.96108   1.96267
 Alpha virt. eigenvalues --    1.97883   1.98532   1.98790   1.99048   1.99742
 Alpha virt. eigenvalues --    2.00852   2.01406   2.01545   2.03372   2.03973
 Alpha virt. eigenvalues --    2.04404   2.04981   2.06019   2.06261   2.06391
 Alpha virt. eigenvalues --    2.06802   2.07832   2.08161   2.09357   2.09842
 Alpha virt. eigenvalues --    2.10756   2.12488   2.13244   2.14323   2.14929
 Alpha virt. eigenvalues --    2.15379   2.16239   2.16946   2.18099   2.18861
 Alpha virt. eigenvalues --    2.19042   2.19766   2.20434   2.21476   2.22219
 Alpha virt. eigenvalues --    2.22619   2.23005   2.23589   2.24216   2.25428
 Alpha virt. eigenvalues --    2.27807   2.28865   2.29023   2.31618   2.31786
 Alpha virt. eigenvalues --    2.32538   2.32767   2.33201   2.34023   2.34967
 Alpha virt. eigenvalues --    2.35873   2.35979   2.37110   2.38386   2.38998
 Alpha virt. eigenvalues --    2.39717   2.41572   2.42310   2.42741   2.42990
 Alpha virt. eigenvalues --    2.44535   2.45181   2.46308   2.47030   2.47898
 Alpha virt. eigenvalues --    2.48523   2.49102   2.49856   2.50549   2.50952
 Alpha virt. eigenvalues --    2.51316   2.51934   2.53110   2.53283   2.55026
 Alpha virt. eigenvalues --    2.56557   2.57442   2.58551   2.59103   2.60729
 Alpha virt. eigenvalues --    2.60927   2.62204   2.62321   2.63456   2.64285
 Alpha virt. eigenvalues --    2.65292   2.65762   2.66645   2.67635   2.68704
 Alpha virt. eigenvalues --    2.69074   2.70372   2.71334   2.72843   2.74690
 Alpha virt. eigenvalues --    2.76455   2.79608   2.82365   2.84544   2.87310
 Alpha virt. eigenvalues --    2.88828   2.89562   2.91924   2.93630   2.94393
 Alpha virt. eigenvalues --    2.95059   2.96363   2.96906   2.97570   2.98820
 Alpha virt. eigenvalues --    2.99623   3.04718   3.05740   3.09065   3.10135
 Alpha virt. eigenvalues --    3.31934   3.69191   3.71457   3.77903   3.84884
 Alpha virt. eigenvalues --    3.87644   3.92275   3.94771   3.95660   3.97556
 Alpha virt. eigenvalues --    4.00392   4.03263   4.05849   4.06448   4.08075
 Alpha virt. eigenvalues --    4.10495   4.11127   4.14231   4.16360   4.18348
 Alpha virt. eigenvalues --    4.20087   4.22773   4.23887   4.25790   4.26899
 Alpha virt. eigenvalues --    4.27814   4.32114   4.32706   4.35172   4.39387
 Alpha virt. eigenvalues --    4.42758   4.46743   4.48419   4.49993   4.52327
 Alpha virt. eigenvalues --    4.56031   4.60810   4.62574   4.66179   4.67694
          Condensed to atoms (all electrons):
 Mulliken charges:
               1
     1  N   -0.837762
     2  C   -0.087522
     3  C    0.581975
     4  O   -0.477543
     5  C   -0.389076
     6  C    0.166397
     7  C   -0.195567
     8  C   -0.177817
     9  C   -0.140507
    10  C   -0.137953
    11  C   -0.147984
    12  H    0.445509
    13  H    0.206733
    14  H    0.197182
    15  H    0.213028
    16  H    0.118872
    17  H    0.152583
    18  H    0.148602
    19  H    0.139295
    20  H    0.142070
    21  H    0.383149
    22  N   -0.602789
    23  C   -0.061536
    24  C    0.613923
    25  O   -0.547774
    26  C   -0.307820
    27  C   -0.067315
    28  C   -0.446073
    29  C   -0.472884
    30  H    0.378609
    31  H    0.217896
    32  H    0.151460
    33  H    0.141946
    34  H    0.140493
    35  H    0.143476
    36  H    0.156606
    37  H    0.139641
    38  H    0.139081
    39  H    0.177028
    40  H    0.154489
    41  N   -0.578655
    42  C   -0.063546
    43  C    0.601099
    44  O   -0.555246
    45  C   -0.410076
    46  C    0.629872
    47  N   -0.739230
    48  O   -0.523264
    49  H    0.345191
    50  H    0.218174
    51  H    0.193511
    52  H    0.193469
    53  H    0.363721
    54  H    0.355841
    55  N   -0.623942
    56  C    0.009656
    57  C    0.592216
    58  O   -0.566720
    59  C   -0.272111
    60  C   -0.278362
    61  C   -0.165737
    62  N   -0.617096
    63  C    0.773516
    64  N   -0.759025
    65  N   -0.773485
    66  O   -0.634853
    67  H    0.454097
    68  H    0.388772
    69  H    0.148305
    70  H    0.185016
    71  H    0.149582
    72  H    0.144218
    73  H    0.166703
    74  H    0.154209
    75  H    0.195724
    76  H    0.416570
    77  H    0.374846
    78  H    0.377957
    79  H    0.359036
    80  H    0.417924
 Sum of Mulliken charges =   1.00000
 Mulliken charges with hydrogens summed into heavy atoms:
               1
     1  N    0.444993
     2  C    0.119210
     3  C    0.581975
     4  O   -0.477543
     5  C    0.021134
     6  C    0.166397
     7  C   -0.076694
     8  C   -0.025234
     9  C    0.008095
    10  C    0.001342
    11  C   -0.005914
    22  N   -0.224180
    23  C    0.156360
    24  C    0.613923
    25  O   -0.547774
    26  C   -0.014414
    27  C    0.073178
    28  C   -0.006350
    29  C   -0.002285
    41  N   -0.233465
    42  C    0.154628
    43  C    0.601099
    44  O   -0.555246
    45  C   -0.023096
    46  C    0.629872
    47  N   -0.019669
    48  O   -0.523264
    55  N   -0.235170
    56  C    0.157961
    57  C    0.592216
    58  O   -0.566720
    59  C    0.062488
    60  C    0.032558
    61  C    0.184196
    62  N   -0.200525
    63  C    0.773516
    64  N   -0.006222
    65  N    0.003475
    66  O   -0.634853
 Electronic spatial extent (au):  <R**2>=         216779.0125
 Charge=              1.0000 electrons
 Dipole moment (field-independent basis, Debye):
    X=             -3.7437    Y=             62.6672    Z=            -38.0026  Tot=             73.3852
 Quadrupole moment (field-independent basis, Debye-Ang):
   XX=           -202.8006   YY=            646.0511   ZZ=            154.9481
   XY=            -24.6080   XZ=             52.0937   YZ=           -454.0355
 Traceless Quadrupole moment (field-independent basis, Debye-Ang):
   XX=           -402.2001   YY=            446.6516   ZZ=            -44.4515
   XY=            -24.6080   XZ=             52.0937   YZ=           -454.0355
 Octapole moment (field-independent basis, Debye-Ang**2):
  XXX=           1702.5171  YYY=           5183.0553  ZZZ=            425.6295  XYY=            551.4380
  XXY=          -2312.4275  XXZ=           1383.5722  XZZ=             -6.1418  YZZ=           1560.3835
  YYZ=          -4311.6805  XYZ=            411.3542
 Hexadecapole moment (field-independent basis, Debye-Ang**3):
 XXXX=         -15931.9181 YYYY=          14958.6474 ZZZZ=         -24204.8436 XXXY=          17076.2293
 XXXZ=         -11698.6959 YYYX=          20292.8984 YYYZ=         -30808.2928 ZZZX=          -5858.0046
 ZZZY=           9022.2977 XXYY=         -30620.2968 XXZZ=         -13879.3199 YYZZ=           4949.2055
 XXYZ=          15616.2579 YYXZ=          -1422.4936 ZZXY=            940.3462
 N-N= 5.023438393005D+03 E-N=-1.436718521311D+04  KE= 1.849282897312D+03
 Unable to Open any file for archive entry.
 1\1\GINC-QML-003\SP\RB3LYP\6-31G(d)\C25H41N8O6(1+)\KENGMITH\11-Jun-202
 2\0\\# B3LYP/6-31G* empiricaldispersion=gd3 guess=read geom=check nosy
 mm integral(ultrafinegrid)\\Candidate Structure: Conf:95 Charge calc i
 n gas phase\\1,1\N,0,-2.1118874138,9.8227211616,-5.1776794805\C,0,-3.4
 720230966,9.9799974696,-4.5051483095\C,0,-4.4320466884,9.0558843879,-5
 .2799490646\O,0,-4.8408803354,8.0272398569,-4.765523308\C,0,-3.8822044
 145,11.4508408162,-4.4301047587\C,0,-2.9463359031,12.3556492501,-3.644
 0585936\C,0,-2.026226931,11.888343754,-2.6992693847\C,0,-3.028821579,1
 3.7402450207,-3.8617356663\C,0,-1.2074112806,12.7749890315,-1.99122896
 97\C,0,-2.2280586841,14.6281804168,-3.1474011413\C,0,-1.3073942265,14.
 1483296749,-2.2099614396\H,0,-2.1628110011,9.1433073712,-5.9724278014\
 H,0,-3.3972032519,9.5411408771,-3.5101858829\H,0,-4.8839705148,11.4764
 102735,-3.9809626707\H,0,-3.9732965197,11.866901216,-5.4393480702\H,0,
 -1.9473698613,10.8264154226,-2.479424935\H,0,-3.7297215924,14.11520028
 82,-4.601210568\H,0,-0.5075055272,12.3877039036,-1.25581778\H,0,-2.322
 2075815,15.6967909185,-3.3223072064\H,0,-0.6886248518,14.8395933911,-1
 .6438517503\H,0,-1.4113183204,9.4787979416,-4.5193830533\N,0,-4.668138
 1057,9.4162055912,-6.5778930143\C,0,-4.7979443432,8.3729597938,-7.6031
 317304\C,0,-3.3855832728,8.31271117,-8.2316733686\O,0,-2.3913464048,8.
 2371792675,-7.5006433568\C,0,-5.9641892736,8.6417280097,-8.556527802\C
 ,0,-7.3360538403,8.7528038075,-7.8611011214\C,0,-8.4201142629,9.046183
 8033,-8.9075331691\C,0,-7.6815997036,7.501009189,-7.0411068811\H,0,-4.
 2564610259,10.2761802409,-6.9339750477\H,0,-4.9538832782,7.4331321616,
 -7.0685212282\H,0,-5.7671248811,9.5767756012,-9.0995225492\H,0,-6.0063
 475081,7.8262796087,-9.2943837215\H,0,-7.2821715181,9.6070943839,-7.17
 28039244\H,0,-8.5221056293,8.2098245262,-9.6112968783\H,0,-9.393889172
 8,9.1956389204,-8.4288106876\H,0,-8.188648421,9.9480450477,-9.48740276
 87\H,0,-7.6506832494,6.6002631228,-7.6689199026\H,0,-6.9969261372,7.35
 94140546,-6.1985005307\H,0,-8.6945238294,7.5814768232,-6.6315776552\N,
 0,-3.2484372824,8.4445115204,-9.5857593678\C,0,-2.0915429499,9.2267629
 717,-10.0189554552\C,0,-2.2337007462,10.6354820572,-9.349692069\O,0,-3
 .2820824415,10.9383056371,-8.7692430664\C,0,-2.020220538,9.2590052423,
 -11.5536448769\C,0,-0.6190222938,9.5772162271,-12.0814660806\N,0,-0.43
 05416066,9.3260426459,-13.3982862279\O,0,0.2757274755,10.0379838204,-1
 1.3720298983\H,0,-4.1067883473,8.7004351025,-10.0591992086\H,0,-1.1915
 926863,8.7525806493,-9.6239026212\H,0,-2.3301668093,8.2774902305,-11.9
 322207298\H,0,-2.7262496909,9.9939286277,-11.9638786475\H,0,0.48264891
 26,9.5029931134,-13.7952020273\H,0,-1.1258625434,8.876406218,-13.97546
 10647\N,0,-1.1569927472,11.4335072575,-9.401282673\C,0,-1.0603018164,1
 2.6985540345,-8.6644077878\C,0,-1.6807201116,12.5155789997,-7.24881494
 98\O,0,-2.7241788096,13.1263907629,-6.9392591566\C,0,-1.6183047802,13.
 9059381193,-9.4405614781\C,0,-0.962525419,15.264123292,-9.0965658584\C
 ,0,-1.4455651394,16.0089797509,-7.8380293686\N,0,-1.1732755197,15.3106
 472336,-6.5722371867\C,0,-0.0054087143,15.2253781936,-5.9373835607\N,0
 ,0.8718268732,16.2500742825,-5.9606491725\N,0,0.309644026,14.115515440
 6,-5.2571516436\O,0,-0.9715058494,11.7982667722,-6.4597826364\H,0,-1.7
 235227276,10.7387905132,-5.6037351896\H,0,-0.3545782205,11.0886986574,
 -9.9290855731\H,0,0.0135942495,12.84047334,-8.4971495885\H,0,-2.702738
 0652,13.9459273481,-9.2960663263\H,0,-1.4352145462,13.7215644249,-10.5
 05153739\H,0,0.1290126535,15.1434892276,-9.0378434263\H,0,-1.144938559
 3,15.9510817228,-9.9327187879\H,0,-1.0017822272,17.0096220681,-7.81147
 48463\H,0,-2.5294740225,16.1461028256,-7.8710712835\H,0,-1.8434815763,
 14.5537651314,-6.3861860398\H,0,1.8348914902,16.1133371944,-5.69322448
 85\H,0,0.5937911875,17.1664061103,-6.2768392571\H,0,0.8995014853,14.16
 65732545,-4.4386915692\H,0,-0.2116274638,13.2452892227,-5.4217571591\\
 Version=ES64L-G16RevC.01\HF=-1866.7410022\RMSD=1.186e-09\Dipole=3.4664
 145,3.2924195,-1.3098737\Quadrupole=-299.0259125,332.0744843,-33.04857
 19,-18.2954787,38.7303916,-337.5642526\PG=C01 [X(C25H41N8O6)]\\@
 The archive entry for this job was punched.


 TIMES HAVE CHANGED. IN THE BIBLE WHEN AN ASS
 SPOKE IT WAS CONSIDERED A MIRACLE.
 Job cpu time:       0 days  0 hours  7 minutes 53.6 seconds.
 Elapsed time:       0 days  0 hours  1 minutes 59.2 seconds.
 File lengths (MBytes):  RWF=    344 Int=      0 D2E=      0 Chk=     48 Scr=     16
 Normal termination of Gaussian 16 at Sat Jun 11 21:08:22 2022.
