 Entering Gaussian System, Link 0=/opt/software/Gaussian/g16-AVX-C.01/g16/g16
 Input=charge-conf-156.com
 Output=charge-conf-156.log
 Initial command:
 /opt/software/Gaussian/g16-AVX-C.01/g16/l1.exe "/mnt/gs18/scratch/users/kengmith/Gau-10588.inp" -scrdir="/mnt/gs18/scratch/users/kengmith/"
 Entering Link 1 = /opt/software/Gaussian/g16-AVX-C.01/g16/l1.exe PID=     10619.
  
 Copyright (c) 1988-2019, Gaussian, Inc.  All Rights Reserved.
  
 This is part of the Gaussian(R) 16 program.  It is based on
 the Gaussian(R) 09 system (copyright 2009, Gaussian, Inc.),
 the Gaussian(R) 03 system (copyright 2003, Gaussian, Inc.),
 the Gaussian(R) 98 system (copyright 1998, Gaussian, Inc.),
 the Gaussian(R) 94 system (copyright 1995, Gaussian, Inc.),
 the Gaussian 92(TM) system (copyright 1992, Gaussian, Inc.),
 the Gaussian 90(TM) system (copyright 1990, Gaussian, Inc.),
 the Gaussian 88(TM) system (copyright 1988, Gaussian, Inc.),
 the Gaussian 86(TM) system (copyright 1986, Carnegie Mellon
 University), and the Gaussian 82(TM) system (copyright 1983,
 Carnegie Mellon University). Gaussian is a federally registered
 trademark of Gaussian, Inc.
  
 This software contains proprietary and confidential information,
 including trade secrets, belonging to Gaussian, Inc.
  
 This software is provided under written license and may be
 used, copied, transmitted, or stored only in accord with that
 written license.
  
 The following legend is applicable only to US Government
 contracts under FAR:
  
                    RESTRICTED RIGHTS LEGEND
  
 Use, reproduction and disclosure by the US Government is
 subject to restrictions as set forth in subparagraphs (a)
 and (c) of the Commercial Computer Software - Restricted
 Rights clause in FAR 52.227-19.
  
 Gaussian, Inc.
 340 Quinnipiac St., Bldg. 40, Wallingford CT 06492
  
  
 ---------------------------------------------------------------
 Warning -- This program may not be used in any manner that
 competes with the business of Gaussian, Inc. or will provide
 assistance to any competitor of Gaussian, Inc.  The licensee
 of this program is prohibited from giving any competitor of
 Gaussian, Inc. access to this program.  By using this program,
 the user acknowledges that Gaussian, Inc. is engaged in the
 business of creating and licensing software in the field of
 computational chemistry and represents and warrants to the
 licensee that it is not a competitor of Gaussian, Inc. and that
 it will not use this program in any manner prohibited above.
 ---------------------------------------------------------------
  

 Cite this work as:
 Gaussian 16, Revision C.01,
 M. J. Frisch, G. W. Trucks, H. B. Schlegel, G. E. Scuseria, 
 M. A. Robb, J. R. Cheeseman, G. Scalmani, V. Barone, 
 G. A. Petersson, H. Nakatsuji, X. Li, M. Caricato, A. V. Marenich, 
 J. Bloino, B. G. Janesko, R. Gomperts, B. Mennucci, H. P. Hratchian, 
 J. V. Ortiz, A. F. Izmaylov, J. L. Sonnenberg, D. Williams-Young, 
 F. Ding, F. Lipparini, F. Egidi, J. Goings, B. Peng, A. Petrone, 
 T. Henderson, D. Ranasinghe, V. G. Zakrzewski, J. Gao, N. Rega, 
 G. Zheng, W. Liang, M. Hada, M. Ehara, K. Toyota, R. Fukuda, 
 J. Hasegawa, M. Ishida, T. Nakajima, Y. Honda, O. Kitao, H. Nakai, 
 T. Vreven, K. Throssell, J. A. Montgomery, Jr., J. E. Peralta, 
 F. Ogliaro, M. J. Bearpark, J. J. Heyd, E. N. Brothers, K. N. Kudin, 
 V. N. Staroverov, T. A. Keith, R. Kobayashi, J. Normand, 
 K. Raghavachari, A. P. Rendell, J. C. Burant, S. S. Iyengar, 
 J. Tomasi, M. Cossi, J. M. Millam, M. Klene, C. Adamo, R. Cammi, 
 J. W. Ochterski, R. L. Martin, K. Morokuma, O. Farkas, 
 J. B. Foresman, and D. J. Fox, Gaussian, Inc., Wallingford CT, 2019.
 
 ******************************************
 Gaussian 16:  ES64L-G16RevC.01  3-Jul-2019
                11-Jun-2022 
 ******************************************
 %mem=8gb
 %nproc=4
 Will use up to    4 processors via shared memory.
 %chk=conf-156.chk
 ----------------------------------------------------------------------
 # B3LYP/6-31G* empiricaldispersion=gd3 guess=read geom=check nosymm in
 tegral(ultrafinegrid)
 ----------------------------------------------------------------------
 1/29=2,38=1,172=1/1;
 2/12=2,15=1,40=1/2;
 3/5=1,6=6,7=1,11=2,14=-4,25=1,30=1,74=-5,75=-5,116=-2,124=31/1,2,3;
 4/5=1/1;
 5/5=2,38=6/2;
 6/7=2,8=2,9=2,10=2,28=1/1;
 99/5=1,9=1/99;
 ------------------------------------------------------
 Candidate Structure: Conf:156 Charge calc in gas phase
 ------------------------------------------------------
 Structure from the checkpoint file:  "conf-156.chk"
 Charge =  1 Multiplicity = 1
 Redundant internal coordinates found in file.  (old form).
 N,0,-3.0398488397,9.5553895412,-7.4457398487
 C,0,-2.8615569024,8.6332145661,-6.3087746468
 C,0,-3.2816453046,9.2163027883,-4.9517880981
 O,0,-3.5502612429,8.4483450067,-4.0368103122
 C,0,-1.3998029345,8.1198917529,-6.1743191439
 C,0,-0.8006643281,7.6739984283,-7.491395028
 C,0,-1.3779215459,6.628955695,-8.2329579817
 C,0,0.3280038799,8.3160057576,-8.0171512619
 C,0,-0.837457529,6.2330332074,-9.4562113691
 C,0,0.8895270807,7.9070521168,-9.2315690072
 C,0,0.3055092564,6.8660194073,-9.9582967561
 H,0,-2.8317708456,9.048289578,-8.3057987709
 H,0,-3.5297815103,7.7853316585,-6.4791059123
 H,0,-1.4010865738,7.3052933964,-5.4417724314
 H,0,-0.7881748915,8.9258353174,-5.7491465634
 H,0,-2.2494142498,6.1105867108,-7.8396596687
 H,0,0.79243508,9.1231592692,-7.4555516834
 H,0,-1.292404311,5.4149515097,-10.0073497242
 H,0,1.7962057023,8.387526824,-9.5926618182
 H,0,0.7513781913,6.5257581428,-10.8897100599
 H,0,-2.3406314504,10.3014302153,-7.4222445849
 N,0,-3.2205738487,10.5706753918,-4.8202345076
 C,0,-3.6179426114,11.252568415,-3.5752364077
 C,0,-4.4791650309,12.4429080934,-4.023494968
 O,0,-5.6960540524,12.4185537383,-3.9952711663
 C,0,-2.4108000923,11.6262149828,-2.6975067995
 C,0,-1.6339549432,10.4294176859,-2.1132468795
 C,0,-0.3424365298,10.9296401256,-1.4494795596
 C,0,-2.4791139563,9.6162888713,-1.1230241167
 H,0,-3.0909640088,11.1571149326,-5.6383959238
 H,0,-4.285994382,10.5788989571,-3.0381687453
 H,0,-1.7127545524,12.2391580153,-3.2867091142
 H,0,-2.7661568922,12.2626022039,-1.8746546338
 H,0,-1.3577079924,9.7674074409,-2.9458370137
 H,0,-0.5688707778,11.6014501323,-0.6114884642
 H,0,0.2430967715,10.0928461816,-1.0528704931
 H,0,0.2916411865,11.4793369341,-2.1566854202
 H,0,-2.841030148,10.2526878416,-0.3047714636
 H,0,-3.3348801375,9.1478285356,-1.6152938607
 H,0,-1.8790554847,8.8142919802,-0.6785810347
 N,0,-3.7659059498,13.5143631329,-4.5506208034
 C,0,-4.3699477266,14.2762243725,-5.6283249803
 C,0,-3.8677028643,13.6717667387,-6.9625117301
 O,0,-2.902064952,12.8894479745,-6.9882918953
 C,0,-4.0940751646,15.7890248334,-5.4909333432
 C,0,-5.1481801455,16.6550924927,-6.1821616934
 N,0,-5.2439165387,17.9266246756,-5.7288751985
 O,0,-5.8549785913,16.2439753119,-7.1057473782
 H,0,-2.7747419002,13.3501407088,-4.6847712172
 H,0,-5.4483995754,14.1092180432,-5.5598086773
 H,0,-4.0639354677,16.0203362406,-4.4209629036
 H,0,-3.1073905793,16.0509440531,-5.8965851297
 H,0,-5.9499078909,18.5272221849,-6.1341454459
 H,0,-4.7588656417,18.248289355,-4.9042807981
 N,0,-4.5675540055,13.9932885006,-8.0631032749
 C,0,-4.2987409601,13.3693832186,-9.3519096313
 C,0,-3.9768086197,11.8806476268,-9.1171510489
 O,0,-3.0097362505,11.313207165,-9.6422648253
 C,0,-3.1974034356,14.1148045586,-10.1354204211
 C,0,-3.0838932462,13.7270035276,-11.6367554199
 C,0,-1.6471602788,13.4166447328,-12.0936506248
 N,0,-1.1752083986,12.2317972051,-11.3609085637
 C,0,-0.6136637503,11.1371484978,-11.8612997932
 N,0,0.1642242888,11.1796116377,-12.958138872
 N,0,-0.8362827576,9.9587484983,-11.2514949544
 O,0,-4.8236408955,11.2722754594,-8.3324721464
 H,0,-4.3357296288,10.4450777233,-7.9397659511
 H,0,-5.2927181979,14.7096115818,-7.9606719376
 H,0,-5.2394850816,13.400269787,-9.9158808642
 H,0,-2.2531792678,13.9587490533,-9.6003317965
 H,0,-3.4154983163,15.1834573337,-10.0506220132
 H,0,-3.7028199261,12.8486209982,-11.8552227434
 H,0,-3.4669276584,14.5399850687,-12.2619644838
 H,0,-1.6230452087,13.2146623303,-13.1701875785
 H,0,-0.9840146909,14.2656292687,-11.8902526818
 H,0,-1.7276412859,12.0445991319,-10.5124090501
 H,0,0.4121529649,10.3358241739,-13.4534791836
 H,0,0.4933658849,12.0593835812,-13.3266397889
 H,0,-0.1570261879,9.2080967664,-11.2543259515
 H,0,-1.5309937103,9.9301638763,-10.5128434825
 Recover connectivity data from disk.
                           ----------------------------
                           !    Current Parameters    !
                           ! (Angstroms and Degrees)  !
 --------------------------                            --------------------------
 ! Name  Definition              Value                                          !
 --------------------------------------------------------------------------------
 ! R1    R(1,2)                  1.4747                                         !
 ! R2    R(1,12)                 1.0199                                         !
 ! R3    R(1,21)                 1.0228                                         !
 ! R4    R(2,3)                  1.5355                                         !
 ! R5    R(2,5)                  1.5551                                         !
 ! R6    R(2,13)                 1.0929                                         !
 ! R7    R(3,4)                  1.2244                                         !
 ! R8    R(3,22)                 1.3621                                         !
 ! R9    R(5,6)                  1.5141                                         !
 ! R10   R(5,14)                 1.0955                                         !
 ! R11   R(5,15)                 1.0975                                         !
 ! R12   R(6,7)                  1.4054                                         !
 ! R13   R(6,8)                  1.4009                                         !
 ! R14   R(7,9)                  1.3947                                         !
 ! R15   R(7,16)                 1.0876                                         !
 ! R16   R(8,10)                 1.3991                                         !
 ! R17   R(8,17)                 1.0875                                         !
 ! R18   R(9,11)                 1.3997                                         !
 ! R19   R(9,18)                 1.0863                                         !
 ! R20   R(10,11)                1.3975                                         !
 ! R21   R(10,19)                1.0878                                         !
 ! R22   R(11,20)                1.0872                                         !
 ! R23   R(22,23)                1.4741                                         !
 ! R24   R(22,30)                1.0149                                         !
 ! R25   R(23,24)                1.5361                                         !
 ! R26   R(23,26)                1.5386                                         !
 ! R27   R(23,31)                1.0902                                         !
 ! R28   R(24,25)                1.2175                                         !
 ! R29   R(24,41)                1.3909                                         !
 ! R30   R(26,27)                1.5418                                         !
 ! R31   R(26,32)                1.1001                                         !
 ! R32   R(26,33)                1.0993                                         !
 ! R33   R(27,28)                1.5358                                         !
 ! R34   R(27,29)                1.5349                                         !
 ! R35   R(27,34)                1.099                                          !
 ! R36   R(28,35)                1.0976                                         !
 ! R37   R(28,36)                1.0956                                         !
 ! R38   R(28,37)                1.0974                                         !
 ! R39   R(29,38)                1.098                                          !
 ! R40   R(29,39)                1.0928                                         !
 ! R41   R(29,40)                1.0958                                         !
 ! R42   R(41,42)                1.4515                                         !
 ! R43   R(41,49)                1.0136                                         !
 ! R44   R(42,43)                1.5484                                         !
 ! R45   R(42,45)                1.5439                                         !
 ! R46   R(42,50)                1.0935                                         !
 ! R47   R(43,44)                1.243                                          !
 ! R48   R(43,55)                1.3433                                         !
 ! R49   R(45,46)                1.5294                                         !
 ! R50   R(45,51)                1.0951                                         !
 ! R51   R(45,52)                1.0985                                         !
 ! R52   R(46,47)                1.3533                                         !
 ! R53   R(46,48)                1.2335                                         !
 ! R54   R(47,53)                1.0116                                         !
 ! R55   R(47,54)                1.0093                                         !
 ! R56   R(55,56)                1.4569                                         !
 ! R57   R(55,68)                1.0244                                         !
 ! R58   R(56,57)                1.5411                                         !
 ! R59   R(56,59)                1.5435                                         !
 ! R60   R(56,69)                1.0973                                         !
 ! R61   R(57,58)                1.2381                                         !
 ! R62   R(57,66)                1.305                                          !
 ! R63   R(59,60)                1.5548                                         !
 ! R64   R(59,70)                1.0965                                         !
 ! R65   R(59,71)                1.094                                          !
 ! R66   R(60,61)                1.5392                                         !
 ! R67   R(60,72)                1.0965                                         !
 ! R68   R(60,73)                1.0948                                         !
 ! R69   R(61,62)                1.4709                                         !
 ! R70   R(61,74)                1.0956                                         !
 ! R71   R(61,75)                1.0963                                         !
 ! R72   R(62,63)                1.3281                                         !
 ! R73   R(62,76)                1.0296                                         !
 ! R74   R(63,64)                1.3454                                         !
 ! R75   R(63,65)                1.3454                                         !
 ! R76   R(64,77)                1.0094                                         !
 ! R77   R(64,78)                1.009                                          !
 ! R78   R(65,79)                1.0124                                         !
 ! R79   R(65,80)                1.0144                                         !
 ! R80   R(66,67)                1.0376                                         !
 ! A1    A(2,1,12)             108.3345                                         !
 ! A2    A(2,1,21)             110.8402                                         !
 ! A3    A(12,1,21)            104.0389                                         !
 ! A4    A(1,2,3)              114.2542                                         !
 ! A5    A(1,2,5)              112.7498                                         !
 ! A6    A(1,2,13)             106.9206                                         !
 ! A7    A(3,2,5)              107.8241                                         !
 ! A8    A(3,2,13)             105.3702                                         !
 ! A9    A(5,2,13)             109.3969                                         !
 ! A10   A(2,3,4)              118.8325                                         !
 ! A11   A(2,3,22)             116.7856                                         !
 ! A12   A(4,3,22)             124.1471                                         !
 ! A13   A(2,5,6)              113.201                                          !
 ! A14   A(2,5,14)             107.5872                                         !
 ! A15   A(2,5,15)             108.3578                                         !
 ! A16   A(6,5,14)             111.2935                                         !
 ! A17   A(6,5,15)             109.4353                                         !
 ! A18   A(14,5,15)            106.7176                                         !
 ! A19   A(5,6,7)              121.0262                                         !
 ! A20   A(5,6,8)              120.685                                          !
 ! A21   A(7,6,8)              118.2723                                         !
 ! A22   A(6,7,9)              120.977                                          !
 ! A23   A(6,7,16)             119.5188                                         !
 ! A24   A(9,7,16)             119.4968                                         !
 ! A25   A(6,8,10)             121.0094                                         !
 ! A26   A(6,8,17)             119.3685                                         !
 ! A27   A(10,8,17)            119.5921                                         !
 ! A28   A(7,9,11)             120.177                                          !
 ! A29   A(7,9,18)             119.768                                          !
 ! A30   A(11,9,18)            120.0384                                         !
 ! A31   A(8,10,11)            120.0936                                         !
 ! A32   A(8,10,19)            119.5748                                         !
 ! A33   A(11,10,19)           120.3138                                         !
 ! A34   A(9,11,10)            119.4459                                         !
 ! A35   A(9,11,20)            120.0425                                         !
 ! A36   A(10,11,20)           120.4804                                         !
 ! A37   A(3,22,23)            121.968                                          !
 ! A38   A(3,22,30)            120.1585                                         !
 ! A39   A(23,22,30)           116.6143                                         !
 ! A40   A(22,23,24)           105.2564                                         !
 ! A41   A(22,23,26)           112.4989                                         !
 ! A42   A(22,23,31)           107.1821                                         !
 ! A43   A(24,23,26)           114.7193                                         !
 ! A44   A(24,23,31)           106.203                                          !
 ! A45   A(26,23,31)           110.4751                                         !
 ! A46   A(23,24,25)           122.5566                                         !
 ! A47   A(23,24,41)           114.8364                                         !
 ! A48   A(25,24,41)           122.4632                                         !
 ! A49   A(23,26,27)           115.0233                                         !
 ! A50   A(23,26,32)           109.1244                                         !
 ! A51   A(23,26,33)           108.3004                                         !
 ! A52   A(27,26,32)           108.4063                                         !
 ! A53   A(27,26,33)           109.1839                                         !
 ! A54   A(32,26,33)           106.4689                                         !
 ! A55   A(26,27,28)           109.5516                                         !
 ! A56   A(26,27,29)           112.2249                                         !
 ! A57   A(26,27,34)           107.8876                                         !
 ! A58   A(28,27,29)           110.9006                                         !
 ! A59   A(28,27,34)           108.1942                                         !
 ! A60   A(29,27,34)           107.9411                                         !
 ! A61   A(27,28,35)           110.8435                                         !
 ! A62   A(27,28,36)           110.9225                                         !
 ! A63   A(27,28,37)           111.7464                                         !
 ! A64   A(35,28,36)           107.5384                                         !
 ! A65   A(35,28,37)           107.734                                          !
 ! A66   A(36,28,37)           107.8819                                         !
 ! A67   A(27,29,38)           110.807                                          !
 ! A68   A(27,29,39)           111.5729                                         !
 ! A69   A(27,29,40)           110.3558                                         !
 ! A70   A(38,29,39)           109.03                                           !
 ! A71   A(38,29,40)           107.6047                                         !
 ! A72   A(39,29,40)           107.325                                          !
 ! A73   A(24,41,42)           118.1852                                         !
 ! A74   A(24,41,49)           115.2649                                         !
 ! A75   A(42,41,49)           113.1864                                         !
 ! A76   A(41,42,43)           107.45                                           !
 ! A77   A(41,42,45)           111.9556                                         !
 ! A78   A(41,42,50)           106.4846                                         !
 ! A79   A(43,42,45)           113.6549                                         !
 ! A80   A(43,42,50)           108.3169                                         !
 ! A81   A(45,42,50)           108.6822                                         !
 ! A82   A(42,43,44)           121.0323                                         !
 ! A83   A(42,43,55)           116.3292                                         !
 ! A84   A(44,43,55)           122.5728                                         !
 ! A85   A(42,45,46)           113.0484                                         !
 ! A86   A(42,45,51)           107.3879                                         !
 ! A87   A(42,45,52)           111.1783                                         !
 ! A88   A(46,45,51)           109.9348                                         !
 ! A89   A(46,45,52)           108.4911                                         !
 ! A90   A(51,45,52)           106.6019                                         !
 ! A91   A(45,46,47)           115.4322                                         !
 ! A92   A(45,46,48)           122.9968                                         !
 ! A93   A(47,46,48)           121.5606                                         !
 ! A94   A(46,47,53)           118.2297                                         !
 ! A95   A(46,47,54)           122.622                                          !
 ! A96   A(53,47,54)           118.26                                           !
 ! A97   A(43,55,56)           121.7463                                         !
 ! A98   A(43,55,68)           117.0156                                         !
 ! A99   A(56,55,68)           121.2319                                         !
 ! A100  A(55,56,57)           108.5102                                         !
 ! A101  A(55,56,59)           111.9553                                         !
 ! A102  A(55,56,69)           106.5248                                         !
 ! A103  A(57,56,59)           113.2528                                         !
 ! A104  A(57,56,69)           106.5336                                         !
 ! A105  A(59,56,69)           109.7088                                         !
 ! A106  A(56,57,58)           122.7708                                         !
 ! A107  A(56,57,66)           113.9778                                         !
 ! A108  A(58,57,66)           123.2452                                         !
 ! A109  A(56,59,60)           114.9484                                         !
 ! A110  A(56,59,70)           107.3372                                         !
 ! A111  A(56,59,71)           106.8676                                         !
 ! A112  A(60,59,70)           111.8929                                         !
 ! A113  A(60,59,71)           109.4547                                         !
 ! A114  A(70,59,71)           105.836                                          !
 ! A115  A(59,60,61)           113.8954                                         !
 ! A116  A(59,60,72)           110.5479                                         !
 ! A117  A(59,60,73)           109.9189                                         !
 ! A118  A(61,60,72)           107.8302                                         !
 ! A119  A(61,60,73)           107.8658                                         !
 ! A120  A(72,60,73)           106.4754                                         !
 ! A121  A(60,61,62)           108.303                                          !
 ! A122  A(60,61,74)           110.4498                                         !
 ! A123  A(60,61,75)           110.6947                                         !
 ! A124  A(62,61,74)           109.5075                                         !
 ! A125  A(62,61,75)           109.7121                                         !
 ! A126  A(74,61,75)           108.1651                                         !
 ! A127  A(61,62,63)           127.726                                          !
 ! A128  A(61,62,76)           112.6326                                         !
 ! A129  A(63,62,76)           112.7974                                         !
 ! A130  A(62,63,64)           121.7098                                         !
 ! A131  A(62,63,65)           118.7617                                         !
 ! A132  A(64,63,65)           119.5283                                         !
 ! A133  A(63,64,77)           121.0466                                         !
 ! A134  A(63,64,78)           120.9223                                         !
 ! A135  A(77,64,78)           118.004                                          !
 ! A136  A(63,65,79)           122.4909                                         !
 ! A137  A(63,65,80)           117.9072                                         !
 ! A138  A(79,65,80)           116.1448                                         !
 ! A139  A(57,66,67)           107.1038                                         !
 ! D1    D(12,1,2,3)          -173.9596                                         !
 ! D2    D(12,1,2,5)            62.4685                                         !
 ! D3    D(12,1,2,13)          -57.7959                                         !
 ! D4    D(21,1,2,3)            72.4878                                         !
 ! D5    D(21,1,2,5)           -51.0842                                         !
 ! D6    D(21,1,2,13)         -171.3486                                         !
 ! D7    D(1,2,3,4)            158.6153                                         !
 ! D8    D(1,2,3,22)           -26.7186                                         !
 ! D9    D(5,2,3,4)            -75.1994                                         !
 ! D10   D(5,2,3,22)            99.4666                                         !
 ! D11   D(13,2,3,4)            41.5558                                         !
 ! D12   D(13,2,3,22)         -143.7782                                         !
 ! D13   D(1,2,5,6)            -45.7943                                         !
 ! D14   D(1,2,5,14)          -169.1841                                         !
 ! D15   D(1,2,5,15)            75.784                                          !
 ! D16   D(3,2,5,6)           -172.8597                                         !
 ! D17   D(3,2,5,14)            63.7505                                         !
 ! D18   D(3,2,5,15)           -51.2814                                         !
 ! D19   D(13,2,5,6)            73.0371                                         !
 ! D20   D(13,2,5,14)          -50.3526                                         !
 ! D21   D(13,2,5,15)         -165.3846                                         !
 ! D22   D(2,3,22,23)          178.9855                                         !
 ! D23   D(2,3,22,30)           12.24                                           !
 ! D24   D(4,3,22,23)           -6.6616                                         !
 ! D25   D(4,3,22,30)         -173.4072                                         !
 ! D26   D(2,5,6,7)            -60.3777                                         !
 ! D27   D(2,5,6,8)            118.1205                                         !
 ! D28   D(14,5,6,7)            60.9469                                         !
 ! D29   D(14,5,6,8)          -120.5549                                         !
 ! D30   D(15,5,6,7)           178.6512                                         !
 ! D31   D(15,5,6,8)            -2.8506                                         !
 ! D32   D(5,6,7,9)            178.9841                                         !
 ! D33   D(5,6,7,16)            -2.0107                                         !
 ! D34   D(8,6,7,9)              0.4506                                         !
 ! D35   D(8,6,7,16)           179.4558                                         !
 ! D36   D(5,6,8,10)           179.8101                                         !
 ! D37   D(5,6,8,17)             1.8109                                         !
 ! D38   D(7,6,8,10)            -1.6512                                         !
 ! D39   D(7,6,8,17)          -179.6504                                         !
 ! D40   D(6,7,9,11)             0.7478                                         !
 ! D41   D(6,7,9,18)           179.2663                                         !
 ! D42   D(16,7,9,11)         -178.2576                                         !
 ! D43   D(16,7,9,18)            0.2609                                         !
 ! D44   D(6,8,10,11)            1.6576                                         !
 ! D45   D(6,8,10,19)         -176.8157                                         !
 ! D46   D(17,8,10,11)         179.6524                                         !
 ! D47   D(17,8,10,19)           1.1791                                         !
 ! D48   D(7,9,11,10)           -0.7597                                         !
 ! D49   D(7,9,11,20)          177.2163                                         !
 ! D50   D(18,9,11,10)        -179.2742                                         !
 ! D51   D(18,9,11,20)          -1.2982                                         !
 ! D52   D(8,10,11,9)           -0.4267                                         !
 ! D53   D(8,10,11,20)        -178.3937                                         !
 ! D54   D(19,10,11,9)         178.0352                                         !
 ! D55   D(19,10,11,20)          0.0683                                         !
 ! D56   D(3,22,23,24)        -134.9154                                         !
 ! D57   D(3,22,23,26)          99.4841                                         !
 ! D58   D(3,22,23,31)         -22.1423                                         !
 ! D59   D(30,22,23,24)         32.2736                                         !
 ! D60   D(30,22,23,26)        -93.3269                                         !
 ! D61   D(30,22,23,31)        145.0468                                         !
 ! D62   D(22,23,24,25)         99.7829                                         !
 ! D63   D(22,23,24,41)        -75.9533                                         !
 ! D64   D(26,23,24,25)       -136.0077                                         !
 ! D65   D(26,23,24,41)         48.2561                                         !
 ! D66   D(31,23,24,25)        -13.6781                                         !
 ! D67   D(31,23,24,41)        170.5857                                         !
 ! D68   D(22,23,26,27)        -66.2842                                         !
 ! D69   D(22,23,26,32)         55.7676                                         !
 ! D70   D(22,23,26,33)        171.2808                                         !
 ! D71   D(24,23,26,27)        173.4359                                         !
 ! D72   D(24,23,26,32)        -64.5123                                         !
 ! D73   D(24,23,26,33)         51.0009                                         !
 ! D74   D(31,23,26,27)         53.4492                                         !
 ! D75   D(31,23,26,32)        175.5009                                         !
 ! D76   D(31,23,26,33)        -68.9858                                         !
 ! D77   D(23,24,41,42)        145.3912                                         !
 ! D78   D(23,24,41,49)          7.0739                                         !
 ! D79   D(25,24,41,42)        -30.3495                                         !
 ! D80   D(25,24,41,49)       -168.6667                                         !
 ! D81   D(23,26,27,28)        171.2117                                         !
 ! D82   D(23,26,27,29)        -65.1418                                         !
 ! D83   D(23,26,27,34)         53.6443                                         !
 ! D84   D(32,26,27,28)         48.7732                                         !
 ! D85   D(32,26,27,29)        172.4197                                         !
 ! D86   D(32,26,27,34)        -68.7942                                         !
 ! D87   D(33,26,27,28)        -66.8294                                         !
 ! D88   D(33,26,27,29)         56.8171                                         !
 ! D89   D(33,26,27,34)        175.6031                                         !
 ! D90   D(26,27,28,35)         62.342                                          !
 ! D91   D(26,27,28,36)       -178.267                                          !
 ! D92   D(26,27,28,37)        -57.8414                                         !
 ! D93   D(29,27,28,35)        -62.0794                                         !
 ! D94   D(29,27,28,36)         57.3116                                         !
 ! D95   D(29,27,28,37)        177.7372                                         !
 ! D96   D(34,27,28,35)        179.7174                                         !
 ! D97   D(34,27,28,36)        -60.8916                                         !
 ! D98   D(34,27,28,37)         59.534                                          !
 ! D99   D(26,27,29,38)        -57.2634                                         !
 ! D100  D(26,27,29,39)         64.4272                                         !
 ! D101  D(26,27,29,40)       -176.3474                                         !
 ! D102  D(28,27,29,38)         65.6254                                         !
 ! D103  D(28,27,29,39)       -172.684                                          !
 ! D104  D(28,27,29,40)        -53.4586                                         !
 ! D105  D(34,27,29,38)       -176.018                                          !
 ! D106  D(34,27,29,39)        -54.3273                                         !
 ! D107  D(34,27,29,40)         64.8981                                         !
 ! D108  D(24,41,42,43)        -93.4448                                         !
 ! D109  D(24,41,42,45)        141.0913                                         !
 ! D110  D(24,41,42,50)         22.4408                                         !
 ! D111  D(49,41,42,43)         45.6934                                         !
 ! D112  D(49,41,42,45)        -79.7706                                         !
 ! D113  D(49,41,42,50)        161.5789                                         !
 ! D114  D(41,42,43,44)        -14.0963                                         !
 ! D115  D(41,42,43,55)        163.0302                                         !
 ! D116  D(45,42,43,44)        110.3453                                         !
 ! D117  D(45,42,43,55)        -72.5281                                         !
 ! D118  D(50,42,43,44)       -128.7658                                         !
 ! D119  D(50,42,43,55)         48.3608                                         !
 ! D120  D(41,42,45,46)       -154.9678                                         !
 ! D121  D(41,42,45,51)        -33.5344                                         !
 ! D122  D(41,42,45,52)         82.7236                                         !
 ! D123  D(43,42,45,46)         83.0563                                         !
 ! D124  D(43,42,45,51)       -155.5104                                         !
 ! D125  D(43,42,45,52)        -39.2524                                         !
 ! D126  D(50,42,45,46)        -37.6274                                         !
 ! D127  D(50,42,45,51)         83.8059                                         !
 ! D128  D(50,42,45,52)       -159.9361                                         !
 ! D129  D(42,43,55,56)       -172.6317                                         !
 ! D130  D(42,43,55,68)          8.2631                                         !
 ! D131  D(44,43,55,56)          4.4465                                         !
 ! D132  D(44,43,55,68)       -174.6587                                         !
 ! D133  D(42,45,46,47)        157.8548                                         !
 ! D134  D(42,45,46,48)        -23.3007                                         !
 ! D135  D(51,45,46,47)         37.8697                                         !
 ! D136  D(51,45,46,48)       -143.2858                                         !
 ! D137  D(52,45,46,47)        -78.3468                                         !
 ! D138  D(52,45,46,48)        100.4977                                         !
 ! D139  D(45,46,47,53)       -177.8894                                         !
 ! D140  D(45,46,47,54)         -8.8748                                         !
 ! D141  D(48,46,47,53)          3.2479                                         !
 ! D142  D(48,46,47,54)        172.2625                                         !
 ! D143  D(43,55,56,57)         38.4084                                         !
 ! D144  D(43,55,56,59)        -87.3129                                         !
 ! D145  D(43,55,56,69)        152.7616                                         !
 ! D146  D(68,55,56,57)       -142.5239                                         !
 ! D147  D(68,55,56,59)         91.7549                                         !
 ! D148  D(68,55,56,69)        -28.1707                                         !
 ! D149  D(55,56,57,58)       -132.9942                                         !
 ! D150  D(55,56,57,66)         47.8868                                         !
 ! D151  D(59,56,57,58)         -8.0348                                         !
 ! D152  D(59,56,57,66)        172.8463                                         !
 ! D153  D(69,56,57,58)        112.6584                                         !
 ! D154  D(69,56,57,66)        -66.4606                                         !
 ! D155  D(55,56,59,60)       -166.2437                                         !
 ! D156  D(55,56,59,70)         68.5831                                         !
 ! D157  D(55,56,59,71)        -44.5818                                         !
 ! D158  D(57,56,59,60)         70.6785                                         !
 ! D159  D(57,56,59,70)        -54.4947                                         !
 ! D160  D(57,56,59,71)       -167.6595                                         !
 ! D161  D(69,56,59,60)        -48.1989                                         !
 ! D162  D(69,56,59,70)       -173.3721                                         !
 ! D163  D(69,56,59,71)         73.4631                                         !
 ! D164  D(56,57,66,67)       -157.4483                                         !
 ! D165  D(58,57,66,67)         23.4375                                         !
 ! D166  D(56,59,60,61)       -131.4213                                         !
 ! D167  D(56,59,60,72)         -9.8388                                         !
 ! D168  D(56,59,60,73)        107.4177                                         !
 ! D169  D(70,59,60,61)         -8.6589                                         !
 ! D170  D(70,59,60,72)        112.9235                                         !
 ! D171  D(70,59,60,73)       -129.82                                           !
 ! D172  D(71,59,60,61)        108.3318                                         !
 ! D173  D(71,59,60,72)       -130.0857                                         !
 ! D174  D(71,59,60,73)        -12.8292                                         !
 ! D175  D(59,60,61,62)         63.7511                                         !
 ! D176  D(59,60,61,74)       -176.3333                                         !
 ! D177  D(59,60,61,75)        -56.5621                                         !
 ! D178  D(72,60,61,62)        -59.326                                          !
 ! D179  D(72,60,61,74)         60.5896                                         !
 ! D180  D(72,60,61,75)       -179.6392                                         !
 ! D181  D(73,60,61,62)       -173.9514                                         !
 ! D182  D(73,60,61,74)        -54.0357                                         !
 ! D183  D(73,60,61,75)         65.7354                                         !
 ! D184  D(60,61,62,63)        129.7824                                         !
 ! D185  D(60,61,62,76)        -18.7902                                         !
 ! D186  D(74,61,62,63)          9.2784                                         !
 ! D187  D(74,61,62,76)       -139.2942                                         !
 ! D188  D(75,61,62,63)       -109.2934                                         !
 ! D189  D(75,61,62,76)        102.134                                          !
 ! D190  D(61,62,63,64)         32.4739                                         !
 ! D191  D(61,62,63,65)       -147.3556                                         !
 ! D192  D(76,62,63,64)       -178.9957                                         !
 ! D193  D(76,62,63,65)          1.1748                                         !
 ! D194  D(62,63,64,77)       -165.8243                                         !
 ! D195  D(62,63,64,78)         12.2432                                         !
 ! D196  D(65,63,64,77)         14.0039                                         !
 ! D197  D(65,63,64,78)       -167.9286                                         !
 ! D198  D(62,63,65,79)       -149.5451                                         !
 ! D199  D(62,63,65,80)          8.6503                                         !
 ! D200  D(64,63,65,79)         30.6216                                         !
 ! D201  D(64,63,65,80)       -171.183                                          !
 --------------------------------------------------------------------------------
 Symmetry turned off by external request.
 Stoichiometry    C25H41N8O6(1+)
 Framework group  C1[X(C25H41N8O6)]
 Deg. of freedom   234
 Full point group                 C1      NOp   1
                          Input orientation:                          
 ---------------------------------------------------------------------
 Center     Atomic      Atomic             Coordinates (Angstroms)
 Number     Number       Type             X           Y           Z
 ---------------------------------------------------------------------
      1          7           0       -3.039849    9.555390   -7.445740
      2          6           0       -2.861557    8.633215   -6.308775
      3          6           0       -3.281645    9.216303   -4.951788
      4          8           0       -3.550261    8.448345   -4.036810
      5          6           0       -1.399803    8.119892   -6.174319
      6          6           0       -0.800664    7.673998   -7.491395
      7          6           0       -1.377922    6.628956   -8.232958
      8          6           0        0.328004    8.316006   -8.017151
      9          6           0       -0.837458    6.233033   -9.456211
     10          6           0        0.889527    7.907052   -9.231569
     11          6           0        0.305509    6.866019   -9.958297
     12          1           0       -2.831771    9.048290   -8.305799
     13          1           0       -3.529782    7.785332   -6.479106
     14          1           0       -1.401087    7.305293   -5.441772
     15          1           0       -0.788175    8.925835   -5.749147
     16          1           0       -2.249414    6.110587   -7.839660
     17          1           0        0.792435    9.123159   -7.455552
     18          1           0       -1.292404    5.414952  -10.007350
     19          1           0        1.796206    8.387527   -9.592662
     20          1           0        0.751378    6.525758  -10.889710
     21          1           0       -2.340631   10.301430   -7.422245
     22          7           0       -3.220574   10.570675   -4.820235
     23          6           0       -3.617943   11.252568   -3.575236
     24          6           0       -4.479165   12.442908   -4.023495
     25          8           0       -5.696054   12.418554   -3.995271
     26          6           0       -2.410800   11.626215   -2.697507
     27          6           0       -1.633955   10.429418   -2.113247
     28          6           0       -0.342437   10.929640   -1.449480
     29          6           0       -2.479114    9.616289   -1.123024
     30          1           0       -3.090964   11.157115   -5.638396
     31          1           0       -4.285994   10.578899   -3.038169
     32          1           0       -1.712755   12.239158   -3.286709
     33          1           0       -2.766157   12.262602   -1.874655
     34          1           0       -1.357708    9.767407   -2.945837
     35          1           0       -0.568871   11.601450   -0.611488
     36          1           0        0.243097   10.092846   -1.052870
     37          1           0        0.291641   11.479337   -2.156685
     38          1           0       -2.841030   10.252688   -0.304771
     39          1           0       -3.334880    9.147829   -1.615294
     40          1           0       -1.879055    8.814292   -0.678581
     41          7           0       -3.765906   13.514363   -4.550621
     42          6           0       -4.369948   14.276224   -5.628325
     43          6           0       -3.867703   13.671767   -6.962512
     44          8           0       -2.902065   12.889448   -6.988292
     45          6           0       -4.094075   15.789025   -5.490933
     46          6           0       -5.148180   16.655092   -6.182162
     47          7           0       -5.243917   17.926625   -5.728875
     48          8           0       -5.854979   16.243975   -7.105747
     49          1           0       -2.774742   13.350141   -4.684771
     50          1           0       -5.448400   14.109218   -5.559809
     51          1           0       -4.063935   16.020336   -4.420963
     52          1           0       -3.107391   16.050944   -5.896585
     53          1           0       -5.949908   18.527222   -6.134145
     54          1           0       -4.758866   18.248289   -4.904281
     55          7           0       -4.567554   13.993289   -8.063103
     56          6           0       -4.298741   13.369383   -9.351910
     57          6           0       -3.976809   11.880648   -9.117151
     58          8           0       -3.009736   11.313207   -9.642265
     59          6           0       -3.197403   14.114805  -10.135420
     60          6           0       -3.083893   13.727004  -11.636755
     61          6           0       -1.647160   13.416645  -12.093651
     62          7           0       -1.175208   12.231797  -11.360909
     63          6           0       -0.613664   11.137148  -11.861300
     64          7           0        0.164224   11.179612  -12.958139
     65          7           0       -0.836283    9.958748  -11.251495
     66          8           0       -4.823641   11.272275   -8.332472
     67          1           0       -4.335730   10.445078   -7.939766
     68          1           0       -5.292718   14.709612   -7.960672
     69          1           0       -5.239485   13.400270   -9.915881
     70          1           0       -2.253179   13.958749   -9.600332
     71          1           0       -3.415498   15.183457  -10.050622
     72          1           0       -3.702820   12.848621  -11.855223
     73          1           0       -3.466928   14.539985  -12.261964
     74          1           0       -1.623045   13.214662  -13.170188
     75          1           0       -0.984015   14.265629  -11.890253
     76          1           0       -1.727641   12.044599  -10.512409
     77          1           0        0.412153   10.335824  -13.453479
     78          1           0        0.493366   12.059384  -13.326640
     79          1           0       -0.157026    9.208097  -11.254326
     80          1           0       -1.530994    9.930164  -10.512843
 ---------------------------------------------------------------------
 Rotational constants (GHZ):           0.0920761           0.0764007           0.0468307
 Standard basis: 6-31G(d) (6D, 7F)
   667 basis functions,  1256 primitive gaussians,   667 cartesian basis functions
   147 alpha electrons      147 beta electrons
       nuclear repulsion energy      4857.5318107080 Hartrees.
 NAtoms=   80 NActive=   80 NUniq=   80 SFac= 1.00D+00 NAtFMM=   60 NAOKFM=T Big=T
 Integral buffers will be    131072 words long.
 Raffenetti 2 integral format.
 Two-electron integral symmetry is turned off.
 Nuclear repulsion after empirical dispersion term =     4857.4224696323 Hartrees.
 One-electron integrals computed using PRISM.
 NBasis=   667 RedAO= T EigKep=  4.72D-04  NBF=   667
 NBsUse=   667 1.00D-06 EigRej= -1.00D+00 NBFU=   667
 Initial guess from the checkpoint file:  "conf-156.chk"
 B after Tr=     0.000000    0.000000    0.000000
         Rot=    1.000000    0.000000    0.000000    0.000000 Ang=   0.00 deg.
 Requested convergence on RMS density matrix=1.00D-08 within 128 cycles.
 Requested convergence on MAX density matrix=1.00D-06.
 Requested convergence on             energy=1.00D-06.
 No special actions if energy rises.
 SCF Done:  E(RB3LYP) =  -1866.73769117     A.U. after    3 cycles
            NFock=  3  Conv=0.89D-09     -V/T= 2.0095

 **********************************************************************

            Population analysis using the SCF Density.

 **********************************************************************

 Alpha  occ. eigenvalues --  -19.27295 -19.25410 -19.22536 -19.21787 -19.19457
 Alpha  occ. eigenvalues --  -19.18553 -14.51826 -14.50236 -14.49629 -14.45691
 Alpha  occ. eigenvalues --  -14.45433 -14.44567 -14.43652 -14.43637 -10.47233
 Alpha  occ. eigenvalues --  -10.43323 -10.39357 -10.38950 -10.36334 -10.36222
 Alpha  occ. eigenvalues --  -10.35704 -10.34947 -10.32667 -10.31943 -10.31063
 Alpha  occ. eigenvalues --  -10.30300 -10.30067 -10.29911 -10.29670 -10.29296
 Alpha  occ. eigenvalues --  -10.29078 -10.28909 -10.28858 -10.28668 -10.28342
 Alpha  occ. eigenvalues --  -10.25467 -10.24664 -10.22852 -10.21643  -1.20477
 Alpha  occ. eigenvalues --   -1.15756  -1.14114  -1.13287  -1.11463  -1.11388
 Alpha  occ. eigenvalues --   -1.10606  -1.05105  -1.03887  -1.02863  -1.01398
 Alpha  occ. eigenvalues --   -1.00789  -1.00217  -0.99109  -0.95298  -0.91634
 Alpha  occ. eigenvalues --   -0.88275  -0.87579  -0.86931  -0.85833  -0.84264
 Alpha  occ. eigenvalues --   -0.82588  -0.80862  -0.80262  -0.78154  -0.76525
 Alpha  occ. eigenvalues --   -0.74500  -0.73485  -0.73183  -0.72824  -0.72107
 Alpha  occ. eigenvalues --   -0.70760  -0.70329  -0.69090  -0.68260  -0.67713
 Alpha  occ. eigenvalues --   -0.66547  -0.66374  -0.65975  -0.65154  -0.64544
 Alpha  occ. eigenvalues --   -0.64503  -0.63618  -0.62514  -0.61725  -0.61580
 Alpha  occ. eigenvalues --   -0.60631  -0.60348  -0.59253  -0.58560  -0.57965
 Alpha  occ. eigenvalues --   -0.57551  -0.56957  -0.56140  -0.55738  -0.55179
 Alpha  occ. eigenvalues --   -0.54996  -0.54798  -0.54704  -0.53926  -0.53372
 Alpha  occ. eigenvalues --   -0.53188  -0.53012  -0.52303  -0.51960  -0.51768
 Alpha  occ. eigenvalues --   -0.51391  -0.50867  -0.50783  -0.50410  -0.49738
 Alpha  occ. eigenvalues --   -0.48782  -0.48677  -0.48405  -0.47586  -0.47302
 Alpha  occ. eigenvalues --   -0.46927  -0.46692  -0.46131  -0.45947  -0.45874
 Alpha  occ. eigenvalues --   -0.45528  -0.45151  -0.44715  -0.44599  -0.43627
 Alpha  occ. eigenvalues --   -0.43454  -0.43208  -0.42703  -0.42463  -0.41843
 Alpha  occ. eigenvalues --   -0.41291  -0.40226  -0.39236  -0.38874  -0.38101
 Alpha  occ. eigenvalues --   -0.37986  -0.37605  -0.37001  -0.36441  -0.35847
 Alpha  occ. eigenvalues --   -0.35722  -0.35049  -0.34584  -0.34361  -0.33843
 Alpha  occ. eigenvalues --   -0.32148  -0.31244
 Alpha virt. eigenvalues --   -0.12055  -0.10615  -0.10435  -0.10273  -0.08188
 Alpha virt. eigenvalues --   -0.07346  -0.07053  -0.06712  -0.04158  -0.03730
 Alpha virt. eigenvalues --   -0.02504  -0.01396  -0.00989  -0.00621  -0.00167
 Alpha virt. eigenvalues --    0.00394   0.01020   0.01134   0.01851   0.02063
 Alpha virt. eigenvalues --    0.02254   0.02539   0.03380   0.03913   0.04344
 Alpha virt. eigenvalues --    0.04948   0.04979   0.05187   0.05399   0.05925
 Alpha virt. eigenvalues --    0.06194   0.06777   0.06986   0.07149   0.07659
 Alpha virt. eigenvalues --    0.07772   0.07886   0.08282   0.08985   0.09165
 Alpha virt. eigenvalues --    0.09420   0.09809   0.09881   0.10661   0.11052
 Alpha virt. eigenvalues --    0.11357   0.11530   0.11866   0.11942   0.12229
 Alpha virt. eigenvalues --    0.12709   0.12757   0.13790   0.14099   0.14312
 Alpha virt. eigenvalues --    0.14951   0.15420   0.15576   0.16355   0.16489
 Alpha virt. eigenvalues --    0.16847   0.17485   0.17966   0.18123   0.18545
 Alpha virt. eigenvalues --    0.18780   0.19255   0.19809   0.20354   0.20779
 Alpha virt. eigenvalues --    0.21415   0.22435   0.23428   0.23514   0.24092
 Alpha virt. eigenvalues --    0.24940   0.25018   0.25852   0.26219   0.26592
 Alpha virt. eigenvalues --    0.28359   0.29867   0.30446   0.31256   0.32525
 Alpha virt. eigenvalues --    0.33443   0.35372   0.36890   0.36976   0.38218
 Alpha virt. eigenvalues --    0.39870   0.40195   0.41229   0.41752   0.42459
 Alpha virt. eigenvalues --    0.42936   0.43164   0.43979   0.44233   0.44419
 Alpha virt. eigenvalues --    0.44803   0.45451   0.45603   0.45992   0.46393
 Alpha virt. eigenvalues --    0.46566   0.46781   0.47076   0.47494   0.47942
 Alpha virt. eigenvalues --    0.48238   0.48563   0.48891   0.49139   0.49384
 Alpha virt. eigenvalues --    0.49713   0.50162   0.50727   0.51072   0.51353
 Alpha virt. eigenvalues --    0.51503   0.51777   0.52400   0.52654   0.53181
 Alpha virt. eigenvalues --    0.53484   0.54153   0.54601   0.54962   0.55480
 Alpha virt. eigenvalues --    0.55748   0.55929   0.56646   0.56886   0.57336
 Alpha virt. eigenvalues --    0.57657   0.58240   0.58500   0.59261   0.59469
 Alpha virt. eigenvalues --    0.60087   0.60338   0.60638   0.60822   0.61234
 Alpha virt. eigenvalues --    0.61469   0.62019   0.62350   0.63590   0.64450
 Alpha virt. eigenvalues --    0.64642   0.65011   0.65470   0.66693   0.67209
 Alpha virt. eigenvalues --    0.67893   0.68819   0.69184   0.70071   0.70425
 Alpha virt. eigenvalues --    0.70843   0.71486   0.72062   0.72433   0.72591
 Alpha virt. eigenvalues --    0.72963   0.73462   0.73885   0.73945   0.74325
 Alpha virt. eigenvalues --    0.74538   0.74820   0.75260   0.75440   0.75688
 Alpha virt. eigenvalues --    0.76294   0.76593   0.76888   0.77369   0.77748
 Alpha virt. eigenvalues --    0.78080   0.78201   0.78512   0.79074   0.79367
 Alpha virt. eigenvalues --    0.79740   0.80287   0.80766   0.81259   0.81623
 Alpha virt. eigenvalues --    0.82044   0.82559   0.83164   0.83505   0.83546
 Alpha virt. eigenvalues --    0.83799   0.84045   0.84761   0.85029   0.85389
 Alpha virt. eigenvalues --    0.85652   0.86167   0.86576   0.86728   0.86926
 Alpha virt. eigenvalues --    0.87367   0.88116   0.88230   0.89149   0.89457
 Alpha virt. eigenvalues --    0.90273   0.90626   0.91136   0.91499   0.91879
 Alpha virt. eigenvalues --    0.93077   0.93476   0.93730   0.93998   0.94435
 Alpha virt. eigenvalues --    0.94851   0.96431   0.97086   0.98061   0.98336
 Alpha virt. eigenvalues --    0.99187   1.00151   1.00444   1.01022   1.01964
 Alpha virt. eigenvalues --    1.02291   1.03241   1.04074   1.04550   1.05646
 Alpha virt. eigenvalues --    1.06201   1.07126   1.07375   1.08019   1.08463
 Alpha virt. eigenvalues --    1.08857   1.09776   1.10183   1.11795   1.13210
 Alpha virt. eigenvalues --    1.14043   1.14583   1.14907   1.15836   1.16815
 Alpha virt. eigenvalues --    1.17146   1.18146   1.18881   1.20378   1.20501
 Alpha virt. eigenvalues --    1.21244   1.21946   1.22699   1.23733   1.24064
 Alpha virt. eigenvalues --    1.24603   1.25408   1.25861   1.27784   1.28546
 Alpha virt. eigenvalues --    1.29834   1.30339   1.31318   1.31512   1.32586
 Alpha virt. eigenvalues --    1.34113   1.34312   1.35015   1.36124   1.36545
 Alpha virt. eigenvalues --    1.37017   1.37859   1.38740   1.39188   1.39738
 Alpha virt. eigenvalues --    1.40249   1.40554   1.41216   1.41527   1.42741
 Alpha virt. eigenvalues --    1.43335   1.43929   1.45281   1.46281   1.47157
 Alpha virt. eigenvalues --    1.48693   1.48971   1.49877   1.51265   1.52113
 Alpha virt. eigenvalues --    1.53178   1.53653   1.54833   1.55205   1.55974
 Alpha virt. eigenvalues --    1.56743   1.56920   1.58273   1.59039   1.59672
 Alpha virt. eigenvalues --    1.59957   1.62129   1.62961   1.65286   1.66294
 Alpha virt. eigenvalues --    1.66419   1.66628   1.66868   1.67882   1.68255
 Alpha virt. eigenvalues --    1.68665   1.69442   1.69620   1.69792   1.70714
 Alpha virt. eigenvalues --    1.71242   1.71330   1.72179   1.72436   1.72972
 Alpha virt. eigenvalues --    1.73641   1.74381   1.74985   1.75651   1.75790
 Alpha virt. eigenvalues --    1.76130   1.76543   1.76618   1.78550   1.79136
 Alpha virt. eigenvalues --    1.79509   1.79848   1.80650   1.81344   1.82209
 Alpha virt. eigenvalues --    1.82376   1.83276   1.84026   1.84456   1.85032
 Alpha virt. eigenvalues --    1.85429   1.85956   1.86143   1.87262   1.87736
 Alpha virt. eigenvalues --    1.87963   1.88773   1.89459   1.89854   1.90510
 Alpha virt. eigenvalues --    1.91082   1.91471   1.92001   1.92522   1.93320
 Alpha virt. eigenvalues --    1.93952   1.93989   1.94746   1.95632   1.96028
 Alpha virt. eigenvalues --    1.96547   1.97427   1.97900   1.98696   1.99409
 Alpha virt. eigenvalues --    1.99861   2.01143   2.01404   2.02158   2.02374
 Alpha virt. eigenvalues --    2.03339   2.04280   2.04472   2.05372   2.05570
 Alpha virt. eigenvalues --    2.06353   2.07032   2.07338   2.08347   2.09449
 Alpha virt. eigenvalues --    2.09839   2.10784   2.11912   2.12118   2.12688
 Alpha virt. eigenvalues --    2.12963   2.14052   2.16164   2.17576   2.18440
 Alpha virt. eigenvalues --    2.19429   2.19607   2.20158   2.20820   2.21090
 Alpha virt. eigenvalues --    2.21242   2.22672   2.23363   2.23933   2.24762
 Alpha virt. eigenvalues --    2.27144   2.28046   2.28387   2.29233   2.30444
 Alpha virt. eigenvalues --    2.30878   2.32088   2.33048   2.33531   2.34325
 Alpha virt. eigenvalues --    2.34795   2.36199   2.36964   2.37705   2.38866
 Alpha virt. eigenvalues --    2.39086   2.40049   2.42124   2.42345   2.43289
 Alpha virt. eigenvalues --    2.43528   2.44502   2.45784   2.46313   2.46402
 Alpha virt. eigenvalues --    2.47331   2.48054   2.48698   2.49633   2.50542
 Alpha virt. eigenvalues --    2.51094   2.52488   2.52732   2.53182   2.54514
 Alpha virt. eigenvalues --    2.55323   2.55718   2.56800   2.57646   2.58450
 Alpha virt. eigenvalues --    2.59462   2.61357   2.62055   2.62606   2.63120
 Alpha virt. eigenvalues --    2.64229   2.65271   2.66052   2.66500   2.67178
 Alpha virt. eigenvalues --    2.68387   2.69435   2.70850   2.72242   2.74630
 Alpha virt. eigenvalues --    2.76227   2.79073   2.82515   2.83318   2.85729
 Alpha virt. eigenvalues --    2.87213   2.88379   2.89281   2.91843   2.93171
 Alpha virt. eigenvalues --    2.93868   2.95168   2.96697   2.97165   2.98253
 Alpha virt. eigenvalues --    2.98815   3.02623   3.04028   3.09315   3.10797
 Alpha virt. eigenvalues --    3.30485   3.66530   3.71653   3.75688   3.84561
 Alpha virt. eigenvalues --    3.87914   3.89288   3.91563   3.97255   3.98433
 Alpha virt. eigenvalues --    4.01086   4.01839   4.03299   4.05985   4.06868
 Alpha virt. eigenvalues --    4.09261   4.11444   4.12186   4.13940   4.15713
 Alpha virt. eigenvalues --    4.18180   4.19948   4.24151   4.24808   4.26464
 Alpha virt. eigenvalues --    4.27575   4.29179   4.30597   4.33013   4.37044
 Alpha virt. eigenvalues --    4.38124   4.41049   4.42573   4.50078   4.51340
 Alpha virt. eigenvalues --    4.53996   4.58928   4.61279   4.61892   4.66271
          Condensed to atoms (all electrons):
 Mulliken charges:
               1
     1  N   -0.799179
     2  C   -0.070070
     3  C    0.640592
     4  O   -0.511966
     5  C   -0.372185
     6  C    0.157486
     7  C   -0.191170
     8  C   -0.194433
     9  C   -0.125515
    10  C   -0.158238
    11  C   -0.159529
    12  H    0.338070
    13  H    0.185850
    14  H    0.203447
    15  H    0.156470
    16  H    0.156196
    17  H    0.142649
    18  H    0.158765
    19  H    0.142719
    20  H    0.146393
    21  H    0.337720
    22  N   -0.657465
    23  C   -0.055643
    24  C    0.565662
    25  O   -0.473971
    26  C   -0.256935
    27  C   -0.071129
    28  C   -0.445401
    29  C   -0.461014
    30  H    0.361460
    31  H    0.210639
    32  H    0.112507
    33  H    0.152588
    34  H    0.129241
    35  H    0.146673
    36  H    0.152327
    37  H    0.130078
    38  H    0.137093
    39  H    0.183860
    40  H    0.147696
    41  N   -0.589557
    42  C   -0.078675
    43  C    0.620440
    44  O   -0.579568
    45  C   -0.387938
    46  C    0.628637
    47  N   -0.737059
    48  O   -0.530402
    49  H    0.332067
    50  H    0.227172
    51  H    0.193966
    52  H    0.185840
    53  H    0.363251
    54  H    0.356446
    55  N   -0.606375
    56  C   -0.034567
    57  C    0.645587
    58  O   -0.576721
    59  C   -0.293195
    60  C   -0.298387
    61  C   -0.164488
    62  N   -0.606034
    63  C    0.773649
    64  N   -0.750268
    65  N   -0.773734
    66  O   -0.567373
    67  H    0.466626
    68  H    0.398793
    69  H    0.194197
    70  H    0.173011
    71  H    0.174999
    72  H    0.168624
    73  H    0.179817
    74  H    0.171151
    75  H    0.185581
    76  H    0.414973
    77  H    0.380691
    78  H    0.382765
    79  H    0.366635
    80  H    0.397088
 Sum of Mulliken charges =   1.00000
 Mulliken charges with hydrogens summed into heavy atoms:
               1
     1  N   -0.123390
     2  C    0.115779
     3  C    0.640592
     4  O   -0.511966
     5  C   -0.012268
     6  C    0.157486
     7  C   -0.034974
     8  C   -0.051784
     9  C    0.033250
    10  C   -0.015519
    11  C   -0.013136
    22  N   -0.296005
    23  C    0.154995
    24  C    0.565662
    25  O   -0.473971
    26  C    0.008161
    27  C    0.058112
    28  C   -0.016324
    29  C    0.007634
    41  N   -0.257490
    42  C    0.148497
    43  C    0.620440
    44  O   -0.579568
    45  C   -0.008132
    46  C    0.628637
    47  N   -0.017363
    48  O   -0.530402
    55  N   -0.207582
    56  C    0.159630
    57  C    0.645587
    58  O   -0.576721
    59  C    0.054815
    60  C    0.050054
    61  C    0.192244
    62  N   -0.191061
    63  C    0.773649
    64  N    0.013188
    65  N   -0.010011
    66  O   -0.100746
 Electronic spatial extent (au):  <R**2>=         222374.1087
 Charge=              1.0000 electrons
 Dipole moment (field-independent basis, Debye):
    X=             -4.1795    Y=             61.4629    Z=            -50.9774  Tot=             79.9616
 Quadrupole moment (field-independent basis, Debye-Ang):
   XX=           -226.5299   YY=            628.1544   ZZ=            354.2466
   XY=            -89.8792   XZ=             42.5415   YZ=           -603.4697
 Traceless Quadrupole moment (field-independent basis, Debye-Ang):
   XX=           -478.4869   YY=            376.1974   ZZ=            102.2895
   XY=            -89.8792   XZ=             42.5415   YZ=           -603.4697
 Octapole moment (field-independent basis, Debye-Ang**2):
  XXX=           1917.7194  YYY=           4967.5713  ZZZ=          -2075.4182  XYY=          -1205.6754
  XXY=          -2399.8150  XXZ=           1504.3557  XZZ=            209.1404  YZZ=           4082.3857
  YYZ=          -6071.5851  XYZ=            712.4332
 Hexadecapole moment (field-independent basis, Debye-Ang**3):
 XXXX=         -15360.9086 YYYY=          11825.8942 ZZZZ=           2040.6996 XXXY=          23447.9434
 XXXZ=         -11873.1723 YYYX=         -11938.3438 YYYZ=         -49222.7983 ZZZX=          -8202.3609
 ZZZY=         -23646.4828 XXYY=         -28155.0314 XXZZ=         -14650.6584 YYZZ=          35867.4338
 XXYZ=          16174.2999 YYXZ=           8580.0819 ZZXY=           1606.4195
 N-N= 4.857422469632D+03 E-N=-1.403406192345D+04  KE= 1.849244347683D+03
 Unable to Open any file for archive entry.
 1\1\GINC-QML-002\SP\RB3LYP\6-31G(d)\C25H41N8O6(1+)\KENGMITH\11-Jun-202
 2\0\\# B3LYP/6-31G* empiricaldispersion=gd3 guess=read geom=check nosy
 mm integral(ultrafinegrid)\\Candidate Structure: Conf:156 Charge calc 
 in gas phase\\1,1\N,0,-3.0398488397,9.5553895412,-7.4457398487\C,0,-2.
 8615569024,8.6332145661,-6.3087746468\C,0,-3.2816453046,9.2163027883,-
 4.9517880981\O,0,-3.5502612429,8.4483450067,-4.0368103122\C,0,-1.39980
 29345,8.1198917529,-6.1743191439\C,0,-0.8006643281,7.6739984283,-7.491
 395028\C,0,-1.3779215459,6.628955695,-8.2329579817\C,0,0.3280038799,8.
 3160057576,-8.0171512619\C,0,-0.837457529,6.2330332074,-9.4562113691\C
 ,0,0.8895270807,7.9070521168,-9.2315690072\C,0,0.3055092564,6.86601940
 73,-9.9582967561\H,0,-2.8317708456,9.048289578,-8.3057987709\H,0,-3.52
 97815103,7.7853316585,-6.4791059123\H,0,-1.4010865738,7.3052933964,-5.
 4417724314\H,0,-0.7881748915,8.9258353174,-5.7491465634\H,0,-2.2494142
 498,6.1105867108,-7.8396596687\H,0,0.79243508,9.1231592692,-7.45555168
 34\H,0,-1.292404311,5.4149515097,-10.0073497242\H,0,1.7962057023,8.387
 526824,-9.5926618182\H,0,0.7513781913,6.5257581428,-10.8897100599\H,0,
 -2.3406314504,10.3014302153,-7.4222445849\N,0,-3.2205738487,10.5706753
 918,-4.8202345076\C,0,-3.6179426114,11.252568415,-3.5752364077\C,0,-4.
 4791650309,12.4429080934,-4.023494968\O,0,-5.6960540524,12.4185537383,
 -3.9952711663\C,0,-2.4108000923,11.6262149828,-2.6975067995\C,0,-1.633
 9549432,10.4294176859,-2.1132468795\C,0,-0.3424365298,10.9296401256,-1
 .4494795596\C,0,-2.4791139563,9.6162888713,-1.1230241167\H,0,-3.090964
 0088,11.1571149326,-5.6383959238\H,0,-4.285994382,10.5788989571,-3.038
 1687453\H,0,-1.7127545524,12.2391580153,-3.2867091142\H,0,-2.766156892
 2,12.2626022039,-1.8746546338\H,0,-1.3577079924,9.7674074409,-2.945837
 0137\H,0,-0.5688707778,11.6014501323,-0.6114884642\H,0,0.2430967715,10
 .0928461816,-1.0528704931\H,0,0.2916411865,11.4793369341,-2.1566854202
 \H,0,-2.841030148,10.2526878416,-0.3047714636\H,0,-3.3348801375,9.1478
 285356,-1.6152938607\H,0,-1.8790554847,8.8142919802,-0.6785810347\N,0,
 -3.7659059498,13.5143631329,-4.5506208034\C,0,-4.3699477266,14.2762243
 725,-5.6283249803\C,0,-3.8677028643,13.6717667387,-6.9625117301\O,0,-2
 .902064952,12.8894479745,-6.9882918953\C,0,-4.0940751646,15.7890248334
 ,-5.4909333432\C,0,-5.1481801455,16.6550924927,-6.1821616934\N,0,-5.24
 39165387,17.9266246756,-5.7288751985\O,0,-5.8549785913,16.2439753119,-
 7.1057473782\H,0,-2.7747419002,13.3501407088,-4.6847712172\H,0,-5.4483
 995754,14.1092180432,-5.5598086773\H,0,-4.0639354677,16.0203362406,-4.
 4209629036\H,0,-3.1073905793,16.0509440531,-5.8965851297\H,0,-5.949907
 8909,18.5272221849,-6.1341454459\H,0,-4.7588656417,18.248289355,-4.904
 2807981\N,0,-4.5675540055,13.9932885006,-8.0631032749\C,0,-4.298740960
 1,13.3693832186,-9.3519096313\C,0,-3.9768086197,11.8806476268,-9.11715
 10489\O,0,-3.0097362505,11.313207165,-9.6422648253\C,0,-3.1974034356,1
 4.1148045586,-10.1354204211\C,0,-3.0838932462,13.7270035276,-11.636755
 4199\C,0,-1.6471602788,13.4166447328,-12.0936506248\N,0,-1.1752083986,
 12.2317972051,-11.3609085637\C,0,-0.6136637503,11.1371484978,-11.86129
 97932\N,0,0.1642242888,11.1796116377,-12.958138872\N,0,-0.8362827576,9
 .9587484983,-11.2514949544\O,0,-4.8236408955,11.2722754594,-8.33247214
 64\H,0,-4.3357296288,10.4450777233,-7.9397659511\H,0,-5.2927181979,14.
 7096115818,-7.9606719376\H,0,-5.2394850816,13.400269787,-9.9158808642\
 H,0,-2.2531792678,13.9587490533,-9.6003317965\H,0,-3.4154983163,15.183
 4573337,-10.0506220132\H,0,-3.7028199261,12.8486209982,-11.8552227434\
 H,0,-3.4669276584,14.5399850687,-12.2619644838\H,0,-1.6230452087,13.21
 46623303,-13.1701875785\H,0,-0.9840146909,14.2656292687,-11.8902526818
 \H,0,-1.7276412859,12.0445991319,-10.5124090501\H,0,0.4121529649,10.33
 58241739,-13.4534791836\H,0,0.4933658849,12.0593835812,-13.3266397889\
 H,0,-0.1570261879,9.2080967664,-11.2543259515\H,0,-1.5309937103,9.9301
 638763,-10.5128434825\\Version=ES64L-G16RevC.01\HF=-1866.7376912\RMSD=
 8.915e-10\Dipole=3.477725,2.4940421,-6.5311439\Quadrupole=-355.7432855
 ,279.6935289,76.0497567,-66.8229516,31.6285292,-448.664924\PG=C01 [X(C
 25H41N8O6)]\\@
 The archive entry for this job was punched.


 A CHEMICAL PHYSICIST MAKES PRECISE MEASUREMENTS ON IMPURE COMPOUNDS.
 A THEORETICAL PHYSICAL CHEMIST MAKES IMPRECISE
     MEASUREMENTS ON PURE COMPOUNDS.
 AN EXPERIMENTAL PHYSICAL CHEMIST MAKES IMPRECISE
     MEASUREMENTS ON IMPURE COMPOUNDS.
 Job cpu time:       0 days  0 hours  7 minutes 23.6 seconds.
 Elapsed time:       0 days  0 hours  1 minutes 51.7 seconds.
 File lengths (MBytes):  RWF=    344 Int=      0 D2E=      0 Chk=     48 Scr=     16
 Normal termination of Gaussian 16 at Sat Jun 11 21:08:15 2022.
