 Entering Gaussian System, Link 0=/opt/software/Gaussian/g16-AVX2-C.01/g16/g16
 Input=charge-conf-386.com
 Output=charge-conf-386.log
 Initial command:
 /opt/software/Gaussian/g16-AVX2-C.01/g16/l1.exe "/mnt/gs18/scratch/users/kengmith/Gau-25037.inp" -scrdir="/mnt/gs18/scratch/users/kengmith/"
 Entering Link 1 = /opt/software/Gaussian/g16-AVX2-C.01/g16/l1.exe PID=     25047.
  
 Copyright (c) 1988-2019, Gaussian, Inc.  All Rights Reserved.
  
 This is part of the Gaussian(R) 16 program.  It is based on
 the Gaussian(R) 09 system (copyright 2009, Gaussian, Inc.),
 the Gaussian(R) 03 system (copyright 2003, Gaussian, Inc.),
 the Gaussian(R) 98 system (copyright 1998, Gaussian, Inc.),
 the Gaussian(R) 94 system (copyright 1995, Gaussian, Inc.),
 the Gaussian 92(TM) system (copyright 1992, Gaussian, Inc.),
 the Gaussian 90(TM) system (copyright 1990, Gaussian, Inc.),
 the Gaussian 88(TM) system (copyright 1988, Gaussian, Inc.),
 the Gaussian 86(TM) system (copyright 1986, Carnegie Mellon
 University), and the Gaussian 82(TM) system (copyright 1983,
 Carnegie Mellon University). Gaussian is a federally registered
 trademark of Gaussian, Inc.
  
 This software contains proprietary and confidential information,
 including trade secrets, belonging to Gaussian, Inc.
  
 This software is provided under written license and may be
 used, copied, transmitted, or stored only in accord with that
 written license.
  
 The following legend is applicable only to US Government
 contracts under FAR:
  
                    RESTRICTED RIGHTS LEGEND
  
 Use, reproduction and disclosure by the US Government is
 subject to restrictions as set forth in subparagraphs (a)
 and (c) of the Commercial Computer Software - Restricted
 Rights clause in FAR 52.227-19.
  
 Gaussian, Inc.
 340 Quinnipiac St., Bldg. 40, Wallingford CT 06492
  
  
 ---------------------------------------------------------------
 Warning -- This program may not be used in any manner that
 competes with the business of Gaussian, Inc. or will provide
 assistance to any competitor of Gaussian, Inc.  The licensee
 of this program is prohibited from giving any competitor of
 Gaussian, Inc. access to this program.  By using this program,
 the user acknowledges that Gaussian, Inc. is engaged in the
 business of creating and licensing software in the field of
 computational chemistry and represents and warrants to the
 licensee that it is not a competitor of Gaussian, Inc. and that
 it will not use this program in any manner prohibited above.
 ---------------------------------------------------------------
  

 Cite this work as:
 Gaussian 16, Revision C.01,
 M. J. Frisch, G. W. Trucks, H. B. Schlegel, G. E. Scuseria, 
 M. A. Robb, J. R. Cheeseman, G. Scalmani, V. Barone, 
 G. A. Petersson, H. Nakatsuji, X. Li, M. Caricato, A. V. Marenich, 
 J. Bloino, B. G. Janesko, R. Gomperts, B. Mennucci, H. P. Hratchian, 
 J. V. Ortiz, A. F. Izmaylov, J. L. Sonnenberg, D. Williams-Young, 
 F. Ding, F. Lipparini, F. Egidi, J. Goings, B. Peng, A. Petrone, 
 T. Henderson, D. Ranasinghe, V. G. Zakrzewski, J. Gao, N. Rega, 
 G. Zheng, W. Liang, M. Hada, M. Ehara, K. Toyota, R. Fukuda, 
 J. Hasegawa, M. Ishida, T. Nakajima, Y. Honda, O. Kitao, H. Nakai, 
 T. Vreven, K. Throssell, J. A. Montgomery, Jr., J. E. Peralta, 
 F. Ogliaro, M. J. Bearpark, J. J. Heyd, E. N. Brothers, K. N. Kudin, 
 V. N. Staroverov, T. A. Keith, R. Kobayashi, J. Normand, 
 K. Raghavachari, A. P. Rendell, J. C. Burant, S. S. Iyengar, 
 J. Tomasi, M. Cossi, J. M. Millam, M. Klene, C. Adamo, R. Cammi, 
 J. W. Ochterski, R. L. Martin, K. Morokuma, O. Farkas, 
 J. B. Foresman, and D. J. Fox, Gaussian, Inc., Wallingford CT, 2019.
 
 ******************************************
 Gaussian 16:  ES64L-G16RevC.01  3-Jul-2019
                11-Jun-2022 
 ******************************************
 %mem=8gb
 %nproc=4
 Will use up to    4 processors via shared memory.
 %chk=conf-386.chk
 ----------------------------------------------------------------------
 # B3LYP/6-31G* empiricaldispersion=gd3 guess=read geom=check nosymm in
 tegral(ultrafinegrid)
 ----------------------------------------------------------------------
 1/29=2,38=1,172=1/1;
 2/12=2,15=1,40=1/2;
 3/5=1,6=6,7=1,11=2,14=-4,25=1,30=1,74=-5,75=-5,116=-2,124=31/1,2,3;
 4/5=1/1;
 5/5=2,38=6/2;
 6/7=2,8=2,9=2,10=2,28=1/1;
 99/5=1,9=1/99;
 ------------------------------------------------------
 Candidate Structure: Conf:386 Charge calc in gas phase
 ------------------------------------------------------
 Structure from the checkpoint file:  "conf-386.chk"
 Charge =  1 Multiplicity = 1
 Redundant internal coordinates found in file.  (old form).
 N,0,-4.6231245747,9.2463270013,-7.4741417231
 C,0,-3.6024544328,8.8478569132,-6.4785185549
 C,0,-3.5480978341,9.9534504082,-5.4102855035
 O,0,-4.3156058331,10.908427212,-5.4432015312
 C,0,-2.2583421675,8.5685341874,-7.1903262314
 C,0,-2.3745851188,7.3961335387,-8.1424576295
 C,0,-2.3169802164,6.0813121727,-7.6586856956
 C,0,-2.5975399026,7.6029141003,-9.5112731479
 C,0,-2.475802457,4.9955778825,-8.5192375143
 C,0,-2.7587263715,6.5151264836,-10.3738622465
 C,0,-2.6991268475,5.2106843386,-9.8817650911
 H,0,-5.5142460651,9.3904384831,-6.9989151989
 H,0,-3.9159496863,7.9219408541,-5.9708767409
 H,0,-1.4982065066,8.3514593406,-6.4308351586
 H,0,-1.9408384472,9.4763055911,-7.7083507936
 H,0,-2.1367205079,5.9065673081,-6.5993893559
 H,0,-2.6328398022,8.619196389,-9.8934063251
 H,0,-2.4199051,3.9830771221,-8.1292387885
 H,0,-2.9224281944,6.688070235,-11.4344622424
 H,0,-2.8192955836,4.3659458516,-10.5541089418
 H,0,-4.7329626622,8.4923765558,-8.1533002362
 N,0,-2.6256891582,9.7885404998,-4.419656208
 C,0,-2.5722506664,10.69279347,-3.2631975558
 C,0,-2.410243879,12.1538321617,-3.7145016725
 O,0,-2.9869154226,13.0658452684,-3.1439400845
 C,0,-1.4538519354,10.2231023309,-2.3142829005
 C,0,-1.2779666085,11.0700153531,-1.0307215962
 C,0,-0.7602105661,10.1830923732,0.1118697847
 C,0,-0.3357324065,12.2673896819,-1.2393112089
 H,0,-2.0824504128,8.9365961041,-4.3806916157
 H,0,-3.5332716041,10.6739815282,-2.7383680525
 H,0,-1.6949479273,9.1884506457,-2.032046845
 H,0,-0.5034531867,10.186077478,-2.8658198044
 H,0,-2.2641292355,11.4610624047,-0.7452844078
 H,0,0.2102280797,9.7395678607,-0.1469127375
 H,0,-0.6238696412,10.7658801638,1.0293407046
 H,0,-1.455426051,9.3646965972,0.3334789035
 H,0,-0.2266942788,12.8304505999,-0.3057135047
 H,0,0.6627666412,11.9236600287,-1.5399969475
 H,0,-0.7084327653,12.9588162363,-1.9983391392
 N,0,-1.5315897735,12.3414376729,-4.7525784125
 C,0,-1.7044561382,13.4924314106,-5.620217622
 C,0,-1.9091923264,12.9278417158,-7.0404536793
 O,0,-1.6096236384,11.7587216236,-7.3089672708
 C,0,-0.5266700875,14.485205572,-5.5104406353
 C,0,-0.8832339478,15.9003027694,-5.962510814
 N,0,-0.0631220779,16.877343954,-5.5074368684
 O,0,-1.8358378569,16.1548432835,-6.7049860718
 H,0,-1.2693589352,11.505909395,-5.2678259859
 H,0,-2.6164690335,14.0108748485,-5.3084505635
 H,0,-0.2144522651,14.5012996684,-4.460730535
 H,0,0.337647017,14.132818321,-6.088963404
 H,0,-0.2777035381,17.8355270039,-5.7494718675
 H,0,0.6518602732,16.7066285221,-4.8158708581
 N,0,-2.4738173139,13.7540488217,-7.9380320292
 C,0,-2.8340617782,13.3079509669,-9.2754295977
 C,0,-3.2319182794,11.815538256,-9.2290463668
 O,0,-2.7329213299,10.9659017068,-9.9618742283
 C,0,-1.7688476069,13.6220710199,-10.3477206949
 C,0,-2.3261638647,13.9988528265,-11.7357867677
 C,0,-2.9331121488,12.8712054673,-12.5860740706
 N,0,-4.1324011254,12.2441592781,-11.9940985197
 C,0,-5.3038807716,12.8437388652,-11.7788702036
 N,0,-5.7274987253,13.821791244,-12.5991772724
 N,0,-6.0683132372,12.4618494287,-10.7432582926
 O,0,-4.2968001189,11.6133693408,-8.4705811589
 H,0,-4.3772797674,10.5891458208,-8.1236802056
 H,0,-2.5636560689,14.7373179186,-7.6707454376
 H,0,-3.759534579,13.8480626919,-9.51992183
 H,0,-1.0760557035,12.7776080095,-10.4213691885
 H,0,-1.1950376347,14.4821829741,-9.9871670858
 H,0,-3.0686311908,14.8023215586,-11.6263542386
 H,0,-1.5087972744,14.4224484131,-12.3323201276
 H,0,-3.170196262,13.2371606455,-13.5910942775
 H,0,-2.2177747415,12.0552867394,-12.7090139494
 H,0,-3.913189443,11.4493615683,-11.3952566835
 H,0,-6.5336060516,14.3857809661,-12.373465965
 H,0,-5.3107014333,13.9487573467,-13.5097847611
 H,0,-7.0325351497,12.7563943508,-10.6770021905
 H,0,-5.6417321457,12.0458052092,-9.9104181202
 Recover connectivity data from disk.
                           ----------------------------
                           !    Current Parameters    !
                           ! (Angstroms and Degrees)  !
 --------------------------                            --------------------------
 ! Name  Definition              Value                                          !
 --------------------------------------------------------------------------------
 ! R1    R(1,2)                  1.4805                                         !
 ! R2    R(1,12)                 1.0201                                         !
 ! R3    R(1,21)                 1.0207                                         !
 ! R4    R(2,3)                  1.5383                                         !
 ! R5    R(2,5)                  1.5464                                         !
 ! R6    R(2,13)                 1.1015                                         !
 ! R7    R(3,4)                  1.2256                                         !
 ! R8    R(3,22)                 1.3636                                         !
 ! R9    R(5,6)                  1.5148                                         !
 ! R10   R(5,14)                 1.0962                                         !
 ! R11   R(5,15)                 1.0923                                         !
 ! R12   R(6,7)                  1.4022                                         !
 ! R13   R(6,8)                  1.4022                                         !
 ! R14   R(7,9)                  1.3945                                         !
 ! R15   R(7,16)                 1.0886                                         !
 ! R16   R(8,10)                 1.3976                                         !
 ! R17   R(8,17)                 1.0863                                         !
 ! R18   R(9,11)                 1.3974                                         !
 ! R19   R(9,18)                 1.0865                                         !
 ! R20   R(10,11)                1.3955                                         !
 ! R21   R(10,19)                1.087                                          !
 ! R22   R(11,20)                1.0863                                         !
 ! R23   R(22,23)                1.469                                          !
 ! R24   R(22,30)                1.0112                                         !
 ! R25   R(23,24)                1.5377                                         !
 ! R26   R(23,26)                1.5401                                         !
 ! R27   R(23,31)                1.0952                                         !
 ! R28   R(24,25)                1.2206                                         !
 ! R29   R(24,41)                1.3729                                         !
 ! R30   R(26,27)                1.5478                                         !
 ! R31   R(26,32)                1.0992                                         !
 ! R32   R(26,33)                1.0995                                         !
 ! R33   R(27,28)                1.5363                                         !
 ! R34   R(27,29)                1.5379                                         !
 ! R35   R(27,34)                1.0986                                         !
 ! R36   R(28,35)                1.0979                                         !
 ! R37   R(28,36)                1.0954                                         !
 ! R38   R(28,37)                1.0965                                         !
 ! R39   R(29,38)                1.0957                                         !
 ! R40   R(29,39)                1.098                                          !
 ! R41   R(29,40)                1.0923                                         !
 ! R42   R(41,42)                1.4517                                         !
 ! R43   R(41,49)                1.016                                          !
 ! R44   R(42,43)                1.542                                          !
 ! R45   R(42,45)                1.5443                                         !
 ! R46   R(42,50)                1.0944                                         !
 ! R47   R(43,44)                1.2364                                         !
 ! R48   R(43,55)                1.3443                                         !
 ! R49   R(45,46)                1.5277                                         !
 ! R50   R(45,51)                1.0953                                         !
 ! R51   R(45,52)                1.0981                                         !
 ! R52   R(46,47)                1.3544                                         !
 ! R53   R(46,48)                1.2343                                         !
 ! R54   R(47,53)                1.0113                                         !
 ! R55   R(47,54)                1.0093                                         !
 ! R56   R(55,56)                1.4551                                         !
 ! R57   R(55,68)                1.0229                                         !
 ! R58   R(56,57)                1.5452                                         !
 ! R59   R(56,59)                1.5437                                         !
 ! R60   R(56,69)                1.0991                                         !
 ! R61   R(57,58)                1.228                                          !
 ! R62   R(57,66)                1.3229                                         !
 ! R63   R(59,60)                1.5425                                         !
 ! R64   R(59,70)                1.0948                                         !
 ! R65   R(59,71)                1.095                                          !
 ! R66   R(60,61)                1.5372                                         !
 ! R67   R(60,72)                1.0995                                         !
 ! R68   R(60,73)                1.097                                          !
 ! R69   R(61,62)                1.4771                                         !
 ! R70   R(61,74)                1.0955                                         !
 ! R71   R(61,75)                1.092                                          !
 ! R72   R(62,63)                1.3335                                         !
 ! R73   R(62,76)                1.019                                          !
 ! R74   R(63,64)                1.345                                          !
 ! R75   R(63,65)                1.3426                                         !
 ! R76   R(64,77)                1.0094                                         !
 ! R77   R(64,78)                1.0095                                         !
 ! R78   R(65,79)                1.0104                                         !
 ! R79   R(65,80)                1.0241                                         !
 ! R80   R(66,67)                1.0844                                         !
 ! A1    A(2,1,12)             109.0847                                         !
 ! A2    A(2,1,21)             108.8361                                         !
 ! A3    A(12,1,21)            108.6823                                         !
 ! A4    A(1,2,3)              107.3326                                         !
 ! A5    A(1,2,5)              109.7734                                         !
 ! A6    A(1,2,13)             109.8747                                         !
 ! A7    A(3,2,5)              114.7555                                         !
 ! A8    A(3,2,13)             107.1074                                         !
 ! A9    A(5,2,13)             107.9195                                         !
 ! A10   A(2,3,4)              121.2802                                         !
 ! A11   A(2,3,22)             116.1976                                         !
 ! A12   A(4,3,22)             122.5038                                         !
 ! A13   A(2,5,6)              111.2493                                         !
 ! A14   A(2,5,14)             108.6364                                         !
 ! A15   A(2,5,15)             108.7128                                         !
 ! A16   A(6,5,14)             109.5982                                         !
 ! A17   A(6,5,15)             111.5564                                         !
 ! A18   A(14,5,15)            106.9518                                         !
 ! A19   A(5,6,7)              120.3802                                         !
 ! A20   A(5,6,8)              120.7746                                         !
 ! A21   A(7,6,8)              118.7911                                         !
 ! A22   A(6,7,9)              120.83                                           !
 ! A23   A(6,7,16)             119.5401                                         !
 ! A24   A(9,7,16)             119.6274                                         !
 ! A25   A(6,8,10)             120.4016                                         !
 ! A26   A(6,8,17)             119.1124                                         !
 ! A27   A(10,8,17)            120.4829                                         !
 ! A28   A(7,9,11)             120.0049                                         !
 ! A29   A(7,9,18)             119.8818                                         !
 ! A30   A(11,9,18)            120.1124                                         !
 ! A31   A(8,10,11)            120.3303                                         !
 ! A32   A(8,10,19)            119.718                                          !
 ! A33   A(11,10,19)           119.9494                                         !
 ! A34   A(9,11,10)            119.6418                                         !
 ! A35   A(9,11,20)            120.0972                                         !
 ! A36   A(10,11,20)           120.2599                                         !
 ! A37   A(3,22,23)            121.4724                                         !
 ! A38   A(3,22,30)            119.5586                                         !
 ! A39   A(23,22,30)           117.9537                                         !
 ! A40   A(22,23,24)           110.956                                          !
 ! A41   A(22,23,26)           108.8895                                         !
 ! A42   A(22,23,31)           109.5589                                         !
 ! A43   A(24,23,26)           113.2095                                         !
 ! A44   A(24,23,31)           104.4433                                         !
 ! A45   A(26,23,31)           109.6782                                         !
 ! A46   A(23,24,25)           121.5313                                         !
 ! A47   A(23,24,41)           114.7828                                         !
 ! A48   A(25,24,41)           123.6221                                         !
 ! A49   A(23,26,27)           115.2519                                         !
 ! A50   A(23,26,32)           106.6177                                         !
 ! A51   A(23,26,33)           109.2034                                         !
 ! A52   A(27,26,32)           109.0883                                         !
 ! A53   A(27,26,33)           109.6453                                         !
 ! A54   A(32,26,33)           106.6605                                         !
 ! A55   A(26,27,28)           109.8261                                         !
 ! A56   A(26,27,29)           112.5299                                         !
 ! A57   A(26,27,34)           107.9521                                         !
 ! A58   A(28,27,29)           110.1136                                         !
 ! A59   A(28,27,34)           108.3477                                         !
 ! A60   A(29,27,34)           107.9439                                         !
 ! A61   A(27,28,35)           110.8424                                         !
 ! A62   A(27,28,36)           110.9596                                         !
 ! A63   A(27,28,37)           111.5639                                         !
 ! A64   A(35,28,36)           107.5967                                         !
 ! A65   A(35,28,37)           107.8516                                         !
 ! A66   A(36,28,37)           107.8626                                         !
 ! A67   A(27,29,38)           110.2131                                         !
 ! A68   A(27,29,39)           110.5227                                         !
 ! A69   A(27,29,40)           112.2131                                         !
 ! A70   A(38,29,39)           107.681                                          !
 ! A71   A(38,29,40)           107.5031                                         !
 ! A72   A(39,29,40)           108.5518                                         !
 ! A73   A(24,41,42)           118.9498                                         !
 ! A74   A(24,41,49)           115.8645                                         !
 ! A75   A(42,41,49)           112.3113                                         !
 ! A76   A(41,42,43)           106.0208                                         !
 ! A77   A(41,42,45)           112.1107                                         !
 ! A78   A(41,42,50)           107.7318                                         !
 ! A79   A(43,42,45)           113.7106                                         !
 ! A80   A(43,42,50)           108.9765                                         !
 ! A81   A(45,42,50)           108.1057                                         !
 ! A82   A(42,43,44)           120.9356                                         !
 ! A83   A(42,43,55)           116.4691                                         !
 ! A84   A(44,43,55)           122.5427                                         !
 ! A85   A(42,45,46)           113.3552                                         !
 ! A86   A(42,45,51)           107.1564                                         !
 ! A87   A(42,45,52)           110.8877                                         !
 ! A88   A(46,45,51)           109.6648                                         !
 ! A89   A(46,45,52)           108.9681                                         !
 ! A90   A(51,45,52)           106.5742                                         !
 ! A91   A(45,46,47)           115.3064                                         !
 ! A92   A(45,46,48)           123.3079                                         !
 ! A93   A(47,46,48)           121.3782                                         !
 ! A94   A(46,47,53)           118.334                                          !
 ! A95   A(46,47,54)           122.4925                                         !
 ! A96   A(53,47,54)           118.3315                                         !
 ! A97   A(43,55,56)           121.9545                                         !
 ! A98   A(43,55,68)           116.9502                                         !
 ! A99   A(56,55,68)           120.871                                          !
 ! A100  A(55,56,57)           109.405                                          !
 ! A101  A(55,56,59)           113.9033                                         !
 ! A102  A(55,56,69)           105.2042                                         !
 ! A103  A(57,56,59)           113.2682                                         !
 ! A104  A(57,56,69)           105.337                                          !
 ! A105  A(59,56,69)           109.0572                                         !
 ! A106  A(56,57,58)           123.0733                                         !
 ! A107  A(56,57,66)           111.8427                                         !
 ! A108  A(58,57,66)           124.2989                                         !
 ! A109  A(56,59,60)           115.1795                                         !
 ! A110  A(56,59,70)           109.0523                                         !
 ! A111  A(56,59,71)           107.0198                                         !
 ! A112  A(60,59,70)           110.887                                          !
 ! A113  A(60,59,71)           107.0838                                         !
 ! A114  A(70,59,71)           107.2435                                         !
 ! A115  A(59,60,61)           117.4668                                         !
 ! A116  A(59,60,72)           109.4469                                         !
 ! A117  A(59,60,73)           108.3283                                         !
 ! A118  A(61,60,72)           108.9357                                         !
 ! A119  A(61,60,73)           106.0615                                         !
 ! A120  A(72,60,73)           105.9684                                         !
 ! A121  A(60,61,62)           114.2237                                         !
 ! A122  A(60,61,74)           110.3555                                         !
 ! A123  A(60,61,75)           110.5928                                         !
 ! A124  A(62,61,74)           109.4964                                         !
 ! A125  A(62,61,75)           105.0573                                         !
 ! A126  A(74,61,75)           106.742                                          !
 ! A127  A(61,62,63)           125.95                                           !
 ! A128  A(61,62,76)           113.0764                                         !
 ! A129  A(63,62,76)           116.413                                          !
 ! A130  A(62,63,64)           120.3466                                         !
 ! A131  A(62,63,65)           119.7874                                         !
 ! A132  A(64,63,65)           119.8643                                         !
 ! A133  A(63,64,77)           121.4311                                         !
 ! A134  A(63,64,78)           120.7698                                         !
 ! A135  A(77,64,78)           117.4629                                         !
 ! A136  A(63,65,79)           120.7305                                         !
 ! A137  A(63,65,80)           120.377                                          !
 ! A138  A(79,65,80)           117.5573                                         !
 ! A139  A(57,66,67)           112.799                                          !
 ! D1    D(12,1,2,3)           -56.9828                                         !
 ! D2    D(12,1,2,5)           177.6828                                         !
 ! D3    D(12,1,2,13)           59.1525                                         !
 ! D4    D(21,1,2,3)          -175.4173                                         !
 ! D5    D(21,1,2,5)            59.2483                                         !
 ! D6    D(21,1,2,13)          -59.282                                          !
 ! D7    D(1,2,3,4)              3.629                                          !
 ! D8    D(1,2,3,22)          -177.8936                                         !
 ! D9    D(5,2,3,4)            125.9165                                         !
 ! D10   D(5,2,3,22)           -55.606                                          !
 ! D11   D(13,2,3,4)          -114.3196                                         !
 ! D12   D(13,2,3,22)           64.1579                                         !
 ! D13   D(1,2,5,6)            -63.6048                                         !
 ! D14   D(1,2,5,14)           175.6682                                         !
 ! D15   D(1,2,5,15)            59.6211                                         !
 ! D16   D(3,2,5,6)            175.4382                                         !
 ! D17   D(3,2,5,14)            54.7112                                         !
 ! D18   D(3,2,5,15)           -61.3359                                         !
 ! D19   D(13,2,5,6)            56.1265                                         !
 ! D20   D(13,2,5,14)          -64.6005                                         !
 ! D21   D(13,2,5,15)          179.3524                                         !
 ! D22   D(2,3,22,23)         -173.1934                                         !
 ! D23   D(2,3,22,30)           -4.9555                                         !
 ! D24   D(4,3,22,23)            5.2637                                         !
 ! D25   D(4,3,22,30)          173.5016                                         !
 ! D26   D(2,5,6,7)            -80.1881                                         !
 ! D27   D(2,5,6,8)             97.1063                                         !
 ! D28   D(14,5,6,7)            39.9717                                         !
 ! D29   D(14,5,6,8)          -142.7339                                         !
 ! D30   D(15,5,6,7)           158.2287                                         !
 ! D31   D(15,5,6,8)           -24.4768                                         !
 ! D32   D(5,6,7,9)            177.4464                                         !
 ! D33   D(5,6,7,16)            -3.1281                                         !
 ! D34   D(8,6,7,9)              0.0989                                         !
 ! D35   D(8,6,7,16)           179.5243                                         !
 ! D36   D(5,6,8,10)          -177.3415                                         !
 ! D37   D(5,6,8,17)             3.2935                                         !
 ! D38   D(7,6,8,10)            -0.0048                                         !
 ! D39   D(7,6,8,17)          -179.3698                                         !
 ! D40   D(6,7,9,11)            -0.1722                                         !
 ! D41   D(6,7,9,18)           179.4792                                         !
 ! D42   D(16,7,9,11)         -179.5971                                         !
 ! D43   D(16,7,9,18)            0.0543                                         !
 ! D44   D(6,8,10,11)           -0.0158                                         !
 ! D45   D(6,8,10,19)         -179.4711                                         !
 ! D46   D(17,8,10,11)         179.3404                                         !
 ! D47   D(17,8,10,19)          -0.1149                                         !
 ! D48   D(7,9,11,10)            0.1495                                         !
 ! D49   D(7,9,11,20)          179.7675                                         !
 ! D50   D(18,9,11,10)        -179.5011                                         !
 ! D51   D(18,9,11,20)           0.1169                                         !
 ! D52   D(8,10,11,9)           -0.0565                                         !
 ! D53   D(8,10,11,20)        -179.6738                                         !
 ! D54   D(19,10,11,9)         179.3976                                         !
 ! D55   D(19,10,11,20)         -0.2198                                         !
 ! D56   D(3,22,23,24)         -56.1563                                         !
 ! D57   D(3,22,23,26)         178.5986                                         !
 ! D58   D(3,22,23,31)          58.6474                                         !
 ! D59   D(30,22,23,24)        135.4238                                         !
 ! D60   D(30,22,23,26)         10.1787                                         !
 ! D61   D(30,22,23,31)       -109.7726                                         !
 ! D62   D(22,23,24,25)        141.5893                                         !
 ! D63   D(22,23,24,41)        -41.2159                                         !
 ! D64   D(26,23,24,25)        -95.6301                                         !
 ! D65   D(26,23,24,41)         81.5646                                         !
 ! D66   D(31,23,24,25)         23.6308                                         !
 ! D67   D(31,23,24,41)       -159.1744                                         !
 ! D68   D(22,23,26,27)       -179.3994                                         !
 ! D69   D(22,23,26,32)        -58.194                                          !
 ! D70   D(22,23,26,33)         56.6896                                         !
 ! D71   D(24,23,26,27)         56.6818                                         !
 ! D72   D(24,23,26,32)        177.8872                                         !
 ! D73   D(24,23,26,33)        -67.2292                                         !
 ! D74   D(31,23,26,27)        -59.522                                          !
 ! D75   D(31,23,26,32)         61.6834                                         !
 ! D76   D(31,23,26,33)        176.567                                          !
 ! D77   D(23,24,41,42)        153.8738                                         !
 ! D78   D(23,24,41,49)         15.2551                                         !
 ! D79   D(25,24,41,42)        -28.9977                                         !
 ! D80   D(25,24,41,49)       -167.6163                                         !
 ! D81   D(23,26,27,28)        149.6675                                         !
 ! D82   D(23,26,27,29)        -87.2863                                         !
 ! D83   D(23,26,27,34)         31.727                                          !
 ! D84   D(32,26,27,28)         29.8115                                         !
 ! D85   D(32,26,27,29)        152.8576                                         !
 ! D86   D(32,26,27,34)        -88.129                                          !
 ! D87   D(33,26,27,28)        -86.6544                                         !
 ! D88   D(33,26,27,29)         36.3918                                         !
 ! D89   D(33,26,27,34)        155.4051                                         !
 ! D90   D(26,27,28,35)         60.2142                                         !
 ! D91   D(26,27,28,36)        179.702                                          !
 ! D92   D(26,27,28,37)        -59.9951                                         !
 ! D93   D(29,27,28,35)        -64.2435                                         !
 ! D94   D(29,27,28,36)         55.2443                                         !
 ! D95   D(29,27,28,37)        175.5472                                         !
 ! D96   D(34,27,28,35)        177.909                                          !
 ! D97   D(34,27,28,36)        -62.6033                                         !
 ! D98   D(34,27,28,37)         57.6997                                         !
 ! D99   D(26,27,29,38)       -179.1485                                         !
 ! D100  D(26,27,29,39)        -60.2402                                         !
 ! D101  D(26,27,29,40)         61.08                                           !
 ! D102  D(28,27,29,38)        -56.2634                                         !
 ! D103  D(28,27,29,39)         62.6449                                         !
 ! D104  D(28,27,29,40)       -176.0349                                         !
 ! D105  D(34,27,29,38)         61.8334                                         !
 ! D106  D(34,27,29,39)       -179.2583                                         !
 ! D107  D(34,27,29,40)        -57.9381                                         !
 ! D108  D(24,41,42,43)       -120.5752                                         !
 ! D109  D(24,41,42,45)        114.7977                                         !
 ! D110  D(24,41,42,50)         -4.0234                                         !
 ! D111  D(49,41,42,43)         19.4101                                         !
 ! D112  D(49,41,42,45)       -105.217                                          !
 ! D113  D(49,41,42,50)        135.9619                                         !
 ! D114  D(41,42,43,44)        -16.461                                          !
 ! D115  D(41,42,43,55)        160.9664                                         !
 ! D116  D(45,42,43,44)        107.1684                                         !
 ! D117  D(45,42,43,55)        -75.4043                                         !
 ! D118  D(50,42,43,44)       -132.171                                          !
 ! D119  D(50,42,43,55)         45.2564                                         !
 ! D120  D(41,42,45,46)       -158.218                                          !
 ! D121  D(41,42,45,51)        -37.0917                                         !
 ! D122  D(41,42,45,52)         78.8434                                         !
 ! D123  D(43,42,45,46)         81.5309                                         !
 ! D124  D(43,42,45,51)       -157.3428                                         !
 ! D125  D(43,42,45,52)        -41.4077                                         !
 ! D126  D(50,42,45,46)        -39.6176                                         !
 ! D127  D(50,42,45,51)         81.5087                                         !
 ! D128  D(50,42,45,52)       -162.5562                                         !
 ! D129  D(42,43,55,56)       -174.2769                                         !
 ! D130  D(42,43,55,68)         11.1239                                         !
 ! D131  D(44,43,55,56)          3.1054                                         !
 ! D132  D(44,43,55,68)       -171.4938                                         !
 ! D133  D(42,45,46,47)        160.0224                                         !
 ! D134  D(42,45,46,48)        -20.9592                                         !
 ! D135  D(51,45,46,47)         40.3185                                         !
 ! D136  D(51,45,46,48)       -140.6631                                         !
 ! D137  D(52,45,46,47)        -75.986                                          !
 ! D138  D(52,45,46,48)        103.0324                                         !
 ! D139  D(45,46,47,53)       -177.676                                          !
 ! D140  D(45,46,47,54)         -8.3664                                         !
 ! D141  D(48,46,47,53)          3.2849                                         !
 ! D142  D(48,46,47,54)        172.5945                                         !
 ! D143  D(43,55,56,57)         31.637                                          !
 ! D144  D(43,55,56,59)        -96.2598                                         !
 ! D145  D(43,55,56,69)        144.3633                                         !
 ! D146  D(68,55,56,57)       -153.9725                                         !
 ! D147  D(68,55,56,59)         78.1306                                         !
 ! D148  D(68,55,56,69)        -41.2462                                         !
 ! D149  D(55,56,57,58)       -127.2765                                         !
 ! D150  D(55,56,57,66)         62.4873                                         !
 ! D151  D(59,56,57,58)          0.9744                                         !
 ! D152  D(59,56,57,66)       -169.2618                                         !
 ! D153  D(69,56,57,58)        120.0839                                         !
 ! D154  D(69,56,57,66)        -50.1523                                         !
 ! D155  D(55,56,59,60)       -143.9878                                         !
 ! D156  D(55,56,59,70)         90.6214                                         !
 ! D157  D(55,56,59,71)        -25.0806                                         !
 ! D158  D(57,56,59,60)         90.1263                                         !
 ! D159  D(57,56,59,70)        -35.2645                                         !
 ! D160  D(57,56,59,71)       -150.9665                                         !
 ! D161  D(69,56,59,60)        -26.8198                                         !
 ! D162  D(69,56,59,70)       -152.2106                                         !
 ! D163  D(69,56,59,71)         92.0874                                         !
 ! D164  D(56,57,66,67)       -158.6178                                         !
 ! D165  D(58,57,66,67)         31.2877                                         !
 ! D166  D(56,59,60,61)        -73.0768                                         !
 ! D167  D(56,59,60,72)         51.7711                                         !
 ! D168  D(56,59,60,73)        166.8778                                         !
 ! D169  D(70,59,60,61)         51.3587                                         !
 ! D170  D(70,59,60,72)        176.2066                                         !
 ! D171  D(70,59,60,73)        -68.6866                                         !
 ! D172  D(71,59,60,61)        168.0515                                         !
 ! D173  D(71,59,60,72)        -67.1006                                         !
 ! D174  D(71,59,60,73)         48.0062                                         !
 ! D175  D(59,60,61,62)         63.5645                                         !
 ! D176  D(59,60,61,74)       -172.5682                                         !
 ! D177  D(59,60,61,75)        -54.6882                                         !
 ! D178  D(72,60,61,62)        -61.5378                                         !
 ! D179  D(72,60,61,74)         62.3295                                         !
 ! D180  D(72,60,61,75)       -179.7904                                         !
 ! D181  D(73,60,61,62)       -175.2057                                         !
 ! D182  D(73,60,61,74)        -51.3384                                         !
 ! D183  D(73,60,61,75)         66.5417                                         !
 ! D184  D(60,61,62,63)         64.9034                                         !
 ! D185  D(60,61,62,76)        -90.0917                                         !
 ! D186  D(74,61,62,63)        -59.4239                                         !
 ! D187  D(74,61,62,76)        145.581                                          !
 ! D188  D(75,61,62,63)       -173.7352                                         !
 ! D189  D(75,61,62,76)         31.2697                                         !
 ! D190  D(61,62,63,64)         31.7588                                         !
 ! D191  D(61,62,63,65)       -148.723                                          !
 ! D192  D(76,62,63,64)       -173.9755                                         !
 ! D193  D(76,62,63,65)          5.5427                                         !
 ! D194  D(62,63,64,77)       -170.1292                                         !
 ! D195  D(62,63,64,78)         16.6981                                         !
 ! D196  D(65,63,64,77)         10.353                                          !
 ! D197  D(65,63,64,78)       -162.8197                                         !
 ! D198  D(62,63,65,79)       -166.76                                           !
 ! D199  D(62,63,65,80)         26.7538                                         !
 ! D200  D(64,63,65,79)         12.7605                                         !
 ! D201  D(64,63,65,80)       -153.7256                                         !
 --------------------------------------------------------------------------------
 Symmetry turned off by external request.
 Stoichiometry    C25H41N8O6(1+)
 Framework group  C1[X(C25H41N8O6)]
 Deg. of freedom   234
 Full point group                 C1      NOp   1
                          Input orientation:                          
 ---------------------------------------------------------------------
 Center     Atomic      Atomic             Coordinates (Angstroms)
 Number     Number       Type             X           Y           Z
 ---------------------------------------------------------------------
      1          7           0       -4.623125    9.246327   -7.474142
      2          6           0       -3.602454    8.847857   -6.478519
      3          6           0       -3.548098    9.953450   -5.410286
      4          8           0       -4.315606   10.908427   -5.443202
      5          6           0       -2.258342    8.568534   -7.190326
      6          6           0       -2.374585    7.396134   -8.142458
      7          6           0       -2.316980    6.081312   -7.658686
      8          6           0       -2.597540    7.602914   -9.511273
      9          6           0       -2.475802    4.995578   -8.519238
     10          6           0       -2.758726    6.515126  -10.373862
     11          6           0       -2.699127    5.210684   -9.881765
     12          1           0       -5.514246    9.390438   -6.998915
     13          1           0       -3.915950    7.921941   -5.970877
     14          1           0       -1.498207    8.351459   -6.430835
     15          1           0       -1.940838    9.476306   -7.708351
     16          1           0       -2.136721    5.906567   -6.599389
     17          1           0       -2.632840    8.619196   -9.893406
     18          1           0       -2.419905    3.983077   -8.129239
     19          1           0       -2.922428    6.688070  -11.434462
     20          1           0       -2.819296    4.365946  -10.554109
     21          1           0       -4.732963    8.492377   -8.153300
     22          7           0       -2.625689    9.788540   -4.419656
     23          6           0       -2.572251   10.692793   -3.263198
     24          6           0       -2.410244   12.153832   -3.714502
     25          8           0       -2.986915   13.065845   -3.143940
     26          6           0       -1.453852   10.223102   -2.314283
     27          6           0       -1.277967   11.070015   -1.030722
     28          6           0       -0.760211   10.183092    0.111870
     29          6           0       -0.335732   12.267390   -1.239311
     30          1           0       -2.082450    8.936596   -4.380692
     31          1           0       -3.533272   10.673982   -2.738368
     32          1           0       -1.694948    9.188451   -2.032047
     33          1           0       -0.503453   10.186077   -2.865820
     34          1           0       -2.264129   11.461062   -0.745284
     35          1           0        0.210228    9.739568   -0.146913
     36          1           0       -0.623870   10.765880    1.029341
     37          1           0       -1.455426    9.364697    0.333479
     38          1           0       -0.226694   12.830451   -0.305714
     39          1           0        0.662767   11.923660   -1.539997
     40          1           0       -0.708433   12.958816   -1.998339
     41          7           0       -1.531590   12.341438   -4.752578
     42          6           0       -1.704456   13.492431   -5.620218
     43          6           0       -1.909192   12.927842   -7.040454
     44          8           0       -1.609624   11.758722   -7.308967
     45          6           0       -0.526670   14.485206   -5.510441
     46          6           0       -0.883234   15.900303   -5.962511
     47          7           0       -0.063122   16.877344   -5.507437
     48          8           0       -1.835838   16.154843   -6.704986
     49          1           0       -1.269359   11.505909   -5.267826
     50          1           0       -2.616469   14.010875   -5.308451
     51          1           0       -0.214452   14.501300   -4.460731
     52          1           0        0.337647   14.132818   -6.088963
     53          1           0       -0.277704   17.835527   -5.749472
     54          1           0        0.651860   16.706629   -4.815871
     55          7           0       -2.473817   13.754049   -7.938032
     56          6           0       -2.834062   13.307951   -9.275430
     57          6           0       -3.231918   11.815538   -9.229046
     58          8           0       -2.732921   10.965902   -9.961874
     59          6           0       -1.768848   13.622071  -10.347721
     60          6           0       -2.326164   13.998853  -11.735787
     61          6           0       -2.933112   12.871205  -12.586074
     62          7           0       -4.132401   12.244159  -11.994099
     63          6           0       -5.303881   12.843739  -11.778870
     64          7           0       -5.727499   13.821791  -12.599177
     65          7           0       -6.068313   12.461849  -10.743258
     66          8           0       -4.296800   11.613369   -8.470581
     67          1           0       -4.377280   10.589146   -8.123680
     68          1           0       -2.563656   14.737318   -7.670745
     69          1           0       -3.759535   13.848063   -9.519922
     70          1           0       -1.076056   12.777608  -10.421369
     71          1           0       -1.195038   14.482183   -9.987167
     72          1           0       -3.068631   14.802322  -11.626354
     73          1           0       -1.508797   14.422448  -12.332320
     74          1           0       -3.170196   13.237161  -13.591094
     75          1           0       -2.217775   12.055287  -12.709014
     76          1           0       -3.913189   11.449362  -11.395257
     77          1           0       -6.533606   14.385781  -12.373466
     78          1           0       -5.310701   13.948757  -13.509785
     79          1           0       -7.032535   12.756394  -10.677002
     80          1           0       -5.641732   12.045805   -9.910418
 ---------------------------------------------------------------------
 Rotational constants (GHZ):           0.0986918           0.0712020           0.0467256
 Standard basis: 6-31G(d) (6D, 7F)
   667 basis functions,  1256 primitive gaussians,   667 cartesian basis functions
   147 alpha electrons      147 beta electrons
       nuclear repulsion energy      4893.7298929419 Hartrees.
 NAtoms=   80 NActive=   80 NUniq=   80 SFac= 1.00D+00 NAtFMM=   60 NAOKFM=T Big=T
 Integral buffers will be    131072 words long.
 Raffenetti 2 integral format.
 Two-electron integral symmetry is turned off.
 Nuclear repulsion after empirical dispersion term =     4893.6191076905 Hartrees.
 One-electron integrals computed using PRISM.
 NBasis=   667 RedAO= T EigKep=  4.45D-04  NBF=   667
 NBsUse=   667 1.00D-06 EigRej= -1.00D+00 NBFU=   667
 Initial guess from the checkpoint file:  "conf-386.chk"
 B after Tr=     0.000000    0.000000    0.000000
         Rot=    1.000000    0.000000    0.000000    0.000000 Ang=   0.00 deg.
 Requested convergence on RMS density matrix=1.00D-08 within 128 cycles.
 Requested convergence on MAX density matrix=1.00D-06.
 Requested convergence on             energy=1.00D-06.
 No special actions if energy rises.
 SCF Done:  E(RB3LYP) =  -1866.73830975     A.U. after    3 cycles
            NFock=  3  Conv=0.12D-08     -V/T= 2.0095

 **********************************************************************

            Population analysis using the SCF Density.

 **********************************************************************

 Alpha  occ. eigenvalues --  -19.25840 -19.23071 -19.20955 -19.20915 -19.20118
 Alpha  occ. eigenvalues --  -19.18022 -14.52406 -14.51197 -14.50581 -14.44879
 Alpha  occ. eigenvalues --  -14.44663 -14.44574 -14.44416 -14.41931 -10.48026
 Alpha  occ. eigenvalues --  -10.41664 -10.38416 -10.37507 -10.37261 -10.35345
 Alpha  occ. eigenvalues --  -10.35100 -10.33681 -10.32455 -10.31390 -10.30558
 Alpha  occ. eigenvalues --  -10.30347 -10.28657 -10.28566 -10.27298 -10.26956
 Alpha  occ. eigenvalues --  -10.26265 -10.26049 -10.25956 -10.25914 -10.25749
 Alpha  occ. eigenvalues --  -10.25603 -10.25152 -10.22888 -10.22646  -1.18277
 Alpha  occ. eigenvalues --   -1.16327  -1.12968  -1.12360  -1.12222  -1.09908
 Alpha  occ. eigenvalues --   -1.09516  -1.05457  -1.04612  -1.01611  -1.01111
 Alpha  occ. eigenvalues --   -1.00654  -0.99349  -0.98980  -0.92533  -0.90833
 Alpha  occ. eigenvalues --   -0.88074  -0.86834  -0.85957  -0.84982  -0.82247
 Alpha  occ. eigenvalues --   -0.81299  -0.80879  -0.79361  -0.77770  -0.75978
 Alpha  occ. eigenvalues --   -0.73752  -0.73666  -0.73406  -0.72859  -0.71729
 Alpha  occ. eigenvalues --   -0.69794  -0.68815  -0.67602  -0.67336  -0.67125
 Alpha  occ. eigenvalues --   -0.65860  -0.65657  -0.65143  -0.64932  -0.64423
 Alpha  occ. eigenvalues --   -0.63448  -0.62300  -0.62106  -0.61843  -0.60912
 Alpha  occ. eigenvalues --   -0.59834  -0.58864  -0.58507  -0.57689  -0.57481
 Alpha  occ. eigenvalues --   -0.57313  -0.56283  -0.56004  -0.55272  -0.55064
 Alpha  occ. eigenvalues --   -0.54123  -0.53661  -0.53355  -0.52795  -0.52435
 Alpha  occ. eigenvalues --   -0.52144  -0.51770  -0.51207  -0.51017  -0.50470
 Alpha  occ. eigenvalues --   -0.50220  -0.50089  -0.49066  -0.48854  -0.48720
 Alpha  occ. eigenvalues --   -0.48166  -0.48022  -0.47701  -0.47304  -0.46999
 Alpha  occ. eigenvalues --   -0.46522  -0.46177  -0.45890  -0.45195  -0.44732
 Alpha  occ. eigenvalues --   -0.44609  -0.44249  -0.44101  -0.43674  -0.43195
 Alpha  occ. eigenvalues --   -0.42656  -0.42105  -0.41878  -0.41214  -0.40933
 Alpha  occ. eigenvalues --   -0.40240  -0.39593  -0.39143  -0.38441  -0.38353
 Alpha  occ. eigenvalues --   -0.37656  -0.36796  -0.36062  -0.35388  -0.34927
 Alpha  occ. eigenvalues --   -0.34647  -0.34255  -0.33773  -0.32421  -0.32011
 Alpha  occ. eigenvalues --   -0.31374  -0.31107
 Alpha virt. eigenvalues --   -0.12859  -0.09832  -0.08016  -0.07835  -0.07191
 Alpha virt. eigenvalues --   -0.06890  -0.06287  -0.05510  -0.04725  -0.04564
 Alpha virt. eigenvalues --   -0.01891  -0.01616  -0.00480  -0.00371   0.00073
 Alpha virt. eigenvalues --    0.00464   0.01634   0.02397   0.02987   0.03401
 Alpha virt. eigenvalues --    0.03496   0.04161   0.04730   0.05247   0.05274
 Alpha virt. eigenvalues --    0.05631   0.05857   0.06157   0.06337   0.06596
 Alpha virt. eigenvalues --    0.06793   0.07257   0.07533   0.07644   0.08263
 Alpha virt. eigenvalues --    0.08626   0.09122   0.09475   0.09663   0.09784
 Alpha virt. eigenvalues --    0.10110   0.10492   0.10710   0.10892   0.11362
 Alpha virt. eigenvalues --    0.11500   0.11837   0.11849   0.12254   0.13019
 Alpha virt. eigenvalues --    0.13093   0.13253   0.13447   0.13928   0.14389
 Alpha virt. eigenvalues --    0.14808   0.15281   0.15877   0.16471   0.17123
 Alpha virt. eigenvalues --    0.17488   0.17528   0.17847   0.18737   0.19066
 Alpha virt. eigenvalues --    0.19499   0.20545   0.21134   0.22377   0.22805
 Alpha virt. eigenvalues --    0.23447   0.23739   0.24517   0.24702   0.25110
 Alpha virt. eigenvalues --    0.25853   0.26477   0.26804   0.27647   0.28166
 Alpha virt. eigenvalues --    0.28733   0.30042   0.30270   0.31017   0.32626
 Alpha virt. eigenvalues --    0.33771   0.35271   0.36752   0.37999   0.38774
 Alpha virt. eigenvalues --    0.40069   0.41151   0.41830   0.42405   0.42666
 Alpha virt. eigenvalues --    0.43481   0.43771   0.44017   0.44695   0.45363
 Alpha virt. eigenvalues --    0.45592   0.45883   0.46174   0.46868   0.47099
 Alpha virt. eigenvalues --    0.47741   0.48064   0.48126   0.48408   0.49180
 Alpha virt. eigenvalues --    0.49394   0.49694   0.50526   0.50688   0.51279
 Alpha virt. eigenvalues --    0.51722   0.51970   0.52374   0.52435   0.52583
 Alpha virt. eigenvalues --    0.53029   0.53707   0.54006   0.54668   0.54758
 Alpha virt. eigenvalues --    0.54913   0.55021   0.55424   0.56231   0.56780
 Alpha virt. eigenvalues --    0.56839   0.57037   0.57588   0.58095   0.58231
 Alpha virt. eigenvalues --    0.58482   0.59197   0.59792   0.60207   0.60876
 Alpha virt. eigenvalues --    0.61244   0.61436   0.61896   0.62800   0.63311
 Alpha virt. eigenvalues --    0.63611   0.64016   0.64448   0.64608   0.65497
 Alpha virt. eigenvalues --    0.65528   0.66318   0.66683   0.66941   0.68287
 Alpha virt. eigenvalues --    0.68506   0.68647   0.69359   0.70162   0.70795
 Alpha virt. eigenvalues --    0.72007   0.72426   0.72774   0.73816   0.73838
 Alpha virt. eigenvalues --    0.74130   0.74550   0.75430   0.75706   0.75916
 Alpha virt. eigenvalues --    0.76110   0.76438   0.76802   0.77205   0.77517
 Alpha virt. eigenvalues --    0.77721   0.78096   0.78213   0.78618   0.78938
 Alpha virt. eigenvalues --    0.79282   0.79512   0.80201   0.80527   0.80855
 Alpha virt. eigenvalues --    0.80995   0.81309   0.81355   0.82216   0.82391
 Alpha virt. eigenvalues --    0.83096   0.83323   0.83575   0.84025   0.84352
 Alpha virt. eigenvalues --    0.84367   0.84790   0.85033   0.85369   0.85648
 Alpha virt. eigenvalues --    0.86270   0.86725   0.86931   0.87293   0.87764
 Alpha virt. eigenvalues --    0.88065   0.88896   0.88986   0.89360   0.89971
 Alpha virt. eigenvalues --    0.90413   0.91351   0.91400   0.91814   0.92438
 Alpha virt. eigenvalues --    0.92574   0.93195   0.94377   0.95051   0.95382
 Alpha virt. eigenvalues --    0.96274   0.96524   0.97000   0.98925   0.99818
 Alpha virt. eigenvalues --    1.00323   1.01109   1.01567   1.02127   1.03400
 Alpha virt. eigenvalues --    1.04084   1.04216   1.04638   1.05464   1.05764
 Alpha virt. eigenvalues --    1.07376   1.08029   1.08449   1.08969   1.09473
 Alpha virt. eigenvalues --    1.10563   1.11193   1.11340   1.12987   1.13342
 Alpha virt. eigenvalues --    1.14328   1.15655   1.16351   1.17880   1.18312
 Alpha virt. eigenvalues --    1.18333   1.19669   1.20180   1.20566   1.20983
 Alpha virt. eigenvalues --    1.22348   1.23206   1.23934   1.24595   1.25436
 Alpha virt. eigenvalues --    1.26846   1.27268   1.28976   1.29549   1.29804
 Alpha virt. eigenvalues --    1.30697   1.32205   1.33053   1.33143   1.34392
 Alpha virt. eigenvalues --    1.35017   1.35870   1.36772   1.37481   1.37755
 Alpha virt. eigenvalues --    1.38323   1.38632   1.39451   1.40158   1.41001
 Alpha virt. eigenvalues --    1.41492   1.41972   1.42269   1.42594   1.43816
 Alpha virt. eigenvalues --    1.44391   1.44734   1.44969   1.46208   1.48449
 Alpha virt. eigenvalues --    1.49049   1.50180   1.50694   1.51771   1.51901
 Alpha virt. eigenvalues --    1.53213   1.54757   1.56340   1.56568   1.57427
 Alpha virt. eigenvalues --    1.59184   1.59635   1.61455   1.62171   1.62513
 Alpha virt. eigenvalues --    1.63596   1.63755   1.64732   1.65535   1.66319
 Alpha virt. eigenvalues --    1.66676   1.67150   1.67516   1.68070   1.69177
 Alpha virt. eigenvalues --    1.69671   1.70179   1.71301   1.71780   1.72683
 Alpha virt. eigenvalues --    1.73074   1.73511   1.73737   1.74293   1.74438
 Alpha virt. eigenvalues --    1.74846   1.75270   1.75543   1.75674   1.76748
 Alpha virt. eigenvalues --    1.77432   1.78062   1.78743   1.79179   1.80173
 Alpha virt. eigenvalues --    1.80893   1.81230   1.82239   1.82787   1.83156
 Alpha virt. eigenvalues --    1.83590   1.84076   1.85073   1.86023   1.86422
 Alpha virt. eigenvalues --    1.86749   1.87082   1.87215   1.88093   1.88539
 Alpha virt. eigenvalues --    1.89201   1.90361   1.90939   1.91587   1.92188
 Alpha virt. eigenvalues --    1.92777   1.93019   1.93227   1.93797   1.94108
 Alpha virt. eigenvalues --    1.94403   1.95269   1.96113   1.96423   1.96706
 Alpha virt. eigenvalues --    1.97823   1.98655   1.99077   1.99487   2.00673
 Alpha virt. eigenvalues --    2.01093   2.02668   2.03135   2.03289   2.05076
 Alpha virt. eigenvalues --    2.05338   2.05954   2.06519   2.07173   2.07476
 Alpha virt. eigenvalues --    2.07799   2.08144   2.09501   2.10038   2.10933
 Alpha virt. eigenvalues --    2.11248   2.11584   2.12587   2.13666   2.14947
 Alpha virt. eigenvalues --    2.15073   2.15616   2.16608   2.17757   2.18305
 Alpha virt. eigenvalues --    2.19454   2.20172   2.20861   2.21819   2.23211
 Alpha virt. eigenvalues --    2.23833   2.24283   2.24644   2.25648   2.26111
 Alpha virt. eigenvalues --    2.26459   2.27887   2.28880   2.29895   2.30734
 Alpha virt. eigenvalues --    2.31165   2.31836   2.34599   2.35478   2.36567
 Alpha virt. eigenvalues --    2.37309   2.37964   2.38503   2.39589   2.40253
 Alpha virt. eigenvalues --    2.41118   2.42156   2.42438   2.43286   2.43715
 Alpha virt. eigenvalues --    2.44454   2.44941   2.45312   2.45710   2.46356
 Alpha virt. eigenvalues --    2.48667   2.49377   2.50037   2.51466   2.52360
 Alpha virt. eigenvalues --    2.52567   2.53165   2.54834   2.55470   2.56255
 Alpha virt. eigenvalues --    2.56590   2.57559   2.58493   2.58819   2.59751
 Alpha virt. eigenvalues --    2.60353   2.61651   2.61791   2.62874   2.64812
 Alpha virt. eigenvalues --    2.65907   2.67122   2.67565   2.68112   2.68513
 Alpha virt. eigenvalues --    2.70356   2.71266   2.72071   2.74864   2.76032
 Alpha virt. eigenvalues --    2.77868   2.81333   2.83716   2.84693   2.86142
 Alpha virt. eigenvalues --    2.87131   2.89398   2.90913   2.93339   2.95209
 Alpha virt. eigenvalues --    2.95745   2.96832   2.97009   2.98548   2.99313
 Alpha virt. eigenvalues --    3.00256   3.04692   3.06351   3.12006   3.13355
 Alpha virt. eigenvalues --    3.33955   3.66996   3.72222   3.74976   3.82927
 Alpha virt. eigenvalues --    3.85824   3.93821   3.94382   3.96937   4.00283
 Alpha virt. eigenvalues --    4.02504   4.03743   4.05369   4.05960   4.07988
 Alpha virt. eigenvalues --    4.09760   4.10774   4.13403   4.14469   4.15220
 Alpha virt. eigenvalues --    4.21282   4.22324   4.24012   4.25786   4.27854
 Alpha virt. eigenvalues --    4.28854   4.32226   4.36570   4.37939   4.41592
 Alpha virt. eigenvalues --    4.42606   4.46142   4.47252   4.50966   4.53413
 Alpha virt. eigenvalues --    4.54487   4.60339   4.63797   4.65077   4.68037
          Condensed to atoms (all electrons):
 Mulliken charges:
               1
     1  N   -0.796569
     2  C   -0.080796
     3  C    0.649608
     4  O   -0.519141
     5  C   -0.385804
     6  C    0.141040
     7  C   -0.179984
     8  C   -0.215288
     9  C   -0.127250
    10  C   -0.133820
    11  C   -0.127829
    12  H    0.351908
    13  H    0.167692
    14  H    0.146696
    15  H    0.224117
    16  H    0.122918
    17  H    0.168031
    18  H    0.146141
    19  H    0.133439
    20  H    0.145089
    21  H    0.348335
    22  N   -0.658077
    23  C   -0.014993
    24  C    0.627139
    25  O   -0.517162
    26  C   -0.307882
    27  C   -0.074900
    28  C   -0.449707
    29  C   -0.460139
    30  H    0.336232
    31  H    0.188183
    32  H    0.145102
    33  H    0.143398
    34  H    0.153555
    35  H    0.143120
    36  H    0.155567
    37  H    0.144527
    38  H    0.151812
    39  H    0.134516
    40  H    0.166187
    41  N   -0.607279
    42  C   -0.059175
    43  C    0.628896
    44  O   -0.554076
    45  C   -0.383821
    46  C    0.627423
    47  N   -0.737489
    48  O   -0.537082
    49  H    0.351771
    50  H    0.213099
    51  H    0.194385
    52  H    0.189075
    53  H    0.358592
    54  H    0.355305
    55  N   -0.622906
    56  C    0.012410
    57  C    0.586491
    58  O   -0.516355
    59  C   -0.275459
    60  C   -0.288446
    61  C   -0.167023
    62  N   -0.594421
    63  C    0.779704
    64  N   -0.752230
    65  N   -0.777710
    66  O   -0.617135
    67  H    0.488348
    68  H    0.389124
    69  H    0.142930
    70  H    0.188941
    71  H    0.167543
    72  H    0.146894
    73  H    0.176085
    74  H    0.165498
    75  H    0.207356
    76  H    0.389982
    77  H    0.380288
    78  H    0.386442
    79  H    0.370640
    80  H    0.408373
 Sum of Mulliken charges =   1.00000
 Mulliken charges with hydrogens summed into heavy atoms:
               1
     1  N   -0.096326
     2  C    0.086897
     3  C    0.649608
     4  O   -0.519141
     5  C   -0.014990
     6  C    0.141040
     7  C   -0.057065
     8  C   -0.047258
     9  C    0.018891
    10  C   -0.000381
    11  C    0.017260
    22  N   -0.321845
    23  C    0.173190
    24  C    0.627139
    25  O   -0.517162
    26  C   -0.019383
    27  C    0.078654
    28  C   -0.006491
    29  C   -0.007623
    41  N   -0.255508
    42  C    0.153924
    43  C    0.628896
    44  O   -0.554076
    45  C   -0.000361
    46  C    0.627423
    47  N   -0.023592
    48  O   -0.537082
    55  N   -0.233782
    56  C    0.155339
    57  C    0.586491
    58  O   -0.516355
    59  C    0.081026
    60  C    0.034532
    61  C    0.205831
    62  N   -0.204439
    63  C    0.779704
    64  N    0.014500
    65  N    0.001304
    66  O   -0.128787
 Electronic spatial extent (au):  <R**2>=         220620.7325
 Charge=              1.0000 electrons
 Dipole moment (field-independent basis, Debye):
    X=            -17.4996    Y=             59.5264    Z=            -47.5134  Tot=             78.1483
 Quadrupole moment (field-independent basis, Debye-Ang):
   XX=           -118.9957   YY=            573.9837   ZZ=            309.2456
   XY=           -202.7435   XZ=            221.7476   YZ=           -614.9508
 Traceless Quadrupole moment (field-independent basis, Debye-Ang):
   XX=           -373.7402   YY=            319.2392   ZZ=             54.5010
   XY=           -202.7435   XZ=            221.7476   YZ=           -614.9508
 Octapole moment (field-independent basis, Debye-Ang**2):
  XXX=           1048.1148  YYY=           3646.9776  ZZZ=          -1560.5079  XYY=          -1888.6167
  XXY=          -1216.5521  XXZ=            297.9145  XZZ=          -2110.5630  YZZ=           4511.7371
  YYZ=          -6752.9952  XYZ=           2800.6832
 Hexadecapole moment (field-independent basis, Debye-Ang**3):
 XXXX=          -7327.2824 YYYY=         -18820.2637 ZZZZ=          -5801.5756 XXXY=          10288.0159
 XXXZ=          -6092.3269 YYYX=         -11611.0234 YYYZ=         -62050.1589 ZZZX=          18206.2714
 ZZZY=         -30755.4651 XXYY=         -15498.7124 XXZZ=           -546.6898 YYZZ=          51453.5193
 XXYZ=           1047.0171 YYXZ=          31810.0184 ZZXY=         -28804.6850
 N-N= 4.893619107690D+03 E-N=-1.410875014196D+04  KE= 1.849262699670D+03
 Unable to Open any file for archive entry.
 1\1\GINC-LAC-250\SP\RB3LYP\6-31G(d)\C25H41N8O6(1+)\KENGMITH\11-Jun-202
 2\0\\# B3LYP/6-31G* empiricaldispersion=gd3 guess=read geom=check nosy
 mm integral(ultrafinegrid)\\Candidate Structure: Conf:386 Charge calc 
 in gas phase\\1,1\N,0,-4.6231245747,9.2463270013,-7.4741417231\C,0,-3.
 6024544328,8.8478569132,-6.4785185549\C,0,-3.5480978341,9.9534504082,-
 5.4102855035\O,0,-4.3156058331,10.908427212,-5.4432015312\C,0,-2.25834
 21675,8.5685341874,-7.1903262314\C,0,-2.3745851188,7.3961335387,-8.142
 4576295\C,0,-2.3169802164,6.0813121727,-7.6586856956\C,0,-2.5975399026
 ,7.6029141003,-9.5112731479\C,0,-2.475802457,4.9955778825,-8.519237514
 3\C,0,-2.7587263715,6.5151264836,-10.3738622465\C,0,-2.6991268475,5.21
 06843386,-9.8817650911\H,0,-5.5142460651,9.3904384831,-6.9989151989\H,
 0,-3.9159496863,7.9219408541,-5.9708767409\H,0,-1.4982065066,8.3514593
 406,-6.4308351586\H,0,-1.9408384472,9.4763055911,-7.7083507936\H,0,-2.
 1367205079,5.9065673081,-6.5993893559\H,0,-2.6328398022,8.619196389,-9
 .8934063251\H,0,-2.4199051,3.9830771221,-8.1292387885\H,0,-2.922428194
 4,6.688070235,-11.4344622424\H,0,-2.8192955836,4.3659458516,-10.554108
 9418\H,0,-4.7329626622,8.4923765558,-8.1533002362\N,0,-2.6256891582,9.
 7885404998,-4.419656208\C,0,-2.5722506664,10.69279347,-3.2631975558\C,
 0,-2.410243879,12.1538321617,-3.7145016725\O,0,-2.9869154226,13.065845
 2684,-3.1439400845\C,0,-1.4538519354,10.2231023309,-2.3142829005\C,0,-
 1.2779666085,11.0700153531,-1.0307215962\C,0,-0.7602105661,10.18309237
 32,0.1118697847\C,0,-0.3357324065,12.2673896819,-1.2393112089\H,0,-2.0
 824504128,8.9365961041,-4.3806916157\H,0,-3.5332716041,10.6739815282,-
 2.7383680525\H,0,-1.6949479273,9.1884506457,-2.032046845\H,0,-0.503453
 1867,10.186077478,-2.8658198044\H,0,-2.2641292355,11.4610624047,-0.745
 2844078\H,0,0.2102280797,9.7395678607,-0.1469127375\H,0,-0.6238696412,
 10.7658801638,1.0293407046\H,0,-1.455426051,9.3646965972,0.3334789035\
 H,0,-0.2266942788,12.8304505999,-0.3057135047\H,0,0.6627666412,11.9236
 600287,-1.5399969475\H,0,-0.7084327653,12.9588162363,-1.9983391392\N,0
 ,-1.5315897735,12.3414376729,-4.7525784125\C,0,-1.7044561382,13.492431
 4106,-5.620217622\C,0,-1.9091923264,12.9278417158,-7.0404536793\O,0,-1
 .6096236384,11.7587216236,-7.3089672708\C,0,-0.5266700875,14.485205572
 ,-5.5104406353\C,0,-0.8832339478,15.9003027694,-5.962510814\N,0,-0.063
 1220779,16.877343954,-5.5074368684\O,0,-1.8358378569,16.1548432835,-6.
 7049860718\H,0,-1.2693589352,11.505909395,-5.2678259859\H,0,-2.6164690
 335,14.0108748485,-5.3084505635\H,0,-0.2144522651,14.5012996684,-4.460
 730535\H,0,0.337647017,14.132818321,-6.088963404\H,0,-0.2777035381,17.
 8355270039,-5.7494718675\H,0,0.6518602732,16.7066285221,-4.8158708581\
 N,0,-2.4738173139,13.7540488217,-7.9380320292\C,0,-2.8340617782,13.307
 9509669,-9.2754295977\C,0,-3.2319182794,11.815538256,-9.2290463668\O,0
 ,-2.7329213299,10.9659017068,-9.9618742283\C,0,-1.7688476069,13.622071
 0199,-10.3477206949\C,0,-2.3261638647,13.9988528265,-11.7357867677\C,0
 ,-2.9331121488,12.8712054673,-12.5860740706\N,0,-4.1324011254,12.24415
 92781,-11.9940985197\C,0,-5.3038807716,12.8437388652,-11.7788702036\N,
 0,-5.7274987253,13.821791244,-12.5991772724\N,0,-6.0683132372,12.46184
 94287,-10.7432582926\O,0,-4.2968001189,11.6133693408,-8.4705811589\H,0
 ,-4.3772797674,10.5891458208,-8.1236802056\H,0,-2.5636560689,14.737317
 9186,-7.6707454376\H,0,-3.759534579,13.8480626919,-9.51992183\H,0,-1.0
 760557035,12.7776080095,-10.4213691885\H,0,-1.1950376347,14.4821829741
 ,-9.9871670858\H,0,-3.0686311908,14.8023215586,-11.6263542386\H,0,-1.5
 087972744,14.4224484131,-12.3323201276\H,0,-3.170196262,13.2371606455,
 -13.5910942775\H,0,-2.2177747415,12.0552867394,-12.7090139494\H,0,-3.9
 13189443,11.4493615683,-11.3952566835\H,0,-6.5336060516,14.3857809661,
 -12.373465965\H,0,-5.3107014333,13.9487573467,-13.5097847611\H,0,-7.03
 25351497,12.7563943508,-10.6770021905\H,0,-5.6417321457,12.0458052092,
 -9.9104181202\\Version=ES64L-G16RevC.01\HF=-1866.7383098\RMSD=1.184e-0
 9\Dipole=-1.9419036,1.850336,-5.1686307\Quadrupole=-277.8666869,237.34
 65067,40.5201801,-150.7348366,164.8639363,-457.2008456\PG=C01 [X(C25H4
 1N8O6)]\\@
 The archive entry for this job was punched.


 ACTORS ARE SO FORTUNATE.  THEY CAN CHOOSE WHETHER
 THEY WILL APPEAR IN A TRAGEDY OR IN COMEDY,
 WHETHER THEY WILL SUFFER OF MAKE MERRY,
 LAUGH OR SHED TEARS.  BUT IN REAL LIFE IT IS DIFFERENT.
 MOST MEN AND WOMEN ARE FORCED TO PERFORM
 PARTS FOR WHICH THEY HAVE NO QUALIFICATIONS.
 THE WORLD IS A STAGE, BUT THE PLAY IS BADLY CAST.

                                   -- OSCAR WILDE
 Job cpu time:       0 days  0 hours  4 minutes 59.4 seconds.
 Elapsed time:       0 days  0 hours  1 minutes 15.6 seconds.
 File lengths (MBytes):  RWF=    344 Int=      0 D2E=      0 Chk=     56 Scr=     16
 Normal termination of Gaussian 16 at Sat Jun 11 21:07:39 2022.
