 Entering Gaussian System, Link 0=/opt/software/Gaussian/g16-AVX2-C.01/g16/g16
 Input=charge-conf-879.com
 Output=charge-conf-879.log
 Initial command:
 /opt/software/Gaussian/g16-AVX2-C.01/g16/l1.exe "/mnt/gs18/scratch/users/kengmith/Gau-15125.inp" -scrdir="/mnt/gs18/scratch/users/kengmith/"
 Entering Link 1 = /opt/software/Gaussian/g16-AVX2-C.01/g16/l1.exe PID=     15135.
  
 Copyright (c) 1988-2019, Gaussian, Inc.  All Rights Reserved.
  
 This is part of the Gaussian(R) 16 program.  It is based on
 the Gaussian(R) 09 system (copyright 2009, Gaussian, Inc.),
 the Gaussian(R) 03 system (copyright 2003, Gaussian, Inc.),
 the Gaussian(R) 98 system (copyright 1998, Gaussian, Inc.),
 the Gaussian(R) 94 system (copyright 1995, Gaussian, Inc.),
 the Gaussian 92(TM) system (copyright 1992, Gaussian, Inc.),
 the Gaussian 90(TM) system (copyright 1990, Gaussian, Inc.),
 the Gaussian 88(TM) system (copyright 1988, Gaussian, Inc.),
 the Gaussian 86(TM) system (copyright 1986, Carnegie Mellon
 University), and the Gaussian 82(TM) system (copyright 1983,
 Carnegie Mellon University). Gaussian is a federally registered
 trademark of Gaussian, Inc.
  
 This software contains proprietary and confidential information,
 including trade secrets, belonging to Gaussian, Inc.
  
 This software is provided under written license and may be
 used, copied, transmitted, or stored only in accord with that
 written license.
  
 The following legend is applicable only to US Government
 contracts under FAR:
  
                    RESTRICTED RIGHTS LEGEND
  
 Use, reproduction and disclosure by the US Government is
 subject to restrictions as set forth in subparagraphs (a)
 and (c) of the Commercial Computer Software - Restricted
 Rights clause in FAR 52.227-19.
  
 Gaussian, Inc.
 340 Quinnipiac St., Bldg. 40, Wallingford CT 06492
  
  
 ---------------------------------------------------------------
 Warning -- This program may not be used in any manner that
 competes with the business of Gaussian, Inc. or will provide
 assistance to any competitor of Gaussian, Inc.  The licensee
 of this program is prohibited from giving any competitor of
 Gaussian, Inc. access to this program.  By using this program,
 the user acknowledges that Gaussian, Inc. is engaged in the
 business of creating and licensing software in the field of
 computational chemistry and represents and warrants to the
 licensee that it is not a competitor of Gaussian, Inc. and that
 it will not use this program in any manner prohibited above.
 ---------------------------------------------------------------
  

 Cite this work as:
 Gaussian 16, Revision C.01,
 M. J. Frisch, G. W. Trucks, H. B. Schlegel, G. E. Scuseria, 
 M. A. Robb, J. R. Cheeseman, G. Scalmani, V. Barone, 
 G. A. Petersson, H. Nakatsuji, X. Li, M. Caricato, A. V. Marenich, 
 J. Bloino, B. G. Janesko, R. Gomperts, B. Mennucci, H. P. Hratchian, 
 J. V. Ortiz, A. F. Izmaylov, J. L. Sonnenberg, D. Williams-Young, 
 F. Ding, F. Lipparini, F. Egidi, J. Goings, B. Peng, A. Petrone, 
 T. Henderson, D. Ranasinghe, V. G. Zakrzewski, J. Gao, N. Rega, 
 G. Zheng, W. Liang, M. Hada, M. Ehara, K. Toyota, R. Fukuda, 
 J. Hasegawa, M. Ishida, T. Nakajima, Y. Honda, O. Kitao, H. Nakai, 
 T. Vreven, K. Throssell, J. A. Montgomery, Jr., J. E. Peralta, 
 F. Ogliaro, M. J. Bearpark, J. J. Heyd, E. N. Brothers, K. N. Kudin, 
 V. N. Staroverov, T. A. Keith, R. Kobayashi, J. Normand, 
 K. Raghavachari, A. P. Rendell, J. C. Burant, S. S. Iyengar, 
 J. Tomasi, M. Cossi, J. M. Millam, M. Klene, C. Adamo, R. Cammi, 
 J. W. Ochterski, R. L. Martin, K. Morokuma, O. Farkas, 
 J. B. Foresman, and D. J. Fox, Gaussian, Inc., Wallingford CT, 2019.
 
 ******************************************
 Gaussian 16:  ES64L-G16RevC.01  3-Jul-2019
                11-Jun-2022 
 ******************************************
 %mem=8gb
 %nproc=4
 Will use up to    4 processors via shared memory.
 %chk=conf-879.chk
 ----------------------------------------------------------------------
 # B3LYP/6-31G* empiricaldispersion=gd3 guess=read geom=check nosymm in
 tegral(ultrafinegrid)
 ----------------------------------------------------------------------
 1/29=2,38=1,172=1/1;
 2/12=2,15=1,40=1/2;
 3/5=1,6=6,7=1,11=2,14=-4,25=1,30=1,74=-5,75=-5,116=-2,124=31/1,2,3;
 4/5=1/1;
 5/5=2,38=6/2;
 6/7=2,8=2,9=2,10=2,28=1/1;
 99/5=1,9=1/99;
 ------------------------------------------------------
 Candidate Structure: Conf:879 Charge calc in gas phase
 ------------------------------------------------------
 Structure from the checkpoint file:  "conf-879.chk"
 Charge =  1 Multiplicity = 1
 Redundant internal coordinates found in file.  (old form).
 N,0,-1.9521014166,13.2621339501,-6.8034775653
 C,0,-3.0268805193,13.7866585956,-5.9378780582
 C,0,-3.6661181171,12.5741277377,-5.2265610889
 O,0,-2.9683295021,11.8189623346,-4.5637136053
 C,0,-3.9930321805,14.7342972874,-6.6888744157
 C,0,-3.2620156348,15.9051396533,-7.3094465567
 C,0,-2.857106418,16.9886800986,-6.5170569378
 C,0,-2.9232691022,15.9039410869,-8.6694094176
 C,0,-2.1368106347,18.0469600495,-7.0702091083
 C,0,-2.203085264,16.9634057163,-9.2270625095
 C,0,-1.8075306413,18.0371725962,-8.4283056284
 H,0,-1.5002436023,14.0352536697,-7.2913594833
 H,0,-2.536405355,14.3564682673,-5.1402979403
 H,0,-4.7473246004,15.1042002594,-5.9821946837
 H,0,-4.5173771498,14.1700312625,-7.4716634534
 H,0,-3.1162018686,17.006157142,-5.4606139842
 H,0,-3.2432485437,15.0764969634,-9.2995624635
 H,0,-1.8397882677,18.8832323697,-6.4437333585
 H,0,-1.9660133309,16.9556038677,-10.2878082435
 H,0,-1.2563201518,18.8671988048,-8.8611396681
 H,0,-2.3471766523,12.6500725251,-7.5218920384
 N,0,-5.0036635884,12.3627173608,-5.4093480286
 C,0,-5.7177042643,11.306426626,-4.682274724
 C,0,-5.0832231293,9.9258239626,-4.9094053019
 O,0,-5.0909524323,9.0742310234,-4.0315400406
 C,0,-7.2006787003,11.3298312562,-5.0962181162
 C,0,-8.088617265,10.2480574776,-4.4509650291
 C,0,-8.0406057088,10.2919603684,-2.9170196521
 C,0,-9.5271093506,10.3983627666,-4.966198756
 H,0,-5.563151851,13.0530988078,-5.8888374484
 H,0,-5.617420076,11.4805358704,-3.6071334695
 H,0,-7.6079501999,12.3197576035,-4.8397358382
 H,0,-7.2549778495,11.2348266673,-6.190325628
 H,0,-7.7105329916,9.2675060924,-4.7696869478
 H,0,-7.0490672279,10.0215162039,-2.5435989242
 H,0,-8.3011496993,11.2915836356,-2.5438166633
 H,0,-8.7597122266,9.5830150781,-2.4919367175
 H,0,-9.9577108389,11.3579561318,-4.6518514933
 H,0,-9.5729142277,10.3525605758,-6.0612718586
 H,0,-10.1671144051,9.6029089148,-4.5693384702
 N,0,-4.5632705867,9.7013852816,-6.1560734828
 C,0,-3.4963536064,8.7241368934,-6.2825350512
 C,0,-2.4049956898,9.3749048256,-7.1527663495
 O,0,-2.6303078665,10.3956611312,-7.8200938736
 C,0,-4.0162590407,7.3664698296,-6.8052428832
 C,0,-3.1233657242,6.1887303454,-6.419630922
 N,0,-3.7261699866,4.9753350403,-6.4305080373
 O,0,-1.9279652733,6.3091301429,-6.1383252216
 H,0,-4.4450532217,10.5039246894,-6.765238925
 H,0,-3.0765088721,8.5545575586,-5.2851130641
 H,0,-5.0128470557,7.2253086986,-6.3749859573
 H,0,-4.138294443,7.3827522523,-7.896159102
 H,0,-3.1873806757,4.1738768399,-6.1295951634
 H,0,-4.7265593149,4.8717294968,-6.5150877134
 N,0,-1.1909514798,8.8013553519,-7.0817474692
 C,0,-0.0081740643,9.409074035,-7.6729774712
 C,0,-0.0937443491,10.9386436369,-7.4778658574
 O,0,0.0706966331,11.7474544848,-8.4046974188
 C,0,0.2022938316,8.9788409965,-9.1379861248
 C,0,1.6453928825,9.1971351293,-9.6693221057
 C,0,1.717186342,9.948211648,-11.0081061659
 N,0,1.225431797,11.3224998942,-10.8110695519
 C,0,1.9533637619,12.4332470919,-10.90414799
 N,0,2.9320673957,12.5551560005,-11.8207274824
 N,0,1.6946220698,13.4492095385,-10.0656885522
 O,0,-0.3480075355,11.2845353591,-6.2510931823
 H,0,-0.8704850047,12.1927797761,-6.2631230615
 H,0,-1.1277435053,7.9116501021,-6.578715575
 H,0,0.8422132664,9.0705632065,-7.0674794655
 H,0,-0.5458103455,9.4968286142,-9.7498404287
 H,0,-0.0482211686,7.9158505927,-9.196814495
 H,0,2.2438917633,9.7569953458,-8.9391423085
 H,0,2.1441689813,8.2306361548,-9.7983858141
 H,0,2.7482457946,9.9801382555,-11.3732065786
 H,0,1.1036098921,9.4536950133,-11.7686825136
 H,0,0.5101223704,11.3867302765,-10.0721593608
 H,0,3.5926904616,13.3173588737,-11.7854735578
 H,0,2.9803149196,11.9271437779,-12.6091088512
 H,0,1.9664880793,14.3972176426,-10.2806893925
 H,0,1.1021760934,13.2699598554,-9.2561186127
 Recover connectivity data from disk.
                           ----------------------------
                           !    Current Parameters    !
                           ! (Angstroms and Degrees)  !
 --------------------------                            --------------------------
 ! Name  Definition              Value                                          !
 --------------------------------------------------------------------------------
 ! R1    R(1,2)                  1.4763                                         !
 ! R2    R(1,12)                 1.0198                                         !
 ! R3    R(1,21)                 1.0231                                         !
 ! R4    R(2,3)                  1.5443                                         !
 ! R5    R(2,5)                  1.5477                                         !
 ! R6    R(2,13)                 1.0961                                         !
 ! R7    R(3,4)                  1.2233                                         !
 ! R8    R(3,22)                 1.3664                                         !
 ! R9    R(5,6)                  1.5134                                         !
 ! R10   R(5,14)                 1.0978                                         !
 ! R11   R(5,15)                 1.0982                                         !
 ! R12   R(6,7)                  1.4021                                         !
 ! R13   R(6,8)                  1.4015                                         !
 ! R14   R(7,9)                  1.3945                                         !
 ! R15   R(7,16)                 1.0879                                         !
 ! R16   R(8,10)                 1.3972                                         !
 ! R17   R(8,17)                 1.0882                                         !
 ! R18   R(9,11)                 1.3975                                         !
 ! R19   R(9,18)                 1.0863                                         !
 ! R20   R(10,11)                1.3955                                         !
 ! R21   R(10,19)                1.0869                                         !
 ! R22   R(11,20)                1.0863                                         !
 ! R23   R(22,23)                1.4677                                         !
 ! R24   R(22,30)                1.0097                                         !
 ! R25   R(23,24)                1.5363                                         !
 ! R26   R(23,26)                1.5398                                         !
 ! R27   R(23,31)                1.0938                                         !
 ! R28   R(24,25)                1.2231                                         !
 ! R29   R(24,41)                1.3693                                         !
 ! R30   R(26,27)                1.5411                                         !
 ! R31   R(26,32)                1.1007                                         !
 ! R32   R(26,33)                1.0996                                         !
 ! R33   R(27,28)                1.5353                                         !
 ! R34   R(27,29)                1.5354                                         !
 ! R35   R(27,34)                1.0982                                         !
 ! R36   R(28,35)                1.0935                                         !
 ! R37   R(28,36)                1.0984                                         !
 ! R38   R(28,37)                1.0956                                         !
 ! R39   R(29,38)                1.0977                                         !
 ! R40   R(29,39)                1.097                                          !
 ! R41   R(29,40)                1.0954                                         !
 ! R42   R(41,42)                1.4523                                         !
 ! R43   R(41,49)                1.0145                                         !
 ! R44   R(42,43)                1.5401                                         !
 ! R45   R(42,45)                1.5449                                         !
 ! R46   R(42,50)                1.0954                                         !
 ! R47   R(43,44)                1.2402                                         !
 ! R48   R(43,55)                1.3446                                         !
 ! R49   R(45,46)                1.5274                                         !
 ! R50   R(45,51)                1.0946                                         !
 ! R51   R(45,52)                1.0978                                         !
 ! R52   R(46,47)                1.3549                                         !
 ! R53   R(46,48)                1.2339                                         !
 ! R54   R(47,53)                1.0115                                         !
 ! R55   R(47,54)                1.0093                                         !
 ! R56   R(55,56)                1.4553                                         !
 ! R57   R(55,68)                1.024                                          !
 ! R58   R(56,57)                1.5443                                         !
 ! R59   R(56,59)                1.5413                                         !
 ! R60   R(56,69)                1.0974                                         !
 ! R61   R(57,58)                1.2411                                         !
 ! R62   R(57,66)                1.2997                                         !
 ! R63   R(59,60)                1.5532                                         !
 ! R64   R(59,70)                1.0965                                         !
 ! R65   R(59,71)                1.0937                                         !
 ! R66   R(60,61)                1.5368                                         !
 ! R67   R(60,72)                1.0976                                         !
 ! R68   R(60,73)                1.0952                                         !
 ! R69   R(61,62)                1.4729                                         !
 ! R70   R(61,74)                1.0943                                         !
 ! R71   R(61,75)                1.0952                                         !
 ! R72   R(62,63)                1.3313                                         !
 ! R73   R(62,76)                1.0304                                         !
 ! R74   R(63,64)                1.3464                                         !
 ! R75   R(63,65)                1.3424                                         !
 ! R76   R(64,77)                1.0093                                         !
 ! R77   R(64,78)                1.0091                                         !
 ! R78   R(65,79)                1.0094                                         !
 ! R79   R(65,80)                1.0191                                         !
 ! R80   R(66,67)                1.0479                                         !
 ! A1    A(2,1,12)             109.4955                                         !
 ! A2    A(2,1,21)             110.0671                                         !
 ! A3    A(12,1,21)            106.7798                                         !
 ! A4    A(1,2,3)              107.0048                                         !
 ! A5    A(1,2,5)              112.7984                                         !
 ! A6    A(1,2,13)             106.5934                                         !
 ! A7    A(3,2,5)              116.4776                                         !
 ! A8    A(3,2,13)             104.9656                                         !
 ! A9    A(5,2,13)             108.3076                                         !
 ! A10   A(2,3,4)              119.8779                                         !
 ! A11   A(2,3,22)             117.7135                                         !
 ! A12   A(4,3,22)             122.3653                                         !
 ! A13   A(2,5,6)              111.7854                                         !
 ! A14   A(2,5,14)             108.8362                                         !
 ! A15   A(2,5,15)             109.227                                          !
 ! A16   A(6,5,14)             109.5825                                         !
 ! A17   A(6,5,15)             109.6241                                         !
 ! A18   A(14,5,15)            107.6921                                         !
 ! A19   A(5,6,7)              120.3732                                         !
 ! A20   A(5,6,8)              120.9294                                         !
 ! A21   A(7,6,8)              118.6363                                         !
 ! A22   A(6,7,9)              120.7603                                         !
 ! A23   A(6,7,16)             119.5013                                         !
 ! A24   A(9,7,16)             119.7363                                         !
 ! A25   A(6,8,10)             120.7459                                         !
 ! A26   A(6,8,17)             119.439                                          !
 ! A27   A(10,8,17)            119.804                                          !
 ! A28   A(7,9,11)             120.1233                                         !
 ! A29   A(7,9,18)             119.7806                                         !
 ! A30   A(11,9,18)            120.094                                          !
 ! A31   A(8,10,11)            120.0737                                         !
 ! A32   A(8,10,19)            119.7681                                         !
 ! A33   A(11,10,19)           120.151                                          !
 ! A34   A(9,11,10)            119.6597                                         !
 ! A35   A(9,11,20)            120.0935                                         !
 ! A36   A(10,11,20)           120.2431                                         !
 ! A37   A(3,22,23)            121.4187                                         !
 ! A38   A(3,22,30)            120.0079                                         !
 ! A39   A(23,22,30)           117.2409                                         !
 ! A40   A(22,23,24)           111.8751                                         !
 ! A41   A(22,23,26)           108.9305                                         !
 ! A42   A(22,23,31)           109.1338                                         !
 ! A43   A(24,23,26)           111.8178                                         !
 ! A44   A(24,23,31)           104.5078                                         !
 ! A45   A(26,23,31)           110.4953                                         !
 ! A46   A(23,24,25)           121.1301                                         !
 ! A47   A(23,24,41)           116.0229                                         !
 ! A48   A(25,24,41)           122.8034                                         !
 ! A49   A(23,26,27)           115.5734                                         !
 ! A50   A(23,26,32)           107.9007                                         !
 ! A51   A(23,26,33)           108.2843                                         !
 ! A52   A(27,26,32)           108.6956                                         !
 ! A53   A(27,26,33)           109.1179                                         !
 ! A54   A(32,26,33)           106.935                                          !
 ! A55   A(26,27,28)           112.3478                                         !
 ! A56   A(26,27,29)           109.3049                                         !
 ! A57   A(26,27,34)           107.871                                          !
 ! A58   A(28,27,29)           111.2094                                         !
 ! A59   A(28,27,34)           107.742                                          !
 ! A60   A(29,27,34)           108.2146                                         !
 ! A61   A(27,28,35)           111.2519                                         !
 ! A62   A(27,28,36)           110.9824                                         !
 ! A63   A(27,28,37)           110.4019                                         !
 ! A64   A(35,28,36)           108.9139                                         !
 ! A65   A(35,28,37)           107.6149                                         !
 ! A66   A(36,28,37)           107.5402                                         !
 ! A67   A(27,29,38)           110.9156                                         !
 ! A68   A(27,29,39)           111.7173                                         !
 ! A69   A(27,29,40)           110.7777                                         !
 ! A70   A(38,29,39)           107.8169                                         !
 ! A71   A(38,29,40)           107.5695                                         !
 ! A72   A(39,29,40)           107.8758                                         !
 ! A73   A(24,41,42)           117.9385                                         !
 ! A74   A(24,41,49)           117.4708                                         !
 ! A75   A(42,41,49)           113.2297                                         !
 ! A76   A(41,42,43)           106.5857                                         !
 ! A77   A(41,42,45)           111.9354                                         !
 ! A78   A(41,42,50)           107.8453                                         !
 ! A79   A(43,42,45)           114.7481                                         !
 ! A80   A(43,42,50)           107.9584                                         !
 ! A81   A(45,42,50)           107.5187                                         !
 ! A82   A(42,43,44)           121.5404                                         !
 ! A83   A(42,43,55)           115.4514                                         !
 ! A84   A(44,43,55)           122.9259                                         !
 ! A85   A(42,45,46)           113.2949                                         !
 ! A86   A(42,45,51)           106.6617                                         !
 ! A87   A(42,45,52)           111.1358                                         !
 ! A88   A(46,45,51)           109.4842                                         !
 ! A89   A(46,45,52)           109.104                                          !
 ! A90   A(51,45,52)           106.9351                                         !
 ! A91   A(45,46,47)           115.3672                                         !
 ! A92   A(45,46,48)           123.2734                                         !
 ! A93   A(47,46,48)           121.3466                                         !
 ! A94   A(46,47,53)           118.0474                                         !
 ! A95   A(46,47,54)           122.2475                                         !
 ! A96   A(53,47,54)           118.135                                          !
 ! A97   A(43,55,56)           122.2933                                         !
 ! A98   A(43,55,68)           116.8909                                         !
 ! A99   A(56,55,68)           120.8123                                         !
 ! A100  A(55,56,57)           108.4962                                         !
 ! A101  A(55,56,59)           112.369                                          !
 ! A102  A(55,56,69)           106.0708                                         !
 ! A103  A(57,56,59)           113.8358                                         !
 ! A104  A(57,56,69)           106.1847                                         !
 ! A105  A(59,56,69)           109.4212                                         !
 ! A106  A(56,57,58)           122.9416                                         !
 ! A107  A(56,57,66)           113.1833                                         !
 ! A108  A(58,57,66)           123.8745                                         !
 ! A109  A(56,59,60)           114.3802                                         !
 ! A110  A(56,59,70)           107.7793                                         !
 ! A111  A(56,59,71)           106.9266                                         !
 ! A112  A(60,59,70)           112.1238                                         !
 ! A113  A(60,59,71)           109.3301                                         !
 ! A114  A(70,59,71)           105.8337                                         !
 ! A115  A(59,60,61)           114.2118                                         !
 ! A116  A(59,60,72)           110.5314                                         !
 ! A117  A(59,60,73)           109.8405                                         !
 ! A118  A(61,60,72)           107.7444                                         !
 ! A119  A(61,60,73)           107.9                                            !
 ! A120  A(72,60,73)           106.271                                          !
 ! A121  A(60,61,62)           108.8984                                         !
 ! A122  A(60,61,74)           110.423                                          !
 ! A123  A(60,61,75)           110.986                                          !
 ! A124  A(62,61,74)           109.3906                                         !
 ! A125  A(62,61,75)           109.0965                                         !
 ! A126  A(74,61,75)           108.0198                                         !
 ! A127  A(61,62,63)           125.9155                                         !
 ! A128  A(61,62,76)           112.6976                                         !
 ! A129  A(63,62,76)           112.1915                                         !
 ! A130  A(62,63,64)           121.3725                                         !
 ! A131  A(62,63,65)           118.8409                                         !
 ! A132  A(64,63,65)           119.7861                                         !
 ! A133  A(63,64,77)           121.3587                                         !
 ! A134  A(63,64,78)           120.6813                                         !
 ! A135  A(77,64,78)           117.7748                                         !
 ! A136  A(63,65,79)           121.7246                                         !
 ! A137  A(63,65,80)           118.3663                                         !
 ! A138  A(79,65,80)           119.4057                                         !
 ! A139  A(57,66,67)           108.5042                                         !
 ! D1    D(12,1,2,3)          -179.8162                                         !
 ! D2    D(12,1,2,5)            50.8165                                         !
 ! D3    D(12,1,2,13)          -67.921                                          !
 ! D4    D(21,1,2,3)            63.0948                                         !
 ! D5    D(21,1,2,5)           -66.2724                                         !
 ! D6    D(21,1,2,13)          174.9901                                         !
 ! D7    D(1,2,3,4)             56.0916                                         !
 ! D8    D(1,2,3,22)          -121.5696                                         !
 ! D9    D(5,2,3,4)           -176.6784                                         !
 ! D10   D(5,2,3,22)             5.6604                                         !
 ! D11   D(13,2,3,4)           -56.9169                                         !
 ! D12   D(13,2,3,22)          125.422                                          !
 ! D13   D(1,2,5,6)            -57.4155                                         !
 ! D14   D(1,2,5,14)          -178.5942                                         !
 ! D15   D(1,2,5,15)            64.0805                                         !
 ! D16   D(3,2,5,6)            178.2674                                         !
 ! D17   D(3,2,5,14)            57.0886                                         !
 ! D18   D(3,2,5,15)           -60.2367                                         !
 ! D19   D(13,2,5,6)            60.3186                                         !
 ! D20   D(13,2,5,14)          -60.8602                                         !
 ! D21   D(13,2,5,15)         -178.1855                                         !
 ! D22   D(2,3,22,23)         -174.6502                                         !
 ! D23   D(2,3,22,30)           -8.1939                                         !
 ! D24   D(4,3,22,23)            7.7508                                         !
 ! D25   D(4,3,22,30)          174.2071                                         !
 ! D26   D(2,5,6,7)            -77.8231                                         !
 ! D27   D(2,5,6,8)             99.2969                                         !
 ! D28   D(14,5,6,7)            42.9222                                         !
 ! D29   D(14,5,6,8)          -139.9577                                         !
 ! D30   D(15,5,6,7)           160.9105                                         !
 ! D31   D(15,5,6,8)           -21.9694                                         !
 ! D32   D(5,6,7,9)            177.4457                                         !
 ! D33   D(5,6,7,16)            -3.081                                          !
 ! D34   D(8,6,7,9)              0.2604                                         !
 ! D35   D(8,6,7,16)           179.7337                                         !
 ! D36   D(5,6,8,10)          -177.5061                                         !
 ! D37   D(5,6,8,17)             3.7097                                         !
 ! D38   D(7,6,8,10)            -0.337                                          !
 ! D39   D(7,6,8,17)          -179.1212                                         !
 ! D40   D(6,7,9,11)            -0.092                                          !
 ! D41   D(6,7,9,18)           179.3845                                         !
 ! D42   D(16,7,9,11)         -179.5641                                         !
 ! D43   D(16,7,9,18)           -0.0876                                         !
 ! D44   D(6,8,10,11)            0.2456                                         !
 ! D45   D(6,8,10,19)         -178.7839                                         !
 ! D46   D(17,8,10,11)         179.0255                                         !
 ! D47   D(17,8,10,19)          -0.0041                                         !
 ! D48   D(7,9,11,10)           -0.0053                                         !
 ! D49   D(7,9,11,20)          179.2967                                         !
 ! D50   D(18,9,11,10)        -179.4802                                         !
 ! D51   D(18,9,11,20)          -0.1782                                         !
 ! D52   D(8,10,11,9)           -0.0707                                         !
 ! D53   D(8,10,11,20)        -179.3717                                         !
 ! D54   D(19,10,11,9)         178.9551                                         !
 ! D55   D(19,10,11,20)         -0.3459                                         !
 ! D56   D(3,22,23,24)         -56.2764                                         !
 ! D57   D(3,22,23,26)         179.5922                                         !
 ! D58   D(3,22,23,31)          58.876                                          !
 ! D59   D(30,22,23,24)        136.9084                                         !
 ! D60   D(30,22,23,26)         12.777                                          !
 ! D61   D(30,22,23,31)       -107.9391                                         !
 ! D62   D(22,23,24,25)        147.1179                                         !
 ! D63   D(22,23,24,41)        -35.2212                                         !
 ! D64   D(26,23,24,25)        -90.3824                                         !
 ! D65   D(26,23,24,41)         87.2785                                         !
 ! D66   D(31,23,24,25)         29.1659                                         !
 ! D67   D(31,23,24,41)       -153.1732                                         !
 ! D68   D(22,23,26,27)        178.2363                                         !
 ! D69   D(22,23,26,32)        -59.893                                          !
 ! D70   D(22,23,26,33)         55.518                                          !
 ! D71   D(24,23,26,27)         54.071                                          !
 ! D72   D(24,23,26,32)        175.9418                                         !
 ! D73   D(24,23,26,33)        -68.6473                                         !
 ! D74   D(31,23,26,27)        -61.8872                                         !
 ! D75   D(31,23,26,32)         59.9835                                         !
 ! D76   D(31,23,26,33)        175.3945                                         !
 ! D77   D(23,24,41,42)        154.3062                                         !
 ! D78   D(23,24,41,49)         13.1445                                         !
 ! D79   D(25,24,41,42)        -28.0759                                         !
 ! D80   D(25,24,41,49)       -169.2377                                         !
 ! D81   D(23,26,27,28)         56.3416                                         !
 ! D82   D(23,26,27,29)       -179.7086                                         !
 ! D83   D(23,26,27,34)        -62.2612                                         !
 ! D84   D(32,26,27,28)        -65.1028                                         !
 ! D85   D(32,26,27,29)         58.847                                          !
 ! D86   D(32,26,27,34)        176.2944                                         !
 ! D87   D(33,26,27,28)        178.6169                                         !
 ! D88   D(33,26,27,29)        -57.4333                                         !
 ! D89   D(33,26,27,34)         60.0142                                         !
 ! D90   D(26,27,28,35)        -66.5028                                         !
 ! D91   D(26,27,28,36)         54.9404                                         !
 ! D92   D(26,27,28,37)        174.0855                                         !
 ! D93   D(29,27,28,35)        170.6127                                         !
 ! D94   D(29,27,28,36)        -67.9441                                         !
 ! D95   D(29,27,28,37)         51.201                                          !
 ! D96   D(34,27,28,35)         52.1758                                         !
 ! D97   D(34,27,28,36)        173.619                                          !
 ! D98   D(34,27,28,37)        -67.2359                                         !
 ! D99   D(26,27,29,38)        -64.0536                                         !
 ! D100  D(26,27,29,39)         56.2648                                         !
 ! D101  D(26,27,29,40)        176.5638                                         !
 ! D102  D(28,27,29,38)         60.5634                                         !
 ! D103  D(28,27,29,39)       -179.1182                                         !
 ! D104  D(28,27,29,40)        -58.8191                                         !
 ! D105  D(34,27,29,38)        178.7154                                         !
 ! D106  D(34,27,29,39)        -60.9661                                         !
 ! D107  D(34,27,29,40)         59.3329                                         !
 ! D108  D(24,41,42,43)       -133.2879                                         !
 ! D109  D(24,41,42,45)        100.4955                                         !
 ! D110  D(24,41,42,50)        -17.5752                                         !
 ! D111  D(49,41,42,43)          9.4473                                         !
 ! D112  D(49,41,42,45)       -116.7694                                         !
 ! D113  D(49,41,42,50)        125.1599                                         !
 ! D114  D(41,42,43,44)        -14.7887                                         !
 ! D115  D(41,42,43,55)        162.0044                                         !
 ! D116  D(45,42,43,44)        109.7173                                         !
 ! D117  D(45,42,43,55)        -73.4896                                         !
 ! D118  D(50,42,43,44)       -130.4255                                         !
 ! D119  D(50,42,43,55)         46.3677                                         !
 ! D120  D(41,42,45,46)       -156.0367                                         !
 ! D121  D(41,42,45,51)        -35.5109                                         !
 ! D122  D(41,42,45,52)         80.7005                                         !
 ! D123  D(43,42,45,46)         82.3295                                         !
 ! D124  D(43,42,45,51)       -157.1446                                         !
 ! D125  D(43,42,45,52)        -40.9332                                         !
 ! D126  D(50,42,45,46)        -37.7716                                         !
 ! D127  D(50,42,45,51)         82.7543                                         !
 ! D128  D(50,42,45,52)       -161.0343                                         !
 ! D129  D(42,43,55,56)       -170.2976                                         !
 ! D130  D(42,43,55,68)          9.0295                                         !
 ! D131  D(44,43,55,56)          6.4462                                         !
 ! D132  D(44,43,55,68)       -174.2267                                         !
 ! D133  D(42,45,46,47)        158.0961                                         !
 ! D134  D(42,45,46,48)        -23.1911                                         !
 ! D135  D(51,45,46,47)         39.184                                          !
 ! D136  D(51,45,46,48)       -142.1032                                         !
 ! D137  D(52,45,46,47)        -77.53                                           !
 ! D138  D(52,45,46,48)        101.1829                                         !
 ! D139  D(45,46,47,53)       -176.4924                                         !
 ! D140  D(45,46,47,54)        -11.057                                          !
 ! D141  D(48,46,47,53)          4.7677                                         !
 ! D142  D(48,46,47,54)        170.2031                                         !
 ! D143  D(43,55,56,57)         37.5786                                         !
 ! D144  D(43,55,56,59)        -89.1818                                         !
 ! D145  D(43,55,56,69)        151.2969                                         !
 ! D146  D(68,55,56,57)       -141.7226                                         !
 ! D147  D(68,55,56,59)         91.517                                          !
 ! D148  D(68,55,56,69)        -28.0043                                         !
 ! D149  D(55,56,57,58)       -129.9204                                         !
 ! D150  D(55,56,57,66)         50.3545                                         !
 ! D151  D(59,56,57,58)         -4.0108                                         !
 ! D152  D(59,56,57,66)        176.2642                                         !
 ! D153  D(69,56,57,58)        116.4364                                         !
 ! D154  D(69,56,57,66)        -63.2887                                         !
 ! D155  D(55,56,59,60)       -160.8538                                         !
 ! D156  D(55,56,59,70)         73.7275                                         !
 ! D157  D(55,56,59,71)        -39.6692                                         !
 ! D158  D(57,56,59,60)         75.3072                                         !
 ! D159  D(57,56,59,70)        -50.1115                                         !
 ! D160  D(57,56,59,71)       -163.5081                                         !
 ! D161  D(69,56,59,60)        -43.3048                                         !
 ! D162  D(69,56,59,70)       -168.7235                                         !
 ! D163  D(69,56,59,71)         77.8798                                         !
 ! D164  D(56,57,66,67)       -150.6321                                         !
 ! D165  D(58,57,66,67)         29.6458                                         !
 ! D166  D(56,59,60,61)       -129.5285                                         !
 ! D167  D(56,59,60,72)         -7.8443                                         !
 ! D168  D(56,59,60,73)        109.1046                                         !
 ! D169  D(70,59,60,61)         -6.426                                          !
 ! D170  D(70,59,60,72)        115.2582                                         !
 ! D171  D(70,59,60,73)       -127.7929                                         !
 ! D172  D(71,59,60,61)        110.622                                          !
 ! D173  D(71,59,60,72)       -127.6939                                         !
 ! D174  D(71,59,60,73)        -10.7449                                         !
 ! D175  D(59,60,61,62)         65.5119                                         !
 ! D176  D(59,60,61,74)       -174.36                                           !
 ! D177  D(59,60,61,75)        -54.5996                                         !
 ! D178  D(72,60,61,62)        -57.6938                                         !
 ! D179  D(72,60,61,74)         62.4342                                         !
 ! D180  D(72,60,61,75)       -177.8053                                         !
 ! D181  D(73,60,61,62)       -172.0555                                         !
 ! D182  D(73,60,61,74)        -51.9275                                         !
 ! D183  D(73,60,61,75)         67.833                                          !
 ! D184  D(60,61,62,63)        113.3949                                         !
 ! D185  D(60,61,62,76)        -30.5509                                         !
 ! D186  D(74,61,62,63)         -7.3692                                         !
 ! D187  D(74,61,62,76)       -151.315                                          !
 ! D188  D(75,61,62,63)       -125.3323                                         !
 ! D189  D(75,61,62,76)         90.722                                          !
 ! D190  D(61,62,63,64)         36.6655                                         !
 ! D191  D(61,62,63,65)       -143.6121                                         !
 ! D192  D(76,62,63,64)       -179.237                                          !
 ! D193  D(76,62,63,65)          0.4855                                         !
 ! D194  D(62,63,64,77)       -168.5798                                         !
 ! D195  D(62,63,64,78)         16.477                                          !
 ! D196  D(65,63,64,77)         11.7003                                         !
 ! D197  D(65,63,64,78)       -163.2429                                         !
 ! D198  D(62,63,65,79)       -158.2678                                         !
 ! D199  D(62,63,65,80)         13.5413                                         !
 ! D200  D(64,63,65,79)         21.4592                                         !
 ! D201  D(64,63,65,80)       -166.7317                                         !
 --------------------------------------------------------------------------------
 Symmetry turned off by external request.
 Stoichiometry    C25H41N8O6(1+)
 Framework group  C1[X(C25H41N8O6)]
 Deg. of freedom   234
 Full point group                 C1      NOp   1
                          Input orientation:                          
 ---------------------------------------------------------------------
 Center     Atomic      Atomic             Coordinates (Angstroms)
 Number     Number       Type             X           Y           Z
 ---------------------------------------------------------------------
      1          7           0       -1.952101   13.262134   -6.803478
      2          6           0       -3.026881   13.786659   -5.937878
      3          6           0       -3.666118   12.574128   -5.226561
      4          8           0       -2.968330   11.818962   -4.563714
      5          6           0       -3.993032   14.734297   -6.688874
      6          6           0       -3.262016   15.905140   -7.309447
      7          6           0       -2.857106   16.988680   -6.517057
      8          6           0       -2.923269   15.903941   -8.669409
      9          6           0       -2.136811   18.046960   -7.070209
     10          6           0       -2.203085   16.963406   -9.227063
     11          6           0       -1.807531   18.037173   -8.428306
     12          1           0       -1.500244   14.035254   -7.291359
     13          1           0       -2.536405   14.356468   -5.140298
     14          1           0       -4.747325   15.104200   -5.982195
     15          1           0       -4.517377   14.170031   -7.471663
     16          1           0       -3.116202   17.006157   -5.460614
     17          1           0       -3.243249   15.076497   -9.299562
     18          1           0       -1.839788   18.883232   -6.443733
     19          1           0       -1.966013   16.955604  -10.287808
     20          1           0       -1.256320   18.867199   -8.861140
     21          1           0       -2.347177   12.650073   -7.521892
     22          7           0       -5.003664   12.362717   -5.409348
     23          6           0       -5.717704   11.306427   -4.682275
     24          6           0       -5.083223    9.925824   -4.909405
     25          8           0       -5.090952    9.074231   -4.031540
     26          6           0       -7.200679   11.329831   -5.096218
     27          6           0       -8.088617   10.248057   -4.450965
     28          6           0       -8.040606   10.291960   -2.917020
     29          6           0       -9.527109   10.398363   -4.966199
     30          1           0       -5.563152   13.053099   -5.888837
     31          1           0       -5.617420   11.480536   -3.607133
     32          1           0       -7.607950   12.319758   -4.839736
     33          1           0       -7.254978   11.234827   -6.190326
     34          1           0       -7.710533    9.267506   -4.769687
     35          1           0       -7.049067   10.021516   -2.543599
     36          1           0       -8.301150   11.291584   -2.543817
     37          1           0       -8.759712    9.583015   -2.491937
     38          1           0       -9.957711   11.357956   -4.651851
     39          1           0       -9.572914   10.352561   -6.061272
     40          1           0      -10.167114    9.602909   -4.569338
     41          7           0       -4.563271    9.701385   -6.156073
     42          6           0       -3.496354    8.724137   -6.282535
     43          6           0       -2.404996    9.374905   -7.152766
     44          8           0       -2.630308   10.395661   -7.820094
     45          6           0       -4.016259    7.366470   -6.805243
     46          6           0       -3.123366    6.188730   -6.419631
     47          7           0       -3.726170    4.975335   -6.430508
     48          8           0       -1.927965    6.309130   -6.138325
     49          1           0       -4.445053   10.503925   -6.765239
     50          1           0       -3.076509    8.554558   -5.285113
     51          1           0       -5.012847    7.225309   -6.374986
     52          1           0       -4.138294    7.382752   -7.896159
     53          1           0       -3.187381    4.173877   -6.129595
     54          1           0       -4.726559    4.871729   -6.515088
     55          7           0       -1.190951    8.801355   -7.081747
     56          6           0       -0.008174    9.409074   -7.672977
     57          6           0       -0.093744   10.938644   -7.477866
     58          8           0        0.070697   11.747454   -8.404697
     59          6           0        0.202294    8.978841   -9.137986
     60          6           0        1.645393    9.197135   -9.669322
     61          6           0        1.717186    9.948212  -11.008106
     62          7           0        1.225432   11.322500  -10.811070
     63          6           0        1.953364   12.433247  -10.904148
     64          7           0        2.932067   12.555156  -11.820727
     65          7           0        1.694622   13.449210  -10.065689
     66          8           0       -0.348008   11.284535   -6.251093
     67          1           0       -0.870485   12.192780   -6.263123
     68          1           0       -1.127744    7.911650   -6.578716
     69          1           0        0.842213    9.070563   -7.067479
     70          1           0       -0.545810    9.496829   -9.749840
     71          1           0       -0.048221    7.915851   -9.196814
     72          1           0        2.243892    9.756995   -8.939142
     73          1           0        2.144169    8.230636   -9.798386
     74          1           0        2.748246    9.980138  -11.373207
     75          1           0        1.103610    9.453695  -11.768683
     76          1           0        0.510122   11.386730  -10.072159
     77          1           0        3.592690   13.317359  -11.785474
     78          1           0        2.980315   11.927144  -12.609109
     79          1           0        1.966488   14.397218  -10.280689
     80          1           0        1.102176   13.269960   -9.256119
 ---------------------------------------------------------------------
 Rotational constants (GHZ):           0.0936076           0.0666916           0.0419182
 Standard basis: 6-31G(d) (6D, 7F)
   667 basis functions,  1256 primitive gaussians,   667 cartesian basis functions
   147 alpha electrons      147 beta electrons
       nuclear repulsion energy      4780.0582918759 Hartrees.
 NAtoms=   80 NActive=   80 NUniq=   80 SFac= 1.00D+00 NAtFMM=   60 NAOKFM=T Big=T
 Integral buffers will be    131072 words long.
 Raffenetti 2 integral format.
 Two-electron integral symmetry is turned off.
 Nuclear repulsion after empirical dispersion term =     4779.9534389939 Hartrees.
 One-electron integrals computed using PRISM.
 NBasis=   667 RedAO= T EigKep=  4.68D-04  NBF=   667
 NBsUse=   667 1.00D-06 EigRej= -1.00D+00 NBFU=   667
 Initial guess from the checkpoint file:  "conf-879.chk"
 B after Tr=     0.000000    0.000000    0.000000
         Rot=    1.000000    0.000000    0.000000    0.000000 Ang=   0.00 deg.
 Requested convergence on RMS density matrix=1.00D-08 within 128 cycles.
 Requested convergence on MAX density matrix=1.00D-06.
 Requested convergence on             energy=1.00D-06.
 No special actions if energy rises.
 SCF Done:  E(RB3LYP) =  -1866.73821997     A.U. after    2 cycles
            NFock=  2  Conv=0.99D-08     -V/T= 2.0095

 **********************************************************************

            Population analysis using the SCF Density.

 **********************************************************************

 Alpha  occ. eigenvalues --  -19.25424 -19.24237 -19.21073 -19.20503 -19.19344
 Alpha  occ. eigenvalues --  -19.17917 -14.51637 -14.50467 -14.49307 -14.44590
 Alpha  occ. eigenvalues --  -14.44165 -14.44121 -14.43349 -14.41843 -10.47110
 Alpha  occ. eigenvalues --  -10.41940 -10.37970 -10.37632 -10.36825 -10.35127
 Alpha  occ. eigenvalues --  -10.34992 -10.33659 -10.31955 -10.31165 -10.30365
 Alpha  occ. eigenvalues --  -10.30296 -10.29261 -10.28590 -10.28288 -10.28185
 Alpha  occ. eigenvalues --  -10.27409 -10.27318 -10.27113 -10.27040 -10.26981
 Alpha  occ. eigenvalues --  -10.26101 -10.24828 -10.22787 -10.21982  -1.18809
 Alpha  occ. eigenvalues --   -1.15592  -1.12749  -1.11959  -1.11672  -1.09909
 Alpha  occ. eigenvalues --   -1.09739  -1.04798  -1.03849  -1.01501  -1.00807
 Alpha  occ. eigenvalues --   -0.99761  -0.98931  -0.98746  -0.93732  -0.90854
 Alpha  occ. eigenvalues --   -0.87918  -0.86723  -0.86477  -0.84708  -0.82609
 Alpha  occ. eigenvalues --   -0.82145  -0.79797  -0.79472  -0.77703  -0.75754
 Alpha  occ. eigenvalues --   -0.73984  -0.73416  -0.72784  -0.72472  -0.71753
 Alpha  occ. eigenvalues --   -0.69741  -0.68841  -0.68753  -0.67509  -0.66995
 Alpha  occ. eigenvalues --   -0.66367  -0.65403  -0.64774  -0.64636  -0.64234
 Alpha  occ. eigenvalues --   -0.63239  -0.62356  -0.61945  -0.61170  -0.60820
 Alpha  occ. eigenvalues --   -0.59436  -0.59057  -0.58416  -0.57930  -0.57701
 Alpha  occ. eigenvalues --   -0.56483  -0.55841  -0.55361  -0.54920  -0.54539
 Alpha  occ. eigenvalues --   -0.54245  -0.53894  -0.53742  -0.53127  -0.52935
 Alpha  occ. eigenvalues --   -0.52205  -0.51779  -0.51218  -0.51039  -0.50687
 Alpha  occ. eigenvalues --   -0.50246  -0.49998  -0.49632  -0.48958  -0.48931
 Alpha  occ. eigenvalues --   -0.48537  -0.47793  -0.47769  -0.47193  -0.46892
 Alpha  occ. eigenvalues --   -0.46604  -0.45811  -0.45738  -0.45385  -0.45081
 Alpha  occ. eigenvalues --   -0.44484  -0.44279  -0.43963  -0.43878  -0.43048
 Alpha  occ. eigenvalues --   -0.42518  -0.42395  -0.42365  -0.42145  -0.41347
 Alpha  occ. eigenvalues --   -0.39749  -0.39605  -0.38796  -0.38261  -0.38171
 Alpha  occ. eigenvalues --   -0.37980  -0.36276  -0.35736  -0.35190  -0.34603
 Alpha  occ. eigenvalues --   -0.34447  -0.34218  -0.33557  -0.33251  -0.32380
 Alpha  occ. eigenvalues --   -0.31933  -0.30988
 Alpha virt. eigenvalues --   -0.11801  -0.09376  -0.08650  -0.08417  -0.07141
 Alpha virt. eigenvalues --   -0.06910  -0.06318  -0.05808  -0.04227  -0.03393
 Alpha virt. eigenvalues --   -0.01335  -0.00678  -0.00473   0.00235   0.00635
 Alpha virt. eigenvalues --    0.01046   0.01388   0.01933   0.02646   0.02997
 Alpha virt. eigenvalues --    0.03148   0.03613   0.03701   0.04445   0.05158
 Alpha virt. eigenvalues --    0.05433   0.05843   0.05976   0.06364   0.06638
 Alpha virt. eigenvalues --    0.07181   0.07684   0.07709   0.07975   0.08085
 Alpha virt. eigenvalues --    0.08232   0.08346   0.08641   0.09369   0.09545
 Alpha virt. eigenvalues --    0.09925   0.10263   0.10523   0.11020   0.11427
 Alpha virt. eigenvalues --    0.11705   0.11800   0.12394   0.12611   0.12754
 Alpha virt. eigenvalues --    0.12966   0.13123   0.13953   0.14430   0.14924
 Alpha virt. eigenvalues --    0.15209   0.15494   0.15974   0.16163   0.17082
 Alpha virt. eigenvalues --    0.17668   0.18106   0.18381   0.18663   0.18835
 Alpha virt. eigenvalues --    0.18939   0.19748   0.20151   0.20648   0.22193
 Alpha virt. eigenvalues --    0.22555   0.23722   0.24051   0.24770   0.25244
 Alpha virt. eigenvalues --    0.25410   0.26117   0.26347   0.26670   0.28317
 Alpha virt. eigenvalues --    0.28759   0.30226   0.30610   0.31298   0.33479
 Alpha virt. eigenvalues --    0.34459   0.36804   0.37592   0.38197   0.39574
 Alpha virt. eigenvalues --    0.40390   0.42093   0.42134   0.42930   0.43128
 Alpha virt. eigenvalues --    0.43761   0.44337   0.44653   0.45167   0.45619
 Alpha virt. eigenvalues --    0.45705   0.46143   0.46457   0.46754   0.46802
 Alpha virt. eigenvalues --    0.47001   0.47658   0.47971   0.48238   0.48875
 Alpha virt. eigenvalues --    0.49339   0.49587   0.49886   0.50059   0.50915
 Alpha virt. eigenvalues --    0.51225   0.51438   0.51520   0.51989   0.52363
 Alpha virt. eigenvalues --    0.52732   0.52915   0.53168   0.53324   0.53914
 Alpha virt. eigenvalues --    0.54150   0.54545   0.55051   0.55355   0.55934
 Alpha virt. eigenvalues --    0.56220   0.56661   0.56843   0.57216   0.57851
 Alpha virt. eigenvalues --    0.58451   0.58630   0.59141   0.59409   0.59582
 Alpha virt. eigenvalues --    0.60104   0.61054   0.61289   0.61864   0.62286
 Alpha virt. eigenvalues --    0.62788   0.62942   0.63711   0.64515   0.65058
 Alpha virt. eigenvalues --    0.65707   0.65880   0.66446   0.66777   0.67030
 Alpha virt. eigenvalues --    0.69019   0.69277   0.69796   0.70489   0.70893
 Alpha virt. eigenvalues --    0.70962   0.72517   0.72567   0.72832   0.73411
 Alpha virt. eigenvalues --    0.73607   0.74023   0.74257   0.74537   0.74836
 Alpha virt. eigenvalues --    0.75209   0.75912   0.76039   0.76208   0.76368
 Alpha virt. eigenvalues --    0.76565   0.77023   0.77212   0.77908   0.78081
 Alpha virt. eigenvalues --    0.78489   0.78749   0.78895   0.79770   0.79970
 Alpha virt. eigenvalues --    0.80232   0.80756   0.80923   0.81204   0.81825
 Alpha virt. eigenvalues --    0.82148   0.82593   0.82830   0.83532   0.83924
 Alpha virt. eigenvalues --    0.84069   0.84424   0.84891   0.85565   0.85892
 Alpha virt. eigenvalues --    0.86060   0.86321   0.86955   0.87326   0.87485
 Alpha virt. eigenvalues --    0.87596   0.88246   0.88523   0.88900   0.89732
 Alpha virt. eigenvalues --    0.90000   0.90590   0.90683   0.91384   0.91414
 Alpha virt. eigenvalues --    0.92308   0.92632   0.93327   0.94204   0.94850
 Alpha virt. eigenvalues --    0.95927   0.96413   0.96670   0.97240   0.97957
 Alpha virt. eigenvalues --    0.98530   1.00205   1.00522   1.00861   1.02507
 Alpha virt. eigenvalues --    1.03106   1.03764   1.04215   1.04648   1.05000
 Alpha virt. eigenvalues --    1.07015   1.07999   1.08290   1.08695   1.09231
 Alpha virt. eigenvalues --    1.09786   1.10201   1.11974   1.12518   1.13536
 Alpha virt. eigenvalues --    1.14298   1.14878   1.16280   1.16501   1.17903
 Alpha virt. eigenvalues --    1.18442   1.18856   1.19765   1.20673   1.21023
 Alpha virt. eigenvalues --    1.21930   1.22719   1.23129   1.23842   1.24360
 Alpha virt. eigenvalues --    1.25595   1.26546   1.27644   1.28279   1.29400
 Alpha virt. eigenvalues --    1.30299   1.31587   1.32184   1.33212   1.33531
 Alpha virt. eigenvalues --    1.34470   1.35204   1.35385   1.36713   1.36893
 Alpha virt. eigenvalues --    1.37513   1.39249   1.39436   1.39796   1.39964
 Alpha virt. eigenvalues --    1.40437   1.40650   1.41730   1.42028   1.42462
 Alpha virt. eigenvalues --    1.43192   1.43593   1.44871   1.47165   1.47901
 Alpha virt. eigenvalues --    1.49034   1.50146   1.50576   1.52058   1.53021
 Alpha virt. eigenvalues --    1.53878   1.54241   1.55214   1.56452   1.56952
 Alpha virt. eigenvalues --    1.57572   1.58456   1.59589   1.59852   1.59920
 Alpha virt. eigenvalues --    1.61233   1.62420   1.63544   1.64284   1.65540
 Alpha virt. eigenvalues --    1.67064   1.67620   1.68374   1.69048   1.69630
 Alpha virt. eigenvalues --    1.70190   1.70921   1.71167   1.71351   1.71771
 Alpha virt. eigenvalues --    1.72183   1.72554   1.73224   1.73323   1.73742
 Alpha virt. eigenvalues --    1.74399   1.74707   1.75462   1.75982   1.76737
 Alpha virt. eigenvalues --    1.77137   1.78280   1.78879   1.79531   1.79641
 Alpha virt. eigenvalues --    1.80001   1.80647   1.81401   1.81966   1.83118
 Alpha virt. eigenvalues --    1.83652   1.84226   1.85062   1.85471   1.85959
 Alpha virt. eigenvalues --    1.86329   1.86720   1.86904   1.87291   1.88030
 Alpha virt. eigenvalues --    1.88497   1.89322   1.89830   1.90544   1.91444
 Alpha virt. eigenvalues --    1.91613   1.92817   1.93662   1.94169   1.94433
 Alpha virt. eigenvalues --    1.94649   1.95288   1.96305   1.97052   1.97477
 Alpha virt. eigenvalues --    1.97650   1.98389   1.99132   1.99674   1.99942
 Alpha virt. eigenvalues --    2.00486   2.01161   2.02338   2.02783   2.03785
 Alpha virt. eigenvalues --    2.04204   2.05409   2.05975   2.06060   2.06922
 Alpha virt. eigenvalues --    2.07171   2.07840   2.08642   2.09126   2.09298
 Alpha virt. eigenvalues --    2.09920   2.12569   2.12914   2.13412   2.14037
 Alpha virt. eigenvalues --    2.15480   2.15923   2.16628   2.17987   2.18556
 Alpha virt. eigenvalues --    2.19965   2.20222   2.20234   2.20980   2.21850
 Alpha virt. eigenvalues --    2.22866   2.23490   2.24668   2.25735   2.26710
 Alpha virt. eigenvalues --    2.27669   2.27791   2.29028   2.30015   2.30786
 Alpha virt. eigenvalues --    2.32051   2.32996   2.33376   2.34347   2.35408
 Alpha virt. eigenvalues --    2.36445   2.37905   2.38707   2.38990   2.39394
 Alpha virt. eigenvalues --    2.40289   2.41668   2.42052   2.42724   2.43325
 Alpha virt. eigenvalues --    2.44922   2.45514   2.46088   2.46373   2.47605
 Alpha virt. eigenvalues --    2.48493   2.49346   2.50176   2.50312   2.50779
 Alpha virt. eigenvalues --    2.52734   2.53197   2.53732   2.55433   2.55663
 Alpha virt. eigenvalues --    2.56466   2.57189   2.58024   2.58476   2.59583
 Alpha virt. eigenvalues --    2.60272   2.61161   2.61594   2.64221   2.64675
 Alpha virt. eigenvalues --    2.65662   2.66433   2.66662   2.66922   2.67714
 Alpha virt. eigenvalues --    2.68830   2.68933   2.74091   2.75245   2.76834
 Alpha virt. eigenvalues --    2.77532   2.79835   2.80910   2.84131   2.85882
 Alpha virt. eigenvalues --    2.87959   2.88537   2.90064   2.92887   2.94944
 Alpha virt. eigenvalues --    2.95213   2.95771   2.96772   2.97782   2.98423
 Alpha virt. eigenvalues --    2.99585   3.03334   3.06658   3.12018   3.12846
 Alpha virt. eigenvalues --    3.32687   3.65795   3.72662   3.72829   3.84338
 Alpha virt. eigenvalues --    3.90397   3.91593   3.93610   3.95430   4.00406
 Alpha virt. eigenvalues --    4.01276   4.02952   4.03948   4.06810   4.07079
 Alpha virt. eigenvalues --    4.08906   4.09570   4.11690   4.14487   4.17957
 Alpha virt. eigenvalues --    4.19440   4.22343   4.23581   4.25286   4.25511
 Alpha virt. eigenvalues --    4.26445   4.29000   4.30787   4.32855   4.34636
 Alpha virt. eigenvalues --    4.38283   4.41968   4.43335   4.50395   4.54538
 Alpha virt. eigenvalues --    4.58721   4.60391   4.61309   4.62337   4.71433
          Condensed to atoms (all electrons):
 Mulliken charges:
               1
     1  N   -0.799467
     2  C   -0.049306
     3  C    0.619612
     4  O   -0.501974
     5  C   -0.393544
     6  C    0.155135
     7  C   -0.176458
     8  C   -0.198765
     9  C   -0.127951
    10  C   -0.134074
    11  C   -0.130234
    12  H    0.332373
    13  H    0.186540
    14  H    0.165752
    15  H    0.151317
    16  H    0.141225
    17  H    0.128757
    18  H    0.152181
    19  H    0.135257
    20  H    0.145729
    21  H    0.359859
    22  N   -0.665519
    23  C   -0.007627
    24  C    0.629592
    25  O   -0.521805
    26  C   -0.306898
    27  C   -0.074772
    28  C   -0.460815
    29  C   -0.445142
    30  H    0.344671
    31  H    0.195302
    32  H    0.142452
    33  H    0.138706
    34  H    0.143934
    35  H    0.179054
    36  H    0.134466
    37  H    0.150869
    38  H    0.144097
    39  H    0.138245
    40  H    0.154685
    41  N   -0.613257
    42  C   -0.047816
    43  C    0.623256
    44  O   -0.580837
    45  C   -0.377550
    46  C    0.626656
    47  N   -0.737277
    48  O   -0.533341
    49  H    0.345001
    50  H    0.216643
    51  H    0.194547
    52  H    0.184471
    53  H    0.358955
    54  H    0.354151
    55  N   -0.614332
    56  C   -0.028559
    57  C    0.631163
    58  O   -0.578790
    59  C   -0.290595
    60  C   -0.287887
    61  C   -0.173348
    62  N   -0.599181
    63  C    0.777325
    64  N   -0.748927
    65  N   -0.772756
    66  O   -0.559945
    67  H    0.481497
    68  H    0.396568
    69  H    0.187599
    70  H    0.171426
    71  H    0.175285
    72  H    0.159867
    73  H    0.178485
    74  H    0.166202
    75  H    0.189974
    76  H    0.411570
    77  H    0.378289
    78  H    0.383438
    79  H    0.368120
    80  H    0.408454
 Sum of Mulliken charges =   1.00000
 Mulliken charges with hydrogens summed into heavy atoms:
               1
     1  N   -0.107235
     2  C    0.137234
     3  C    0.619612
     4  O   -0.501974
     5  C   -0.076476
     6  C    0.155135
     7  C   -0.035233
     8  C   -0.070008
     9  C    0.024230
    10  C    0.001183
    11  C    0.015495
    22  N   -0.320847
    23  C    0.187675
    24  C    0.629592
    25  O   -0.521805
    26  C   -0.025740
    27  C    0.069162
    28  C    0.003575
    29  C   -0.008114
    41  N   -0.268257
    42  C    0.168827
    43  C    0.623256
    44  O   -0.580837
    45  C    0.001468
    46  C    0.626656
    47  N   -0.024171
    48  O   -0.533341
    55  N   -0.217764
    56  C    0.159040
    57  C    0.631163
    58  O   -0.578790
    59  C    0.056116
    60  C    0.050466
    61  C    0.182828
    62  N   -0.187610
    63  C    0.777325
    64  N    0.012800
    65  N    0.003818
    66  O   -0.078448
 Electronic spatial extent (au):  <R**2>=         220274.4484
 Charge=              1.0000 electrons
 Dipole moment (field-independent basis, Debye):
    X=             -1.0719    Y=             57.1941    Z=            -48.9989  Tot=             75.3207
 Quadrupole moment (field-independent basis, Debye-Ang):
   XX=           -148.5838   YY=            536.1075   ZZ=            273.3649
   XY=              6.9841   XZ=            -31.2995   YZ=           -578.3317
 Traceless Quadrupole moment (field-independent basis, Debye-Ang):
   XX=           -368.8800   YY=            315.8113   ZZ=             53.0687
   XY=              6.9841   XZ=            -31.2995   YZ=           -578.3317
 Octapole moment (field-independent basis, Debye-Ang**2):
  XXX=           1520.7613  YYY=           2991.5866  ZZZ=           -462.8386  XYY=            705.9058
  XXY=          -1756.1173  XXZ=           1001.5727  XZZ=           1298.3627  YZZ=           3361.8439
  YYZ=          -5834.4276  XYZ=           -567.4522
 Hexadecapole moment (field-independent basis, Debye-Ang**3):
 XXXX=         -19781.5784 YYYY=         -33917.3138 ZZZZ=         -16894.4553 XXXY=          17399.5311
 XXXZ=          -7861.2476 YYYX=          20765.8226 YYYZ=         -44921.0179 ZZZX=         -19421.3656
 ZZZY=          -7608.3417 XXYY=         -25643.1087 XXZZ=         -11032.3212 YYZZ=          31307.8740
 XXYZ=          12161.9973 YYXZ=         -10841.9659 ZZXY=          16636.9375
 N-N= 4.779953438994D+03 E-N=-1.388147000329D+04  KE= 1.849235489418D+03
 Unable to Open any file for archive entry.
 1\1\GINC-LAC-308\SP\RB3LYP\6-31G(d)\C25H41N8O6(1+)\KENGMITH\11-Jun-202
 2\0\\# B3LYP/6-31G* empiricaldispersion=gd3 guess=read geom=check nosy
 mm integral(ultrafinegrid)\\Candidate Structure: Conf:879 Charge calc 
 in gas phase\\1,1\N,0,-1.9521014166,13.2621339501,-6.8034775653\C,0,-3
 .0268805193,13.7866585956,-5.9378780582\C,0,-3.6661181171,12.574127737
 7,-5.2265610889\O,0,-2.9683295021,11.8189623346,-4.5637136053\C,0,-3.9
 930321805,14.7342972874,-6.6888744157\C,0,-3.2620156348,15.9051396533,
 -7.3094465567\C,0,-2.857106418,16.9886800986,-6.5170569378\C,0,-2.9232
 691022,15.9039410869,-8.6694094176\C,0,-2.1368106347,18.0469600495,-7.
 0702091083\C,0,-2.203085264,16.9634057163,-9.2270625095\C,0,-1.8075306
 413,18.0371725962,-8.4283056284\H,0,-1.5002436023,14.0352536697,-7.291
 3594833\H,0,-2.536405355,14.3564682673,-5.1402979403\H,0,-4.7473246004
 ,15.1042002594,-5.9821946837\H,0,-4.5173771498,14.1700312625,-7.471663
 4534\H,0,-3.1162018686,17.006157142,-5.4606139842\H,0,-3.2432485437,15
 .0764969634,-9.2995624635\H,0,-1.8397882677,18.8832323697,-6.443733358
 5\H,0,-1.9660133309,16.9556038677,-10.2878082435\H,0,-1.2563201518,18.
 8671988048,-8.8611396681\H,0,-2.3471766523,12.6500725251,-7.5218920384
 \N,0,-5.0036635884,12.3627173608,-5.4093480286\C,0,-5.7177042643,11.30
 6426626,-4.682274724\C,0,-5.0832231293,9.9258239626,-4.9094053019\O,0,
 -5.0909524323,9.0742310234,-4.0315400406\C,0,-7.2006787003,11.32983125
 62,-5.0962181162\C,0,-8.088617265,10.2480574776,-4.4509650291\C,0,-8.0
 406057088,10.2919603684,-2.9170196521\C,0,-9.5271093506,10.3983627666,
 -4.966198756\H,0,-5.563151851,13.0530988078,-5.8888374484\H,0,-5.61742
 0076,11.4805358704,-3.6071334695\H,0,-7.6079501999,12.3197576035,-4.83
 97358382\H,0,-7.2549778495,11.2348266673,-6.190325628\H,0,-7.710532991
 6,9.2675060924,-4.7696869478\H,0,-7.0490672279,10.0215162039,-2.543598
 9242\H,0,-8.3011496993,11.2915836356,-2.5438166633\H,0,-8.7597122266,9
 .5830150781,-2.4919367175\H,0,-9.9577108389,11.3579561318,-4.651851493
 3\H,0,-9.5729142277,10.3525605758,-6.0612718586\H,0,-10.1671144051,9.6
 029089148,-4.5693384702\N,0,-4.5632705867,9.7013852816,-6.1560734828\C
 ,0,-3.4963536064,8.7241368934,-6.2825350512\C,0,-2.4049956898,9.374904
 8256,-7.1527663495\O,0,-2.6303078665,10.3956611312,-7.8200938736\C,0,-
 4.0162590407,7.3664698296,-6.8052428832\C,0,-3.1233657242,6.1887303454
 ,-6.419630922\N,0,-3.7261699866,4.9753350403,-6.4305080373\O,0,-1.9279
 652733,6.3091301429,-6.1383252216\H,0,-4.4450532217,10.5039246894,-6.7
 65238925\H,0,-3.0765088721,8.5545575586,-5.2851130641\H,0,-5.012847055
 7,7.2253086986,-6.3749859573\H,0,-4.138294443,7.3827522523,-7.89615910
 2\H,0,-3.1873806757,4.1738768399,-6.1295951634\H,0,-4.7265593149,4.871
 7294968,-6.5150877134\N,0,-1.1909514798,8.8013553519,-7.0817474692\C,0
 ,-0.0081740643,9.409074035,-7.6729774712\C,0,-0.0937443491,10.93864363
 69,-7.4778658574\O,0,0.0706966331,11.7474544848,-8.4046974188\C,0,0.20
 22938316,8.9788409965,-9.1379861248\C,0,1.6453928825,9.1971351293,-9.6
 693221057\C,0,1.717186342,9.948211648,-11.0081061659\N,0,1.225431797,1
 1.3224998942,-10.8110695519\C,0,1.9533637619,12.4332470919,-10.9041479
 9\N,0,2.9320673957,12.5551560005,-11.8207274824\N,0,1.6946220698,13.44
 92095385,-10.0656885522\O,0,-0.3480075355,11.2845353591,-6.2510931823\
 H,0,-0.8704850047,12.1927797761,-6.2631230615\H,0,-1.1277435053,7.9116
 501021,-6.578715575\H,0,0.8422132664,9.0705632065,-7.0674794655\H,0,-0
 .5458103455,9.4968286142,-9.7498404287\H,0,-0.0482211686,7.9158505927,
 -9.196814495\H,0,2.2438917633,9.7569953458,-8.9391423085\H,0,2.1441689
 813,8.2306361548,-9.7983858141\H,0,2.7482457946,9.9801382555,-11.37320
 65786\H,0,1.1036098921,9.4536950133,-11.7686825136\H,0,0.5101223704,11
 .3867302765,-10.0721593608\H,0,3.5926904616,13.3173588737,-11.78547355
 78\H,0,2.9803149196,11.9271437779,-12.6091088512\H,0,1.9664880793,14.3
 972176426,-10.2806893925\H,0,1.1021760934,13.2699598554,-9.2561186127\
 \Version=ES64L-G16RevC.01\HF=-1866.73822\RMSD=9.881e-09\Dipole=4.46451
 44,1.0311655,-5.8694634\Quadrupole=-274.253247,234.7979552,39.4552919,
 5.1925219,-23.2704148,-429.9754437\PG=C01 [X(C25H41N8O6)]\\@
 The archive entry for this job was punched.


 FORGIVE MY NONSENSE AS I ALSO FORGIVE THOSE WHO THINK THEY TALK SENSE

                                                       -- ROBERT FROST
 Job cpu time:       0 days  0 hours  3 minutes 23.6 seconds.
 Elapsed time:       0 days  0 hours  0 minutes 51.8 seconds.
 File lengths (MBytes):  RWF=    344 Int=      0 D2E=      0 Chk=     56 Scr=     16
 Normal termination of Gaussian 16 at Sat Jun 11 21:07:15 2022.
