 Entering Gaussian System, Link 0=/opt/software/Gaussian/g16-AVX-C.01/g16/g16
 Input=charge-conf-879.com
 Output=charge-conf-879.log
 Initial command:
 /opt/software/Gaussian/g16-AVX-C.01/g16/l1.exe "/mnt/gs18/scratch/users/kengmith/Gau-35064.inp" -scrdir="/mnt/gs18/scratch/users/kengmith/"
 Entering Link 1 = /opt/software/Gaussian/g16-AVX-C.01/g16/l1.exe PID=     35079.
  
 Copyright (c) 1988-2019, Gaussian, Inc.  All Rights Reserved.
  
 This is part of the Gaussian(R) 16 program.  It is based on
 the Gaussian(R) 09 system (copyright 2009, Gaussian, Inc.),
 the Gaussian(R) 03 system (copyright 2003, Gaussian, Inc.),
 the Gaussian(R) 98 system (copyright 1998, Gaussian, Inc.),
 the Gaussian(R) 94 system (copyright 1995, Gaussian, Inc.),
 the Gaussian 92(TM) system (copyright 1992, Gaussian, Inc.),
 the Gaussian 90(TM) system (copyright 1990, Gaussian, Inc.),
 the Gaussian 88(TM) system (copyright 1988, Gaussian, Inc.),
 the Gaussian 86(TM) system (copyright 1986, Carnegie Mellon
 University), and the Gaussian 82(TM) system (copyright 1983,
 Carnegie Mellon University). Gaussian is a federally registered
 trademark of Gaussian, Inc.
  
 This software contains proprietary and confidential information,
 including trade secrets, belonging to Gaussian, Inc.
  
 This software is provided under written license and may be
 used, copied, transmitted, or stored only in accord with that
 written license.
  
 The following legend is applicable only to US Government
 contracts under FAR:
  
                    RESTRICTED RIGHTS LEGEND
  
 Use, reproduction and disclosure by the US Government is
 subject to restrictions as set forth in subparagraphs (a)
 and (c) of the Commercial Computer Software - Restricted
 Rights clause in FAR 52.227-19.
  
 Gaussian, Inc.
 340 Quinnipiac St., Bldg. 40, Wallingford CT 06492
  
  
 ---------------------------------------------------------------
 Warning -- This program may not be used in any manner that
 competes with the business of Gaussian, Inc. or will provide
 assistance to any competitor of Gaussian, Inc.  The licensee
 of this program is prohibited from giving any competitor of
 Gaussian, Inc. access to this program.  By using this program,
 the user acknowledges that Gaussian, Inc. is engaged in the
 business of creating and licensing software in the field of
 computational chemistry and represents and warrants to the
 licensee that it is not a competitor of Gaussian, Inc. and that
 it will not use this program in any manner prohibited above.
 ---------------------------------------------------------------
  

 Cite this work as:
 Gaussian 16, Revision C.01,
 M. J. Frisch, G. W. Trucks, H. B. Schlegel, G. E. Scuseria, 
 M. A. Robb, J. R. Cheeseman, G. Scalmani, V. Barone, 
 G. A. Petersson, H. Nakatsuji, X. Li, M. Caricato, A. V. Marenich, 
 J. Bloino, B. G. Janesko, R. Gomperts, B. Mennucci, H. P. Hratchian, 
 J. V. Ortiz, A. F. Izmaylov, J. L. Sonnenberg, D. Williams-Young, 
 F. Ding, F. Lipparini, F. Egidi, J. Goings, B. Peng, A. Petrone, 
 T. Henderson, D. Ranasinghe, V. G. Zakrzewski, J. Gao, N. Rega, 
 G. Zheng, W. Liang, M. Hada, M. Ehara, K. Toyota, R. Fukuda, 
 J. Hasegawa, M. Ishida, T. Nakajima, Y. Honda, O. Kitao, H. Nakai, 
 T. Vreven, K. Throssell, J. A. Montgomery, Jr., J. E. Peralta, 
 F. Ogliaro, M. J. Bearpark, J. J. Heyd, E. N. Brothers, K. N. Kudin, 
 V. N. Staroverov, T. A. Keith, R. Kobayashi, J. Normand, 
 K. Raghavachari, A. P. Rendell, J. C. Burant, S. S. Iyengar, 
 J. Tomasi, M. Cossi, J. M. Millam, M. Klene, C. Adamo, R. Cammi, 
 J. W. Ochterski, R. L. Martin, K. Morokuma, O. Farkas, 
 J. B. Foresman, and D. J. Fox, Gaussian, Inc., Wallingford CT, 2019.
 
 ******************************************
 Gaussian 16:  ES64L-G16RevC.01  3-Jul-2019
                24-May-2022 
 ******************************************
 %mem=8gb
 %nproc=4
 Will use up to    4 processors via shared memory.
 %chk=conf-879.chk
 ----------------------------------------------------------------------
 # B3LYP/6-31G* empiricaldispersion=gd3 guess=read geom=check nosymm in
 tegral(ultrafinegrid)
 ----------------------------------------------------------------------
 1/29=2,38=1,172=1/1;
 2/12=2,15=1,40=1/2;
 3/5=1,6=6,7=1,11=2,14=-4,25=1,30=1,74=-5,75=-5,116=-2,124=31/1,2,3;
 4/5=1/1;
 5/5=2,38=6/2;
 6/7=2,8=2,9=2,10=2,28=1/1;
 99/5=1,9=1/99;
 ------------------------------------------------------
 Candidate Structure: Conf:879 Charge calc in gas phase
 ------------------------------------------------------
 Structure from the checkpoint file:  "conf-879.chk"
 Charge =  1 Multiplicity = 1
 Redundant internal coordinates found in file.  (old form).
 N,0,-93.9334338801,-14.5158084739,2.9662542719
 C,0,-93.5104130354,-13.0774935454,3.1507695483
 C,0,-93.6247395056,-12.6453179926,4.6343341876
 O,0,-92.629218293,-12.2268275086,5.202537674
 C,0,-94.2715927083,-12.1676898524,2.1504032489
 C,0,-95.750164565,-12.4147036059,2.0676332013
 C,0,-96.7540586995,-11.7507783878,2.73768192
 C,0,-96.3946433956,-13.4359486741,1.2742066462
 C,0,-97.7898420372,-13.3463640265,1.5306290288
 C,0,-95.934916817,-14.4036375444,0.3609388204
 N,0,-97.972722972,-12.3113392361,2.4256335172
 C,0,-98.7183581492,-14.199218238,0.9257848761
 C,0,-96.8525555682,-15.2524791507,-0.2436782721
 C,0,-98.2308590551,-15.1542954723,0.0418829331
 H,0,-93.6126807776,-15.1539086658,3.7467234374
 H,0,-92.4392033578,-13.040852957,2.9473686341
 H,0,-94.0560895613,-11.132507654,2.4353230138
 H,0,-93.8233067102,-12.3100416578,1.1582917634
 H,0,-96.6871067167,-10.907057609,3.4094486216
 H,0,-98.8664979939,-11.9641929706,2.7393522412
 H,0,-94.8808314647,-14.4617568492,0.093848602
 H,0,-99.7815195995,-14.1121027369,1.131129384
 H,0,-96.5100765484,-15.993371132,-0.9600499762
 H,0,-98.9254937794,-15.827711142,-0.4510788227
 H,0,-94.9641363925,-14.6374336,3.0444302072
 H,0,-93.6414018821,-14.878663518,2.0561204529
 N,0,-94.8560033041,-12.7362613827,5.1999527934
 C,0,-95.1458253243,-12.3470602476,6.5880783758
 C,0,-94.3855072471,-13.2724078603,7.5763211392
 O,0,-93.5049188545,-12.8443140245,8.3023847742
 C,0,-94.8739084564,-10.8580065493,6.9097033369
 C,0,-95.5537625485,-10.4933357807,8.2477683897
 C,0,-95.3540196944,-9.9453068707,5.7748291158
 C,0,-95.0841258316,-9.1578881522,8.834661505
 H,0,-95.6352165976,-13.0382530685,4.6306870254
 H,0,-96.2195104664,-12.5264308498,6.7053279364
 H,0,-93.7923409347,-10.7487975604,7.0243582713
 H,0,-96.6451133341,-10.4730740135,8.0997926206
 H,0,-95.3471706439,-11.2786972215,8.9816708686
 H,0,-94.8163967285,-10.1377725328,4.8411562911
 H,0,-96.4306179359,-10.0729702606,5.5914661011
 H,0,-95.1887826326,-8.8950175705,6.029209282
 H,0,-94.0003929208,-9.1697676159,8.9967156074
 H,0,-95.5649106079,-8.9694277587,9.8005385452
 H,0,-95.3188126114,-8.3101894925,8.1817579677
 N,0,-94.7348438399,-14.6073094175,7.6609703095
 C,0,-95.6410703351,-15.4633415514,6.8937293841
 C,0,-95.2315918127,-15.5586875408,5.4050823167
 O,0,-96.0755371766,-15.2839824994,4.5063043093
 C,0,-97.1313902967,-15.1727142467,7.1660988666
 C,0,-98.1751536789,-16.0814331554,6.4774606774
 C,0,-97.9078103894,-17.5946262451,6.5005176744
 N,0,-96.8360186579,-17.9415943834,5.5451856492
 C,0,-95.9061529509,-18.8819146304,5.7270552742
 N,0,-96.1811011061,-19.949350405,6.4996758554
 N,0,-94.7066525381,-18.7481825119,5.1456642938
 O,0,-94.0508486607,-15.9888402822,5.187077451
 H,0,-94.0874073222,-15.0900160312,8.2714953565
 H,0,-95.4291345615,-16.4652339171,7.2845141182
 H,0,-97.2606206418,-15.2252788351,8.2536641412
 H,0,-97.3673721448,-14.1450018942,6.8770830494
 H,0,-98.300895358,-15.7691818317,5.4367499772
 H,0,-99.1397143457,-15.922313879,6.9728427775
 H,0,-97.6007814403,-17.9267368887,7.4996232492
 H,0,-98.8236496432,-18.1336868878,6.2309344396
 H,0,-96.6529329143,-17.2454085669,4.8225300331
 H,0,-95.4537795571,-20.5850753511,6.7934727039
 H,0,-97.1364959568,-20.2139021004,6.6928371832
 H,0,-94.329338896,-17.7967358578,5.0011757394
 H,0,-94.0565922255,-19.521941916,5.1429958126
 Recover connectivity data from disk.
                           ----------------------------
                           !    Current Parameters    !
                           ! (Angstroms and Degrees)  !
 --------------------------                            --------------------------
 ! Name  Definition              Value                                          !
 --------------------------------------------------------------------------------
 ! R1    R(1,2)                  1.5105                                         !
 ! R2    R(1,15)                 1.0579                                         !
 ! R3    R(1,25)                 1.0408                                         !
 ! R4    R(1,26)                 1.0224                                         !
 ! R5    R(2,3)                  1.5495                                         !
 ! R6    R(2,5)                  1.5517                                         !
 ! R7    R(2,16)                 1.091                                          !
 ! R8    R(3,4)                  1.2203                                         !
 ! R9    R(3,27)                 1.358                                          !
 ! R10   R(5,6)                  1.5013                                         !
 ! R11   R(5,17)                 1.0951                                         !
 ! R12   R(5,18)                 1.098                                          !
 ! R13   R(6,7)                  1.3775                                         !
 ! R14   R(6,8)                  1.4449                                         !
 ! R15   R(7,11)                 1.3772                                         !
 ! R16   R(7,19)                 1.0806                                         !
 ! R17   R(8,9)                  1.4214                                         !
 ! R18   R(8,10)                 1.4078                                         !
 ! R19   R(9,11)                 1.3805                                         !
 ! R20   R(9,12)                 1.3983                                         !
 ! R21   R(10,13)                1.3886                                         !
 ! R22   R(10,21)                1.0889                                         !
 ! R23   R(11,20)                1.0088                                         !
 ! R24   R(12,14)                1.3896                                         !
 ! R25   R(12,22)                1.0863                                         !
 ! R26   R(13,14)                1.411                                          !
 ! R27   R(13,23)                1.086                                          !
 ! R28   R(14,24)                1.0858                                         !
 ! R29   R(27,28)                1.4705                                         !
 ! R30   R(27,35)                1.0112                                         !
 ! R31   R(28,29)                1.5527                                         !
 ! R32   R(28,31)                1.5475                                         !
 ! R33   R(28,36)                1.0949                                         !
 ! R34   R(29,30)                1.219                                          !
 ! R35   R(29,46)                1.3824                                         !
 ! R36   R(31,32)                1.5445                                         !
 ! R37   R(31,33)                1.5334                                         !
 ! R38   R(31,37)                1.0931                                         !
 ! R39   R(32,34)                1.5325                                         !
 ! R40   R(32,38)                1.1015                                         !
 ! R41   R(32,39)                1.0946                                         !
 ! R42   R(33,40)                1.0945                                         !
 ! R43   R(33,41)                1.0995                                         !
 ! R44   R(33,42)                1.0932                                         !
 ! R45   R(34,43)                1.0958                                         !
 ! R46   R(34,44)                1.0953                                         !
 ! R47   R(34,45)                1.0954                                         !
 ! R48   R(46,47)                1.4638                                         !
 ! R49   R(46,58)                1.0124                                         !
 ! R50   R(47,48)                1.5469                                         !
 ! R51   R(47,50)                1.5426                                         !
 ! R52   R(47,59)                1.0961                                         !
 ! R53   R(48,49)                1.2631                                         !
 ! R54   R(48,57)                1.2754                                         !
 ! R55   R(50,51)                1.5458                                         !
 ! R56   R(50,60)                1.0965                                         !
 ! R57   R(50,61)                1.0933                                         !
 ! R58   R(51,52)                1.5368                                         !
 ! R59   R(51,62)                1.0938                                         !
 ! R60   R(51,63)                1.0959                                         !
 ! R61   R(52,53)                1.4771                                         !
 ! R62   R(52,64)                1.0967                                         !
 ! R63   R(52,65)                1.0964                                         !
 ! R64   R(53,54)                1.3349                                         !
 ! R65   R(53,66)                1.02                                           !
 ! R66   R(54,55)                1.3461                                         !
 ! R67   R(54,56)                1.3397                                         !
 ! R68   R(55,67)                1.0097                                         !
 ! R69   R(55,68)                1.01                                           !
 ! R70   R(56,69)                1.0337                                         !
 ! R71   R(56,70)                1.0106                                         !
 ! A1    A(2,1,15)             113.5345                                         !
 ! A2    A(2,1,25)             112.2981                                         !
 ! A3    A(2,1,26)             111.5113                                         !
 ! A4    A(15,1,25)            100.0412                                         !
 ! A5    A(15,1,26)            110.8588                                         !
 ! A6    A(25,1,26)            107.9542                                         !
 ! A7    A(1,2,3)              111.2156                                         !
 ! A8    A(1,2,5)              110.0085                                         !
 ! A9    A(1,2,16)             106.5098                                         !
 ! A10   A(3,2,5)              114.6789                                         !
 ! A11   A(3,2,16)             103.9806                                         !
 ! A12   A(5,2,16)             109.9846                                         !
 ! A13   A(2,3,4)              118.7702                                         !
 ! A14   A(2,3,27)             116.5521                                         !
 ! A15   A(4,3,27)             124.6598                                         !
 ! A16   A(2,5,6)              114.9717                                         !
 ! A17   A(2,5,17)             106.8565                                         !
 ! A18   A(2,5,18)             107.8322                                         !
 ! A19   A(6,5,17)             111.3261                                         !
 ! A20   A(6,5,18)             109.3265                                         !
 ! A21   A(17,5,18)            106.0996                                         !
 ! A22   A(5,6,7)              127.7052                                         !
 ! A23   A(5,6,8)              125.8609                                         !
 ! A24   A(7,6,8)              106.4209                                         !
 ! A25   A(6,7,11)             109.7844                                         !
 ! A26   A(6,7,19)             129.3141                                         !
 ! A27   A(11,7,19)            120.8969                                         !
 ! A28   A(6,8,9)              107.1097                                         !
 ! A29   A(6,8,10)             134.139                                          !
 ! A30   A(9,8,10)             118.7442                                         !
 ! A31   A(8,9,11)             107.1124                                         !
 ! A32   A(8,9,12)             122.3647                                         !
 ! A33   A(11,9,12)            130.5222                                         !
 ! A34   A(8,10,13)            119.1348                                         !
 ! A35   A(8,10,21)            120.7912                                         !
 ! A36   A(13,10,21)           120.0176                                         !
 ! A37   A(7,11,9)             109.5627                                         !
 ! A38   A(7,11,20)            124.9895                                         !
 ! A39   A(9,11,20)            125.2374                                         !
 ! A40   A(9,12,14)            117.4751                                         !
 ! A41   A(9,12,22)            121.278                                          !
 ! A42   A(14,12,22)           121.244                                          !
 ! A43   A(10,13,14)           120.9892                                         !
 ! A44   A(10,13,23)           119.7265                                         !
 ! A45   A(14,13,23)           119.2764                                         !
 ! A46   A(12,14,13)           121.2809                                         !
 ! A47   A(12,14,24)           119.3795                                         !
 ! A48   A(13,14,24)           119.3321                                         !
 ! A49   A(3,27,28)            123.6517                                         !
 ! A50   A(3,27,35)            118.9604                                         !
 ! A51   A(28,27,35)           117.2977                                         !
 ! A52   A(27,28,29)           110.2772                                         !
 ! A53   A(27,28,31)           114.5978                                         !
 ! A54   A(27,28,36)           104.5373                                         !
 ! A55   A(29,28,31)           110.8013                                         !
 ! A56   A(29,28,36)           108.3247                                         !
 ! A57   A(31,28,36)           107.921                                          !
 ! A58   A(28,29,30)           121.5701                                         !
 ! A59   A(28,29,46)           119.3858                                         !
 ! A60   A(30,29,46)           119.0251                                         !
 ! A61   A(28,31,32)           109.2628                                         !
 ! A62   A(28,31,33)           111.3394                                         !
 ! A63   A(28,31,37)           106.9658                                         !
 ! A64   A(32,31,33)           111.2726                                         !
 ! A65   A(32,31,37)           108.7274                                         !
 ! A66   A(33,31,37)           109.1445                                         !
 ! A67   A(31,32,34)           113.7431                                         !
 ! A68   A(31,32,38)           108.9089                                         !
 ! A69   A(31,32,39)           109.1703                                         !
 ! A70   A(34,32,38)           109.8189                                         !
 ! A71   A(34,32,39)           108.0979                                         !
 ! A72   A(38,32,39)           106.8741                                         !
 ! A73   A(31,33,40)           111.894                                          !
 ! A74   A(31,33,41)           111.1538                                         !
 ! A75   A(31,33,42)           110.6275                                         !
 ! A76   A(40,33,41)           108.5598                                         !
 ! A77   A(40,33,42)           107.0502                                         !
 ! A78   A(41,33,42)           107.3583                                         !
 ! A79   A(32,34,43)           110.5032                                         !
 ! A80   A(32,34,44)           110.6805                                         !
 ! A81   A(32,34,45)           112.3615                                         !
 ! A82   A(43,34,44)           107.7925                                         !
 ! A83   A(43,34,45)           107.9631                                         !
 ! A84   A(44,34,45)           107.3626                                         !
 ! A85   A(29,46,47)           133.5539                                         !
 ! A86   A(29,46,58)           109.6168                                         !
 ! A87   A(47,46,58)           115.6692                                         !
 ! A88   A(46,47,48)           112.1219                                         !
 ! A89   A(46,47,50)           113.2898                                         !
 ! A90   A(46,47,59)           103.1775                                         !
 ! A91   A(48,47,50)           115.9295                                         !
 ! A92   A(48,47,59)           103.6258                                         !
 ! A93   A(50,47,59)           107.2209                                         !
 ! A94   A(47,48,49)           119.6362                                         !
 ! A95   A(47,48,57)           115.4893                                         !
 ! A96   A(49,48,57)           124.7684                                         !
 ! A97   A(47,50,51)           117.5761                                         !
 ! A98   A(47,50,60)           106.2577                                         !
 ! A99   A(47,50,61)           109.8117                                         !
 ! A100  A(51,50,60)           109.5184                                         !
 ! A101  A(51,50,61)           106.8028                                         !
 ! A102  A(60,50,61)           106.3686                                         !
 ! A103  A(50,51,52)           117.0451                                         !
 ! A104  A(50,51,62)           109.4921                                         !
 ! A105  A(50,51,63)           107.9124                                         !
 ! A106  A(52,51,62)           108.3827                                         !
 ! A107  A(52,51,63)           106.815                                          !
 ! A108  A(62,51,63)           106.7054                                         !
 ! A109  A(51,52,53)           110.3538                                         !
 ! A110  A(51,52,64)           111.1334                                         !
 ! A111  A(51,52,65)           109.5798                                         !
 ! A112  A(53,52,64)           108.3569                                         !
 ! A113  A(53,52,65)           109.3662                                         !
 ! A114  A(64,52,65)           107.9971                                         !
 ! A115  A(52,53,54)           125.6479                                         !
 ! A116  A(52,53,66)           115.3494                                         !
 ! A117  A(54,53,66)           116.8898                                         !
 ! A118  A(53,54,55)           119.6377                                         !
 ! A119  A(53,54,56)           119.6209                                         !
 ! A120  A(55,54,56)           120.7399                                         !
 ! A121  A(54,55,67)           121.2764                                         !
 ! A122  A(54,55,68)           120.7105                                         !
 ! A123  A(67,55,68)           117.4411                                         !
 ! A124  A(54,56,69)           118.6446                                         !
 ! A125  A(54,56,70)           120.0439                                         !
 ! A126  A(69,56,70)           118.0067                                         !
 ! D1    D(15,1,2,3)           -39.4191                                         !
 ! D2    D(15,1,2,5)          -167.5902                                         !
 ! D3    D(15,1,2,16)           73.2471                                         !
 ! D4    D(25,1,2,3)            73.1719                                         !
 ! D5    D(25,1,2,5)           -54.9992                                         !
 ! D6    D(25,1,2,16)         -174.1619                                         !
 ! D7    D(26,1,2,3)          -165.5127                                         !
 ! D8    D(26,1,2,5)            66.3161                                         !
 ! D9    D(26,1,2,16)          -52.8466                                         !
 ! D10   D(1,2,3,4)            122.3897                                         !
 ! D11   D(1,2,3,27)           -59.0746                                         !
 ! D12   D(5,2,3,4)           -111.9977                                         !
 ! D13   D(5,2,3,27)            66.538                                          !
 ! D14   D(16,2,3,4)             8.135                                          !
 ! D15   D(16,2,3,27)         -173.3293                                         !
 ! D16   D(1,2,5,6)             46.7498                                         !
 ! D17   D(1,2,5,17)           170.8261                                         !
 ! D18   D(1,2,5,18)           -75.48                                           !
 ! D19   D(3,2,5,6)            -79.4895                                         !
 ! D20   D(3,2,5,17)            44.5869                                         !
 ! D21   D(3,2,5,18)           158.2808                                         !
 ! D22   D(16,2,5,6)           163.7656                                         !
 ! D23   D(16,2,5,17)          -72.1581                                         !
 ! D24   D(16,2,5,18)           41.5359                                         !
 ! D25   D(2,3,27,28)         -178.9397                                         !
 ! D26   D(2,3,27,35)           -2.4897                                         !
 ! D27   D(4,3,27,28)           -0.5002                                         !
 ! D28   D(4,3,27,35)          175.9498                                         !
 ! D29   D(2,5,6,7)             95.464                                          !
 ! D30   D(2,5,6,8)            -83.0484                                         !
 ! D31   D(17,5,6,7)           -26.2183                                         !
 ! D32   D(17,5,6,8)           155.2693                                         !
 ! D33   D(18,5,6,7)          -143.1156                                         !
 ! D34   D(18,5,6,8)            38.372                                          !
 ! D35   D(5,6,7,11)          -177.7433                                         !
 ! D36   D(5,6,7,19)             3.0407                                         !
 ! D37   D(8,6,7,11)             0.9998                                         !
 ! D38   D(8,6,7,19)          -178.2161                                         !
 ! D39   D(5,6,8,9)            177.8273                                         !
 ! D40   D(5,6,8,10)            -3.188                                          !
 ! D41   D(7,6,8,9)             -0.9458                                         !
 ! D42   D(7,6,8,10)           178.0389                                         !
 ! D43   D(6,7,11,9)            -0.6812                                         !
 ! D44   D(6,7,11,20)         -175.6319                                         !
 ! D45   D(19,7,11,9)          178.6119                                         !
 ! D46   D(19,7,11,20)           3.6612                                         !
 ! D47   D(6,8,9,11)             0.5484                                         !
 ! D48   D(6,8,9,12)          -179.7242                                         !
 ! D49   D(10,8,9,11)         -178.6206                                         !
 ! D50   D(10,8,9,12)            1.1068                                         !
 ! D51   D(6,8,10,13)         -179.9029                                         !
 ! D52   D(6,8,10,21)           -2.6343                                         !
 ! D53   D(9,8,10,13)           -1.0096                                         !
 ! D54   D(9,8,10,21)          176.259                                          !
 ! D55   D(8,9,11,7)             0.0579                                         !
 ! D56   D(8,9,11,20)          174.9931                                         !
 ! D57   D(12,9,11,7)         -179.6393                                         !
 ! D58   D(12,9,11,20)          -4.704                                          !
 ! D59   D(8,9,12,14)           -0.3244                                         !
 ! D60   D(8,9,12,22)         -179.7158                                         !
 ! D61   D(11,9,12,14)         179.3329                                         !
 ! D62   D(11,9,12,22)          -0.0584                                         !
 ! D63   D(8,10,13,14)           0.184                                          !
 ! D64   D(8,10,13,23)         179.1559                                         !
 ! D65   D(21,10,13,14)       -177.1062                                         !
 ! D66   D(21,10,13,23)          1.8658                                         !
 ! D67   D(9,12,14,13)          -0.5408                                         !
 ! D68   D(9,12,14,24)        -179.5349                                         !
 ! D69   D(22,12,14,13)        178.8508                                         !
 ! D70   D(22,12,14,24)         -0.1433                                         !
 ! D71   D(10,13,14,12)          0.6216                                         !
 ! D72   D(10,13,14,24)        179.6162                                         !
 ! D73   D(23,13,14,12)       -178.3549                                         !
 ! D74   D(23,13,14,24)          0.6397                                         !
 ! D75   D(3,27,28,29)         -64.9176                                         !
 ! D76   D(3,27,28,31)          60.9214                                         !
 ! D77   D(3,27,28,36)         178.8467                                         !
 ! D78   D(35,27,28,29)        118.5776                                         !
 ! D79   D(35,27,28,31)       -115.5833                                         !
 ! D80   D(35,27,28,36)          2.342                                          !
 ! D81   D(27,28,29,30)        114.4988                                         !
 ! D82   D(27,28,29,46)        -67.102                                          !
 ! D83   D(31,28,29,30)        -13.4562                                         !
 ! D84   D(31,28,29,46)        164.943                                          !
 ! D85   D(36,28,29,30)       -131.657                                          !
 ! D86   D(36,28,29,46)         46.7422                                         !
 ! D87   D(27,28,31,32)        165.1589                                         !
 ! D88   D(27,28,31,33)         41.851                                          !
 ! D89   D(27,28,31,37)        -77.3122                                         !
 ! D90   D(29,28,31,32)        -69.2753                                         !
 ! D91   D(29,28,31,33)        167.4168                                         !
 ! D92   D(29,28,31,37)         48.2536                                         !
 ! D93   D(36,28,31,32)         49.1707                                         !
 ! D94   D(36,28,31,33)        -74.1372                                         !
 ! D95   D(36,28,31,37)        166.6996                                         !
 ! D96   D(28,29,46,47)          7.3207                                         !
 ! D97   D(28,29,46,58)        174.0759                                         !
 ! D98   D(30,29,46,47)       -174.239                                          !
 ! D99   D(30,29,46,58)         -7.4839                                         !
 ! D100  D(28,31,32,34)        166.198                                          !
 ! D101  D(28,31,32,38)        -70.9682                                         !
 ! D102  D(28,31,32,39)         45.3868                                         !
 ! D103  D(33,31,32,34)        -70.4545                                         !
 ! D104  D(33,31,32,38)         52.3793                                         !
 ! D105  D(33,31,32,39)        168.7343                                         !
 ! D106  D(37,31,32,34)         49.7836                                         !
 ! D107  D(37,31,32,38)        172.6174                                         !
 ! D108  D(37,31,32,39)        -71.0276                                         !
 ! D109  D(28,31,33,40)        -62.7368                                         !
 ! D110  D(28,31,33,41)         58.8188                                         !
 ! D111  D(28,31,33,42)        177.9934                                         !
 ! D112  D(32,31,33,40)        175.1101                                         !
 ! D113  D(32,31,33,41)        -63.3343                                         !
 ! D114  D(32,31,33,42)         55.8403                                         !
 ! D115  D(37,31,33,40)         55.1187                                         !
 ! D116  D(37,31,33,41)        176.6743                                         !
 ! D117  D(37,31,33,42)        -64.1511                                         !
 ! D118  D(31,32,34,43)        -58.2804                                         !
 ! D119  D(31,32,34,44)       -177.6121                                         !
 ! D120  D(31,32,34,45)         62.3749                                         !
 ! D121  D(38,32,34,43)        179.3862                                         !
 ! D122  D(38,32,34,44)         60.0545                                         !
 ! D123  D(38,32,34,45)        -59.9585                                         !
 ! D124  D(39,32,34,43)         63.1301                                         !
 ! D125  D(39,32,34,44)        -56.2016                                         !
 ! D126  D(39,32,34,45)       -176.2146                                         !
 ! D127  D(29,46,47,48)         60.972                                          !
 ! D128  D(29,46,47,50)        -72.5684                                         !
 ! D129  D(29,46,47,59)        171.8484                                         !
 ! D130  D(58,46,47,48)       -105.1741                                         !
 ! D131  D(58,46,47,50)        121.2854                                         !
 ! D132  D(58,46,47,59)          5.7022                                         !
 ! D133  D(46,47,48,49)       -125.9923                                         !
 ! D134  D(46,47,48,57)         57.5755                                         !
 ! D135  D(50,47,48,49)          6.2464                                         !
 ! D136  D(50,47,48,57)       -170.1859                                         !
 ! D137  D(59,47,48,49)        123.4135                                         !
 ! D138  D(59,47,48,57)        -53.0187                                         !
 ! D139  D(46,47,50,51)       -176.1093                                         !
 ! D140  D(46,47,50,60)        -53.0894                                         !
 ! D141  D(46,47,50,61)         61.561                                          !
 ! D142  D(48,47,50,51)         52.1954                                         !
 ! D143  D(48,47,50,60)        175.2154                                         !
 ! D144  D(48,47,50,61)        -70.1343                                         !
 ! D145  D(59,47,50,51)        -62.9518                                         !
 ! D146  D(59,47,50,60)         60.0682                                         !
 ! D147  D(59,47,50,61)        174.7185                                         !
 ! D148  D(47,50,51,52)         44.674                                          !
 ! D149  D(47,50,51,62)        -79.1273                                         !
 ! D150  D(47,50,51,63)        165.0957                                         !
 ! D151  D(60,50,51,52)        -76.6734                                         !
 ! D152  D(60,50,51,62)        159.5254                                         !
 ! D153  D(60,50,51,63)         43.7483                                         !
 ! D154  D(61,50,51,52)        168.5315                                         !
 ! D155  D(61,50,51,62)         44.7302                                         !
 ! D156  D(61,50,51,63)        -71.0468                                         !
 ! D157  D(50,51,52,53)        -74.5904                                         !
 ! D158  D(50,51,52,64)         45.6432                                         !
 ! D159  D(50,51,52,65)        164.9222                                         !
 ! D160  D(62,51,52,53)         49.7733                                         !
 ! D161  D(62,51,52,64)        170.007                                          !
 ! D162  D(62,51,52,65)        -70.714                                          !
 ! D163  D(63,51,52,53)        164.4102                                         !
 ! D164  D(63,51,52,64)        -75.3562                                         !
 ! D165  D(63,51,52,65)         43.9229                                         !
 ! D166  D(51,52,53,54)        143.7119                                         !
 ! D167  D(51,52,53,66)        -19.1587                                         !
 ! D168  D(64,52,53,54)         21.8234                                         !
 ! D169  D(64,52,53,66)       -141.0472                                         !
 ! D170  D(65,52,53,54)        -95.6728                                         !
 ! D171  D(65,52,53,66)        101.4566                                         !
 ! D172  D(52,53,54,55)         28.3874                                         !
 ! D173  D(52,53,54,56)       -151.1727                                         !
 ! D174  D(66,53,54,55)       -168.9764                                         !
 ! D175  D(66,53,54,56)         11.4635                                         !
 ! D176  D(53,54,55,67)       -168.6055                                         !
 ! D177  D(53,54,55,68)         20.2887                                         !
 ! D178  D(56,54,55,67)         10.9496                                         !
 ! D179  D(56,54,55,68)       -160.1563                                         !
 ! D180  D(53,54,56,69)         31.558                                          !
 ! D181  D(53,54,56,70)       -169.3699                                         !
 ! D182  D(55,54,56,69)       -147.9971                                         !
 ! D183  D(55,54,56,70)         11.075                                          !
 --------------------------------------------------------------------------------
 Symmetry turned off by external request.
 Stoichiometry    C23H36N7O4(1+)
 Framework group  C1[X(C23H36N7O4)]
 Deg. of freedom   204
 Full point group                 C1      NOp   1
                          Input orientation:                          
 ---------------------------------------------------------------------
 Center     Atomic      Atomic             Coordinates (Angstroms)
 Number     Number       Type             X           Y           Z
 ---------------------------------------------------------------------
      1          7           0      -93.933434  -14.515808    2.966254
      2          6           0      -93.510413  -13.077494    3.150770
      3          6           0      -93.624740  -12.645318    4.634334
      4          8           0      -92.629218  -12.226828    5.202538
      5          6           0      -94.271593  -12.167690    2.150403
      6          6           0      -95.750165  -12.414704    2.067633
      7          6           0      -96.754059  -11.750778    2.737682
      8          6           0      -96.394643  -13.435949    1.274207
      9          6           0      -97.789842  -13.346364    1.530629
     10          6           0      -95.934917  -14.403638    0.360939
     11          7           0      -97.972723  -12.311339    2.425634
     12          6           0      -98.718358  -14.199218    0.925785
     13          6           0      -96.852556  -15.252479   -0.243678
     14          6           0      -98.230859  -15.154295    0.041883
     15          1           0      -93.612681  -15.153909    3.746723
     16          1           0      -92.439203  -13.040853    2.947369
     17          1           0      -94.056090  -11.132508    2.435323
     18          1           0      -93.823307  -12.310042    1.158292
     19          1           0      -96.687107  -10.907058    3.409449
     20          1           0      -98.866498  -11.964193    2.739352
     21          1           0      -94.880831  -14.461757    0.093849
     22          1           0      -99.781520  -14.112103    1.131129
     23          1           0      -96.510077  -15.993371   -0.960050
     24          1           0      -98.925494  -15.827711   -0.451079
     25          1           0      -94.964136  -14.637434    3.044430
     26          1           0      -93.641402  -14.878664    2.056120
     27          7           0      -94.856003  -12.736261    5.199953
     28          6           0      -95.145825  -12.347060    6.588078
     29          6           0      -94.385507  -13.272408    7.576321
     30          8           0      -93.504919  -12.844314    8.302385
     31          6           0      -94.873908  -10.858007    6.909703
     32          6           0      -95.553763  -10.493336    8.247768
     33          6           0      -95.354020   -9.945307    5.774829
     34          6           0      -95.084126   -9.157888    8.834662
     35          1           0      -95.635217  -13.038253    4.630687
     36          1           0      -96.219510  -12.526431    6.705328
     37          1           0      -93.792341  -10.748798    7.024358
     38          1           0      -96.645113  -10.473074    8.099793
     39          1           0      -95.347171  -11.278697    8.981671
     40          1           0      -94.816397  -10.137773    4.841156
     41          1           0      -96.430618  -10.072970    5.591466
     42          1           0      -95.188783   -8.895018    6.029209
     43          1           0      -94.000393   -9.169768    8.996716
     44          1           0      -95.564911   -8.969428    9.800539
     45          1           0      -95.318813   -8.310189    8.181758
     46          7           0      -94.734844  -14.607309    7.660970
     47          6           0      -95.641070  -15.463342    6.893729
     48          6           0      -95.231592  -15.558688    5.405082
     49          8           0      -96.075537  -15.283982    4.506304
     50          6           0      -97.131390  -15.172714    7.166099
     51          6           0      -98.175154  -16.081433    6.477461
     52          6           0      -97.907810  -17.594626    6.500518
     53          7           0      -96.836019  -17.941594    5.545186
     54          6           0      -95.906153  -18.881915    5.727055
     55          7           0      -96.181101  -19.949350    6.499676
     56          7           0      -94.706653  -18.748183    5.145664
     57          8           0      -94.050849  -15.988840    5.187077
     58          1           0      -94.087407  -15.090016    8.271495
     59          1           0      -95.429135  -16.465234    7.284514
     60          1           0      -97.260621  -15.225279    8.253664
     61          1           0      -97.367372  -14.145002    6.877083
     62          1           0      -98.300895  -15.769182    5.436750
     63          1           0      -99.139714  -15.922314    6.972843
     64          1           0      -97.600781  -17.926737    7.499623
     65          1           0      -98.823650  -18.133687    6.230934
     66          1           0      -96.652933  -17.245409    4.822530
     67          1           0      -95.453780  -20.585075    6.793473
     68          1           0      -97.136496  -20.213902    6.692837
     69          1           0      -94.329339  -17.796736    5.001176
     70          1           0      -94.056592  -19.521942    5.142996
 ---------------------------------------------------------------------
 Rotational constants (GHZ):           0.1286465           0.1146947           0.0774553
 Standard basis: 6-31G(d) (6D, 7F)
   582 basis functions,  1096 primitive gaussians,   582 cartesian basis functions
   127 alpha electrons      127 beta electrons
       nuclear repulsion energy      4010.0375333190 Hartrees.
 NAtoms=   70 NActive=   70 NUniq=   70 SFac= 1.00D+00 NAtFMM=   60 NAOKFM=T Big=T
 Integral buffers will be    131072 words long.
 Raffenetti 2 integral format.
 Two-electron integral symmetry is turned off.
 Nuclear repulsion after empirical dispersion term =     4009.9360717542 Hartrees.
 One-electron integrals computed using PRISM.
 NBasis=   582 RedAO= T EigKep=  3.77D-04  NBF=   582
 NBsUse=   582 1.00D-06 EigRej= -1.00D+00 NBFU=   582
 Initial guess from the checkpoint file:  "conf-879.chk"
 B after Tr=     0.000000    0.000000    0.000000
         Rot=    1.000000    0.000000    0.000000    0.000000 Ang=   0.00 deg.
 Requested convergence on RMS density matrix=1.00D-08 within 128 cycles.
 Requested convergence on MAX density matrix=1.00D-06.
 Requested convergence on             energy=1.00D-06.
 No special actions if energy rises.
 SCF Done:  E(RB3LYP) =  -1582.24110868     A.U. after    1 cycles
            NFock=  1  Conv=0.57D-08     -V/T= 2.0095

 **********************************************************************

            Population analysis using the SCF Density.

 **********************************************************************

 Alpha  occ. eigenvalues --  -19.22287 -19.22255 -19.20865 -19.18999 -14.53864
 Alpha  occ. eigenvalues --  -14.52481 -14.50947 -14.50486 -14.47796 -14.45488
 Alpha  occ. eigenvalues --  -14.44161 -10.47849 -10.39930 -10.38579 -10.36700
 Alpha  occ. eigenvalues --  -10.35984 -10.35864 -10.33560 -10.31972 -10.31917
 Alpha  occ. eigenvalues --  -10.31441 -10.31024 -10.30261 -10.29284 -10.28578
 Alpha  occ. eigenvalues --  -10.28381 -10.28265 -10.28141 -10.27542 -10.27427
 Alpha  occ. eigenvalues --  -10.25627 -10.24818 -10.24166 -10.22747  -1.16546
 Alpha  occ. eigenvalues --   -1.15629  -1.13224  -1.11214  -1.09082  -1.07695
 Alpha  occ. eigenvalues --   -1.06571  -1.05511  -1.04277  -1.01957  -1.00140
 Alpha  occ. eigenvalues --   -0.93353  -0.91214  -0.90890  -0.88221  -0.86308
 Alpha  occ. eigenvalues --   -0.85158  -0.82979  -0.81698  -0.80903  -0.79682
 Alpha  occ. eigenvalues --   -0.78185  -0.77650  -0.76801  -0.73711  -0.71737
 Alpha  occ. eigenvalues --   -0.71717  -0.71002  -0.69780  -0.69124  -0.68800
 Alpha  occ. eigenvalues --   -0.68639  -0.66844  -0.65967  -0.65851  -0.65603
 Alpha  occ. eigenvalues --   -0.64691  -0.63523  -0.62978  -0.62587  -0.61813
 Alpha  occ. eigenvalues --   -0.60525  -0.60039  -0.58499  -0.58042  -0.57808
 Alpha  occ. eigenvalues --   -0.56785  -0.56604  -0.55616  -0.54755  -0.54504
 Alpha  occ. eigenvalues --   -0.53848  -0.53587  -0.53215  -0.52664  -0.52562
 Alpha  occ. eigenvalues --   -0.52219  -0.51764  -0.51403  -0.50965  -0.50555
 Alpha  occ. eigenvalues --   -0.49870  -0.49059  -0.48216  -0.48167  -0.47857
 Alpha  occ. eigenvalues --   -0.47342  -0.46837  -0.46555  -0.45782  -0.45571
 Alpha  occ. eigenvalues --   -0.44769  -0.44703  -0.44289  -0.43832  -0.43152
 Alpha  occ. eigenvalues --   -0.43021  -0.42746  -0.41896  -0.40482  -0.40160
 Alpha  occ. eigenvalues --   -0.39018  -0.38636  -0.38588  -0.37527  -0.37185
 Alpha  occ. eigenvalues --   -0.36134  -0.35456  -0.34266  -0.32681  -0.32102
 Alpha  occ. eigenvalues --   -0.31704  -0.30105
 Alpha virt. eigenvalues --   -0.12837  -0.10870  -0.09810  -0.08350  -0.07639
 Alpha virt. eigenvalues --   -0.06917  -0.06540  -0.05630  -0.04137  -0.03257
 Alpha virt. eigenvalues --   -0.02406  -0.01627  -0.01198  -0.00679   0.00092
 Alpha virt. eigenvalues --    0.00244   0.01415   0.01849   0.02871   0.03039
 Alpha virt. eigenvalues --    0.03318   0.03563   0.03943   0.04043   0.04669
 Alpha virt. eigenvalues --    0.04948   0.05554   0.05781   0.06480   0.06765
 Alpha virt. eigenvalues --    0.07034   0.07227   0.07818   0.08293   0.08532
 Alpha virt. eigenvalues --    0.09088   0.09209   0.09674   0.10387   0.10781
 Alpha virt. eigenvalues --    0.10933   0.11394   0.11442   0.11841   0.12554
 Alpha virt. eigenvalues --    0.13034   0.13204   0.13363   0.14120   0.14514
 Alpha virt. eigenvalues --    0.14805   0.15213   0.16046   0.16457   0.16717
 Alpha virt. eigenvalues --    0.17534   0.17795   0.18263   0.18421   0.18577
 Alpha virt. eigenvalues --    0.19692   0.20653   0.22265   0.23002   0.23287
 Alpha virt. eigenvalues --    0.23448   0.24848   0.25069   0.26120   0.26568
 Alpha virt. eigenvalues --    0.27211   0.29456   0.29855   0.31475   0.31543
 Alpha virt. eigenvalues --    0.33270   0.34014   0.36934   0.37600   0.38982
 Alpha virt. eigenvalues --    0.39914   0.40292   0.40925   0.41162   0.41689
 Alpha virt. eigenvalues --    0.42316   0.42543   0.43203   0.43449   0.44293
 Alpha virt. eigenvalues --    0.44956   0.45320   0.46200   0.46369   0.46534
 Alpha virt. eigenvalues --    0.47012   0.47219   0.47758   0.48419   0.48769
 Alpha virt. eigenvalues --    0.49267   0.49766   0.50109   0.50399   0.50569
 Alpha virt. eigenvalues --    0.50618   0.51324   0.51615   0.52456   0.52756
 Alpha virt. eigenvalues --    0.52879   0.53382   0.53534   0.54003   0.54713
 Alpha virt. eigenvalues --    0.54989   0.55197   0.56118   0.56821   0.57417
 Alpha virt. eigenvalues --    0.57746   0.58397   0.58632   0.59546   0.59950
 Alpha virt. eigenvalues --    0.60343   0.61428   0.61667   0.62394   0.63690
 Alpha virt. eigenvalues --    0.63963   0.64135   0.64927   0.65743   0.66506
 Alpha virt. eigenvalues --    0.66976   0.67510   0.67681   0.69571   0.70658
 Alpha virt. eigenvalues --    0.71206   0.71416   0.72082   0.72196   0.72642
 Alpha virt. eigenvalues --    0.73197   0.73332   0.73884   0.74169   0.74635
 Alpha virt. eigenvalues --    0.74963   0.75514   0.75977   0.76056   0.76670
 Alpha virt. eigenvalues --    0.77147   0.77613   0.77626   0.77925   0.78161
 Alpha virt. eigenvalues --    0.78414   0.79154   0.79345   0.80306   0.80836
 Alpha virt. eigenvalues --    0.81198   0.81517   0.81872   0.82335   0.82526
 Alpha virt. eigenvalues --    0.82895   0.83514   0.83859   0.84221   0.84585
 Alpha virt. eigenvalues --    0.85815   0.86098   0.86484   0.87234   0.87727
 Alpha virt. eigenvalues --    0.88007   0.88362   0.89147   0.89769   0.90070
 Alpha virt. eigenvalues --    0.90489   0.90997   0.91824   0.92002   0.92727
 Alpha virt. eigenvalues --    0.93306   0.94374   0.94936   0.95249   0.96339
 Alpha virt. eigenvalues --    0.96511   0.97499   0.98186   0.98592   0.99131
 Alpha virt. eigenvalues --    0.99145   1.01793   1.02141   1.02982   1.03138
 Alpha virt. eigenvalues --    1.03540   1.05257   1.06077   1.06832   1.07996
 Alpha virt. eigenvalues --    1.08642   1.09873   1.10376   1.11182   1.11369
 Alpha virt. eigenvalues --    1.13164   1.14454   1.15254   1.15780   1.17020
 Alpha virt. eigenvalues --    1.17506   1.18464   1.18984   1.20510   1.21051
 Alpha virt. eigenvalues --    1.22293   1.22990   1.23595   1.24067   1.25017
 Alpha virt. eigenvalues --    1.25921   1.27780   1.28049   1.29314   1.30938
 Alpha virt. eigenvalues --    1.31812   1.32438   1.32968   1.33470   1.35055
 Alpha virt. eigenvalues --    1.35596   1.36008   1.36915   1.37270   1.37947
 Alpha virt. eigenvalues --    1.39287   1.39615   1.40679   1.42029   1.42843
 Alpha virt. eigenvalues --    1.43497   1.43836   1.44288   1.45722   1.47064
 Alpha virt. eigenvalues --    1.47807   1.48764   1.49953   1.50519   1.52750
 Alpha virt. eigenvalues --    1.53688   1.54060   1.54712   1.56535   1.57764
 Alpha virt. eigenvalues --    1.58554   1.60509   1.61119   1.61531   1.61815
 Alpha virt. eigenvalues --    1.64018   1.64509   1.65953   1.66770   1.67556
 Alpha virt. eigenvalues --    1.67860   1.68337   1.70268   1.70393   1.71492
 Alpha virt. eigenvalues --    1.71750   1.71818   1.72471   1.73000   1.74060
 Alpha virt. eigenvalues --    1.74946   1.75738   1.75866   1.77066   1.77526
 Alpha virt. eigenvalues --    1.78548   1.79051   1.79596   1.80761   1.80856
 Alpha virt. eigenvalues --    1.81475   1.81826   1.82080   1.83235   1.83491
 Alpha virt. eigenvalues --    1.84495   1.85410   1.86056   1.86449   1.86633
 Alpha virt. eigenvalues --    1.87382   1.87842   1.88875   1.89344   1.90406
 Alpha virt. eigenvalues --    1.90780   1.91596   1.92189   1.92284   1.92868
 Alpha virt. eigenvalues --    1.93412   1.94205   1.94878   1.95111   1.96131
 Alpha virt. eigenvalues --    1.96611   1.97245   1.97592   1.98129   1.99480
 Alpha virt. eigenvalues --    1.99906   2.00642   2.01566   2.02678   2.04313
 Alpha virt. eigenvalues --    2.05753   2.05910   2.06286   2.07059   2.07485
 Alpha virt. eigenvalues --    2.08253   2.09622   2.10725   2.11082   2.13180
 Alpha virt. eigenvalues --    2.13941   2.14404   2.15855   2.16252   2.16498
 Alpha virt. eigenvalues --    2.18169   2.18617   2.21257   2.21429   2.22060
 Alpha virt. eigenvalues --    2.23143   2.24297   2.24533   2.25494   2.25834
 Alpha virt. eigenvalues --    2.26901   2.28453   2.28837   2.30205   2.30600
 Alpha virt. eigenvalues --    2.30858   2.31858   2.32902   2.33707   2.36084
 Alpha virt. eigenvalues --    2.36793   2.37361   2.38441   2.39803   2.40878
 Alpha virt. eigenvalues --    2.41846   2.42009   2.43162   2.43867   2.45147
 Alpha virt. eigenvalues --    2.45526   2.46156   2.47982   2.49089   2.50490
 Alpha virt. eigenvalues --    2.50944   2.51915   2.52267   2.54000   2.54316
 Alpha virt. eigenvalues --    2.55192   2.55492   2.57177   2.58106   2.59054
 Alpha virt. eigenvalues --    2.59547   2.59829   2.60473   2.61535   2.63181
 Alpha virt. eigenvalues --    2.63683   2.65783   2.67394   2.69290   2.69730
 Alpha virt. eigenvalues --    2.72010   2.73708   2.74056   2.77173   2.77850
 Alpha virt. eigenvalues --    2.83139   2.87183   2.87610   2.90480   2.91661
 Alpha virt. eigenvalues --    2.92457   2.93807   2.94221   2.96602   2.97614
 Alpha virt. eigenvalues --    3.02801   3.05281   3.07145   3.09659   3.14761
 Alpha virt. eigenvalues --    3.34702   3.65985   3.74124   3.78810   3.83142
 Alpha virt. eigenvalues --    3.87401   3.94576   3.98537   4.00477   4.02177
 Alpha virt. eigenvalues --    4.04647   4.05690   4.08058   4.10876   4.12077
 Alpha virt. eigenvalues --    4.13358   4.14835   4.16903   4.19960   4.21516
 Alpha virt. eigenvalues --    4.27425   4.30334   4.32183   4.33809   4.36207
 Alpha virt. eigenvalues --    4.37680   4.41024   4.44329   4.46589   4.51337
 Alpha virt. eigenvalues --    4.54771   4.58042   4.61007   4.66988   4.70948
          Condensed to atoms (all electrons):
 Mulliken charges:
               1
     1  N   -0.784540
     2  C   -0.105595
     3  C    0.611089
     4  O   -0.479621
     5  C   -0.376662
     6  C    0.012194
     7  C    0.003271
     8  C    0.078974
     9  C    0.326056
    10  C   -0.239894
    11  N   -0.687045
    12  C   -0.155723
    13  C   -0.132823
    14  C   -0.152117
    15  H    0.429487
    16  H    0.212382
    17  H    0.203192
    18  H    0.178818
    19  H    0.184713
    20  H    0.343792
    21  H    0.114930
    22  H    0.144444
    23  H    0.142248
    24  H    0.147660
    25  H    0.425574
    26  H    0.385164
    27  N   -0.641948
    28  C   -0.051744
    29  C    0.620757
    30  O   -0.477424
    31  C   -0.070471
    32  C   -0.267260
    33  C   -0.471307
    34  C   -0.452616
    35  H    0.358128
    36  H    0.149404
    37  H    0.192796
    38  H    0.115177
    39  H    0.157994
    40  H    0.142530
    41  H    0.123043
    42  H    0.172150
    43  H    0.164188
    44  H    0.152444
    45  H    0.145624
    46  N   -0.610755
    47  C   -0.016979
    48  C    0.595184
    49  O   -0.603252
    50  C   -0.263940
    51  C   -0.309970
    52  C   -0.158105
    53  N   -0.604368
    54  C    0.771246
    55  N   -0.750059
    56  N   -0.777807
    57  O   -0.615148
    58  H    0.341051
    59  H    0.139314
    60  H    0.160418
    61  H    0.160019
    62  H    0.186290
    63  H    0.170761
    64  H    0.175752
    65  H    0.182487
    66  H    0.389118
    67  H    0.379450
    68  H    0.385605
    69  H    0.418192
    70  H    0.364064
 Sum of Mulliken charges =   1.00000
 Mulliken charges with hydrogens summed into heavy atoms:
               1
     1  N    0.455685
     2  C    0.106787
     3  C    0.611089
     4  O   -0.479621
     5  C    0.005348
     6  C    0.012194
     7  C    0.187983
     8  C    0.078974
     9  C    0.326056
    10  C   -0.124963
    11  N   -0.343254
    12  C   -0.011279
    13  C    0.009425
    14  C   -0.004457
    27  N   -0.283820
    28  C    0.097661
    29  C    0.620757
    30  O   -0.477424
    31  C    0.122326
    32  C    0.005910
    33  C   -0.033583
    34  C    0.009639
    46  N   -0.269704
    47  C    0.122335
    48  C    0.595184
    49  O   -0.603252
    50  C    0.056496
    51  C    0.047080
    52  C    0.200135
    53  N   -0.215250
    54  C    0.771246
    55  N    0.014996
    56  N    0.004449
    57  O   -0.615148
 Electronic spatial extent (au):  <R**2>=        8518733.8927
 Charge=              1.0000 electrons
 Dipole moment (field-independent basis, Debye):
    X=           -464.7210    Y=            -82.7441    Z=             20.9856  Tot=            472.4961
 Quadrupole moment (field-independent basis, Debye-Ang):
   XX=          44776.0628   YY=           1283.7908   ZZ=            -85.9055
   XY=           7981.4791   XZ=          -2053.3008   YZ=           -396.3120
 Traceless Quadrupole moment (field-independent basis, Debye-Ang):
   XX=          29451.4134   YY=         -14040.8585   ZZ=         -15410.5549
   XY=           7981.4791   XZ=          -2053.3008   YZ=           -396.3120
 Octapole moment (field-independent basis, Debye-Ang**2):
  XXX=       -4296726.8796  YYY=         -18951.4092  ZZZ=          -2168.3934  XYY=        -123647.4634
  XXY=        -767350.3700  XXZ=         199868.3627  XZZ=           7889.8791  YZZ=            495.7612
  YYZ=           6710.0325  XYZ=          38524.9101
 Hexadecapole moment (field-independent basis, Debye-Ang**3):
 XXXX=      410665739.9606 YYYY=         270519.0938 ZZZZ=         -31128.3630 XXXY=       73534453.6882
 XXXZ=      -19361186.2215 YYYX=        1822992.7277 YYYZ=        -109981.9254 ZZZX=         204411.6210
 ZZZY=          25401.6155 XXYY=       11872605.1713 XXZZ=        -729921.5329 YYZZ=             50.5056
 XXYZ=       -3731343.0319 YYXZ=        -650482.8652 ZZXY=         -43108.3089
 N-N= 4.009936071754D+03 E-N=-1.167519737211D+04  KE= 1.567336710432D+03
 Unable to Open any file for archive entry.
 1\1\GINC-QML-002\SP\RB3LYP\6-31G(d)\C23H36N7O4(1+)\KENGMITH\24-May-202
 2\0\\# B3LYP/6-31G* empiricaldispersion=gd3 guess=read geom=check nosy
 mm integral(ultrafinegrid)\\Candidate Structure: Conf:879 Charge calc 
 in gas phase\\1,1\N,0,-93.9334338801,-14.5158084739,2.9662542719\C,0,-
 93.5104130354,-13.0774935454,3.1507695483\C,0,-93.6247395056,-12.64531
 79926,4.6343341876\O,0,-92.629218293,-12.2268275086,5.202537674\C,0,-9
 4.2715927083,-12.1676898524,2.1504032489\C,0,-95.750164565,-12.4147036
 059,2.0676332013\C,0,-96.7540586995,-11.7507783878,2.73768192\C,0,-96.
 3946433956,-13.4359486741,1.2742066462\C,0,-97.7898420372,-13.34636402
 65,1.5306290288\C,0,-95.934916817,-14.4036375444,0.3609388204\N,0,-97.
 972722972,-12.3113392361,2.4256335172\C,0,-98.7183581492,-14.199218238
 ,0.9257848761\C,0,-96.8525555682,-15.2524791507,-0.2436782721\C,0,-98.
 2308590551,-15.1542954723,0.0418829331\H,0,-93.6126807776,-15.15390866
 58,3.7467234374\H,0,-92.4392033578,-13.040852957,2.9473686341\H,0,-94.
 0560895613,-11.132507654,2.4353230138\H,0,-93.8233067102,-12.310041657
 8,1.1582917634\H,0,-96.6871067167,-10.907057609,3.4094486216\H,0,-98.8
 664979939,-11.9641929706,2.7393522412\H,0,-94.8808314647,-14.461756849
 2,0.093848602\H,0,-99.7815195995,-14.1121027369,1.131129384\H,0,-96.51
 00765484,-15.993371132,-0.9600499762\H,0,-98.9254937794,-15.827711142,
 -0.4510788227\H,0,-94.9641363925,-14.6374336,3.0444302072\H,0,-93.6414
 018821,-14.878663518,2.0561204529\N,0,-94.8560033041,-12.7362613827,5.
 1999527934\C,0,-95.1458253243,-12.3470602476,6.5880783758\C,0,-94.3855
 072471,-13.2724078603,7.5763211392\O,0,-93.5049188545,-12.8443140245,8
 .3023847742\C,0,-94.8739084564,-10.8580065493,6.9097033369\C,0,-95.553
 7625485,-10.4933357807,8.2477683897\C,0,-95.3540196944,-9.9453068707,5
 .7748291158\C,0,-95.0841258316,-9.1578881522,8.834661505\H,0,-95.63521
 65976,-13.0382530685,4.6306870254\H,0,-96.2195104664,-12.5264308498,6.
 7053279364\H,0,-93.7923409347,-10.7487975604,7.0243582713\H,0,-96.6451
 133341,-10.4730740135,8.0997926206\H,0,-95.3471706439,-11.2786972215,8
 .9816708686\H,0,-94.8163967285,-10.1377725328,4.8411562911\H,0,-96.430
 6179359,-10.0729702606,5.5914661011\H,0,-95.1887826326,-8.8950175705,6
 .029209282\H,0,-94.0003929208,-9.1697676159,8.9967156074\H,0,-95.56491
 06079,-8.9694277587,9.8005385452\H,0,-95.3188126114,-8.3101894925,8.18
 17579677\N,0,-94.7348438399,-14.6073094175,7.6609703095\C,0,-95.641070
 3351,-15.4633415514,6.8937293841\C,0,-95.2315918127,-15.5586875408,5.4
 050823167\O,0,-96.0755371766,-15.2839824994,4.5063043093\C,0,-97.13139
 02967,-15.1727142467,7.1660988666\C,0,-98.1751536789,-16.0814331554,6.
 4774606774\C,0,-97.9078103894,-17.5946262451,6.5005176744\N,0,-96.8360
 186579,-17.9415943834,5.5451856492\C,0,-95.9061529509,-18.8819146304,5
 .7270552742\N,0,-96.1811011061,-19.949350405,6.4996758554\N,0,-94.7066
 525381,-18.7481825119,5.1456642938\O,0,-94.0508486607,-15.9888402822,5
 .187077451\H,0,-94.0874073222,-15.0900160312,8.2714953565\H,0,-95.4291
 345615,-16.4652339171,7.2845141182\H,0,-97.2606206418,-15.2252788351,8
 .2536641412\H,0,-97.3673721448,-14.1450018942,6.8770830494\H,0,-98.300
 895358,-15.7691818317,5.4367499772\H,0,-99.1397143457,-15.922313879,6.
 9728427775\H,0,-97.6007814403,-17.9267368887,7.4996232492\H,0,-98.8236
 496432,-18.1336868878,6.2309344396\H,0,-96.6529329143,-17.2454085669,4
 .8225300331\H,0,-95.4537795571,-20.5850753511,6.7934727039\H,0,-97.136
 4959568,-20.2139021004,6.6928371832\H,0,-94.329338896,-17.7967358578,5
 .0011757394\H,0,-94.0565922255,-19.521941916,5.1429958126\\Version=ES6
 4L-G16RevC.01\HF=-1582.2411087\RMSD=5.743e-09\Dipole=-2.0385315,-5.841
 8281,-0.8113201\Quadrupole=21896.4040269,-10439.0341745,-11457.3698524
 ,5934.0341007,-1526.5788293,-294.6482534\PG=C01 [X(C23H36N7O4)]\\@
 The archive entry for this job was punched.


 AN AIRPLANE IS A COLLECTION OF SPARE PARTS
 FLYING IN CLOSE FORMATION.
 Job cpu time:       0 days  0 hours  2 minutes 41.2 seconds.
 Elapsed time:       0 days  0 hours  0 minutes 40.8 seconds.
 File lengths (MBytes):  RWF=    296 Int=      0 D2E=      0 Chk=     40 Scr=     16
 Normal termination of Gaussian 16 at Tue May 24 23:09:40 2022.
