 Entering Gaussian System, Link 0=/opt/software/Gaussian/g16-AVX-C.01/g16/g16
 Input=charge-conf-472.com
 Output=charge-conf-472.log
 Initial command:
 /opt/software/Gaussian/g16-AVX-C.01/g16/l1.exe "/mnt/gs18/scratch/users/kengmith/Gau-37754.inp" -scrdir="/mnt/gs18/scratch/users/kengmith/"
 Entering Link 1 = /opt/software/Gaussian/g16-AVX-C.01/g16/l1.exe PID=     37770.
  
 Copyright (c) 1988-2019, Gaussian, Inc.  All Rights Reserved.
  
 This is part of the Gaussian(R) 16 program.  It is based on
 the Gaussian(R) 09 system (copyright 2009, Gaussian, Inc.),
 the Gaussian(R) 03 system (copyright 2003, Gaussian, Inc.),
 the Gaussian(R) 98 system (copyright 1998, Gaussian, Inc.),
 the Gaussian(R) 94 system (copyright 1995, Gaussian, Inc.),
 the Gaussian 92(TM) system (copyright 1992, Gaussian, Inc.),
 the Gaussian 90(TM) system (copyright 1990, Gaussian, Inc.),
 the Gaussian 88(TM) system (copyright 1988, Gaussian, Inc.),
 the Gaussian 86(TM) system (copyright 1986, Carnegie Mellon
 University), and the Gaussian 82(TM) system (copyright 1983,
 Carnegie Mellon University). Gaussian is a federally registered
 trademark of Gaussian, Inc.
  
 This software contains proprietary and confidential information,
 including trade secrets, belonging to Gaussian, Inc.
  
 This software is provided under written license and may be
 used, copied, transmitted, or stored only in accord with that
 written license.
  
 The following legend is applicable only to US Government
 contracts under FAR:
  
                    RESTRICTED RIGHTS LEGEND
  
 Use, reproduction and disclosure by the US Government is
 subject to restrictions as set forth in subparagraphs (a)
 and (c) of the Commercial Computer Software - Restricted
 Rights clause in FAR 52.227-19.
  
 Gaussian, Inc.
 340 Quinnipiac St., Bldg. 40, Wallingford CT 06492
  
  
 ---------------------------------------------------------------
 Warning -- This program may not be used in any manner that
 competes with the business of Gaussian, Inc. or will provide
 assistance to any competitor of Gaussian, Inc.  The licensee
 of this program is prohibited from giving any competitor of
 Gaussian, Inc. access to this program.  By using this program,
 the user acknowledges that Gaussian, Inc. is engaged in the
 business of creating and licensing software in the field of
 computational chemistry and represents and warrants to the
 licensee that it is not a competitor of Gaussian, Inc. and that
 it will not use this program in any manner prohibited above.
 ---------------------------------------------------------------
  

 Cite this work as:
 Gaussian 16, Revision C.01,
 M. J. Frisch, G. W. Trucks, H. B. Schlegel, G. E. Scuseria, 
 M. A. Robb, J. R. Cheeseman, G. Scalmani, V. Barone, 
 G. A. Petersson, H. Nakatsuji, X. Li, M. Caricato, A. V. Marenich, 
 J. Bloino, B. G. Janesko, R. Gomperts, B. Mennucci, H. P. Hratchian, 
 J. V. Ortiz, A. F. Izmaylov, J. L. Sonnenberg, D. Williams-Young, 
 F. Ding, F. Lipparini, F. Egidi, J. Goings, B. Peng, A. Petrone, 
 T. Henderson, D. Ranasinghe, V. G. Zakrzewski, J. Gao, N. Rega, 
 G. Zheng, W. Liang, M. Hada, M. Ehara, K. Toyota, R. Fukuda, 
 J. Hasegawa, M. Ishida, T. Nakajima, Y. Honda, O. Kitao, H. Nakai, 
 T. Vreven, K. Throssell, J. A. Montgomery, Jr., J. E. Peralta, 
 F. Ogliaro, M. J. Bearpark, J. J. Heyd, E. N. Brothers, K. N. Kudin, 
 V. N. Staroverov, T. A. Keith, R. Kobayashi, J. Normand, 
 K. Raghavachari, A. P. Rendell, J. C. Burant, S. S. Iyengar, 
 J. Tomasi, M. Cossi, J. M. Millam, M. Klene, C. Adamo, R. Cammi, 
 J. W. Ochterski, R. L. Martin, K. Morokuma, O. Farkas, 
 J. B. Foresman, and D. J. Fox, Gaussian, Inc., Wallingford CT, 2019.
 
 ******************************************
 Gaussian 16:  ES64L-G16RevC.01  3-Jul-2019
                24-May-2022 
 ******************************************
 %mem=8gb
 %nproc=4
 Will use up to    4 processors via shared memory.
 %chk=conf-472.chk
 ----------------------------------------------------------------------
 # B3LYP/6-31G* empiricaldispersion=gd3 guess=read geom=check nosymm in
 tegral(ultrafinegrid)
 ----------------------------------------------------------------------
 1/29=2,38=1,172=1/1;
 2/12=2,15=1,40=1/2;
 3/5=1,6=6,7=1,11=2,14=-4,25=1,30=1,74=-5,75=-5,116=-2,124=31/1,2,3;
 4/5=1/1;
 5/5=2,38=6/2;
 6/7=2,8=2,9=2,10=2,28=1/1;
 99/5=1,9=1/99;
 ------------------------------------------------------
 Candidate Structure: Conf:472 Charge calc in gas phase
 ------------------------------------------------------
 Structure from the checkpoint file:  "conf-472.chk"
 Charge =  1 Multiplicity = 1
 Redundant internal coordinates found in file.  (old form).
 N,0,-94.1649535137,-13.6882681221,5.2499777029
 C,0,-94.6322359168,-15.0067636569,5.8174289725
 C,0,-95.5804309367,-15.7604282719,4.8574026408
 O,0,-95.2369985032,-16.8460983087,4.4177428683
 C,0,-95.2160809117,-14.7516471008,7.2217984798
 C,0,-94.2146456388,-14.0931096772,8.1222885529
 C,0,-94.2608680157,-12.8073662182,8.615343124
 C,0,-92.9820760309,-14.6754205464,8.599729202
 C,0,-92.3325479896,-13.6851745788,9.3838118974
 C,0,-92.3754970352,-15.9358956762,8.4484392434
 N,0,-93.1347958661,-12.558418433,9.3694148782
 C,0,-91.1030917927,-13.9153203254,10.0099698619
 C,0,-91.155167389,-16.1684109979,9.0680554392
 C,0,-90.5258328508,-15.1675372523,9.8388166807
 H,0,-94.9649531012,-13.0249912331,5.0300922934
 H,0,-93.7435538057,-15.6345634523,5.8900128954
 H,0,-96.1233501278,-14.1405241757,7.1406734848
 H,0,-95.5295062561,-15.7248637801,7.618850452
 H,0,-95.0331578328,-12.0568701686,8.509326556
 H,0,-92.9631699444,-11.7159310893,9.8969346056
 H,0,-92.8586367679,-16.7217809145,7.8732309055
 H,0,-90.6211557174,-13.1484449602,10.6096012575
 H,0,-90.676854262,-17.1377492455,8.9653726045
 H,0,-89.5729372947,-15.3826413669,10.3129060452
 H,0,-93.5250442835,-13.2496484944,5.923939077
 H,0,-93.7268496944,-13.789469165,4.3225692686
 N,0,-96.7869882379,-15.1808070632,4.6226920998
 C,0,-97.8257012916,-15.7928936579,3.7809097733
 C,0,-97.3399524335,-15.8953920514,2.3110084053
 O,0,-97.2126154143,-16.9705797575,1.7516086227
 C,0,-98.33800424,-17.1571411861,4.2998220956
 C,0,-99.6717191807,-17.4963211012,3.5977079639
 C,0,-98.496820522,-17.1434783879,5.8259571878
 C,0,-100.0830929892,-18.9654461394,3.7393513761
 H,0,-96.9546238908,-14.2371377011,4.9437408225
 H,0,-98.663917558,-15.0897459831,3.8177268244
 H,0,-97.5946923637,-17.9081717621,4.0201791111
 H,0,-100.4625990991,-16.8454346773,4.0021325483
 H,0,-99.5867045997,-17.2683505355,2.5302179493
 H,0,-97.5348614736,-17.0381543514,6.3364163443
 H,0,-99.1498696377,-16.3233218807,6.153853348
 H,0,-98.9438463856,-18.0795437606,6.1717864837
 H,0,-101.0194111615,-19.159231903,3.2050403902
 H,0,-100.2365065881,-19.2549482901,4.7846123687
 H,0,-99.3136768,-19.6213636814,3.3166448691
 N,0,-97.0640108957,-14.737698218,1.6030632807
 C,0,-97.0408768497,-13.3131625384,1.9428008965
 C,0,-95.9079840044,-12.9763147536,2.9437739701
 O,0,-96.2115788895,-12.4255694933,4.0568692806
 C,0,-98.4321311873,-12.7372544953,2.2743552044
 C,0,-98.5255634755,-11.2195647504,2.5494489733
 C,0,-97.7686025325,-10.2889094971,1.5900534681
 N,0,-96.3179683214,-10.3385117453,1.8646132541
 C,0,-95.3476301874,-10.2539401064,0.9503330221
 N,0,-95.5716792615,-9.5868036237,-0.1965469691
 N,0,-94.1673483195,-10.8410950955,1.1845087079
 O,0,-94.7300153547,-13.2249666117,2.5695540837
 H,0,-96.6612580185,-14.9773198244,0.705722676
 H,0,-96.7093592722,-12.8417132585,1.0108937288
 H,0,-99.082238343,-12.9983610043,1.4309493381
 H,0,-98.8470803705,-13.2406725715,3.1511473821
 H,0,-98.1898599039,-11.0112089118,3.5697490564
 H,0,-99.5821959694,-10.9330898155,2.5043293066
 H,0,-97.9316151543,-10.5811347863,0.5457371426
 H,0,-98.1270670918,-9.2603182866,1.7147214894
 H,0,-96.0554030977,-10.6888414044,2.7838421454
 H,0,-94.9284523976,-9.648246808,-0.9724656541
 H,0,-96.3177090438,-8.9092072082,-0.2632720189
 H,0,-94.1534160333,-11.7059899661,1.7508799855
 H,0,-93.3810519591,-10.6572768234,0.5767686059
 Recover connectivity data from disk.
                           ----------------------------
                           !    Current Parameters    !
                           ! (Angstroms and Degrees)  !
 --------------------------                            --------------------------
 ! Name  Definition              Value                                          !
 --------------------------------------------------------------------------------
 ! R1    R(1,2)                  1.5096                                         !
 ! R2    R(1,15)                 1.0622                                         !
 ! R3    R(1,25)                 1.0277                                         !
 ! R4    R(1,26)                 1.0307                                         !
 ! R5    R(2,3)                  1.5456                                         !
 ! R6    R(2,5)                  1.5421                                         !
 ! R7    R(2,16)                 1.0905                                         !
 ! R8    R(3,4)                  1.2206                                         !
 ! R9    R(3,27)                 1.359                                          !
 ! R10   R(5,6)                  1.4991                                         !
 ! R11   R(5,17)                 1.0969                                         !
 ! R12   R(5,18)                 1.0968                                         !
 ! R13   R(6,7)                  1.3778                                         !
 ! R14   R(6,8)                  1.4444                                         !
 ! R15   R(7,11)                 1.3779                                         !
 ! R16   R(7,19)                 1.0821                                         !
 ! R17   R(8,9)                  1.4203                                         !
 ! R18   R(8,10)                 1.407                                          !
 ! R19   R(9,11)                 1.3833                                         !
 ! R20   R(9,12)                 1.3988                                         !
 ! R21   R(10,13)                1.3882                                         !
 ! R22   R(10,21)                1.0872                                         !
 ! R23   R(11,20)                1.0087                                         !
 ! R24   R(12,14)                1.3894                                         !
 ! R25   R(12,22)                1.0862                                         !
 ! R26   R(13,14)                1.4113                                         !
 ! R27   R(13,23)                1.0858                                         !
 ! R28   R(14,24)                1.0858                                         !
 ! R29   R(27,28)                1.4704                                         !
 ! R30   R(27,35)                1.0108                                         !
 ! R31   R(28,29)                1.5515                                         !
 ! R32   R(28,31)                1.5469                                         !
 ! R33   R(28,36)                1.0947                                         !
 ! R34   R(29,30)                1.2187                                         !
 ! R35   R(29,46)                1.3848                                         !
 ! R36   R(31,32)                1.5449                                         !
 ! R37   R(31,33)                1.5344                                         !
 ! R38   R(31,37)                1.0931                                         !
 ! R39   R(32,34)                1.5322                                         !
 ! R40   R(32,38)                1.1012                                         !
 ! R41   R(32,39)                1.0949                                         !
 ! R42   R(33,40)                1.0941                                         !
 ! R43   R(33,41)                1.0985                                         !
 ! R44   R(33,42)                1.0935                                         !
 ! R45   R(34,43)                1.0953                                         !
 ! R46   R(34,44)                1.0954                                         !
 ! R47   R(34,45)                1.0959                                         !
 ! R48   R(46,47)                1.4647                                         !
 ! R49   R(46,58)                1.0123                                         !
 ! R50   R(47,48)                1.5488                                         !
 ! R51   R(47,50)                1.5418                                         !
 ! R52   R(47,59)                1.0957                                         !
 ! R53   R(48,49)                1.2785                                         !
 ! R54   R(48,57)                1.2607                                         !
 ! R55   R(50,51)                1.5452                                         !
 ! R56   R(50,60)                1.0964                                         !
 ! R57   R(50,61)                1.0929                                         !
 ! R58   R(51,52)                1.5361                                         !
 ! R59   R(51,62)                1.0941                                         !
 ! R60   R(51,63)                1.0957                                         !
 ! R61   R(52,53)                1.4772                                         !
 ! R62   R(52,64)                1.0966                                         !
 ! R63   R(52,65)                1.0964                                         !
 ! R64   R(53,54)                1.3359                                         !
 ! R65   R(53,66)                1.0182                                         !
 ! R66   R(54,55)                1.3456                                         !
 ! R67   R(54,56)                1.3389                                         !
 ! R68   R(55,67)                1.0097                                         !
 ! R69   R(55,68)                1.01                                           !
 ! R70   R(56,69)                1.0339                                         !
 ! R71   R(56,70)                1.0106                                         !
 ! A1    A(2,1,15)             112.9593                                         !
 ! A2    A(2,1,25)             108.6034                                         !
 ! A3    A(2,1,26)             112.5856                                         !
 ! A4    A(15,1,25)            109.7683                                         !
 ! A5    A(15,1,26)            101.2555                                         !
 ! A6    A(25,1,26)            111.5518                                         !
 ! A7    A(1,2,3)              112.4779                                         !
 ! A8    A(1,2,5)              108.3622                                         !
 ! A9    A(1,2,16)             105.9975                                         !
 ! A10   A(3,2,5)              114.4603                                         !
 ! A11   A(3,2,16)             105.1043                                         !
 ! A12   A(5,2,16)             110.0692                                         !
 ! A13   A(2,3,4)              119.0021                                         !
 ! A14   A(2,3,27)             116.3585                                         !
 ! A15   A(4,3,27)             124.5376                                         !
 ! A16   A(2,5,6)              111.5168                                         !
 ! A17   A(2,5,17)             109.7525                                         !
 ! A18   A(2,5,18)             106.9213                                         !
 ! A19   A(6,5,17)             110.6225                                         !
 ! A20   A(6,5,18)             111.2977                                         !
 ! A21   A(17,5,18)            106.5448                                         !
 ! A22   A(5,6,7)              127.0465                                         !
 ! A23   A(5,6,8)              126.2633                                         !
 ! A24   A(7,6,8)              106.6517                                         !
 ! A25   A(6,7,11)             109.6953                                         !
 ! A26   A(6,7,19)             129.5015                                         !
 ! A27   A(11,7,19)            120.7686                                         !
 ! A28   A(6,8,9)              106.9567                                         !
 ! A29   A(6,8,10)             133.9096                                         !
 ! A30   A(9,8,10)             119.131                                          !
 ! A31   A(8,9,11)             107.2744                                         !
 ! A32   A(8,9,12)             122.3009                                         !
 ! A33   A(11,9,12)            130.4245                                         !
 ! A34   A(8,10,13)            118.7527                                         !
 ! A35   A(8,10,21)            120.8576                                         !
 ! A36   A(13,10,21)           120.3802                                         !
 ! A37   A(7,11,9)             109.4205                                         !
 ! A38   A(7,11,20)            125.1792                                         !
 ! A39   A(9,11,20)            125.1845                                         !
 ! A40   A(9,12,14)            117.2779                                         !
 ! A41   A(9,12,22)            121.3938                                         !
 ! A42   A(14,12,22)           121.3277                                         !
 ! A43   A(10,13,14)           121.1282                                         !
 ! A44   A(10,13,23)           119.6405                                         !
 ! A45   A(14,13,23)           119.2301                                         !
 ! A46   A(12,14,13)           121.4085                                         !
 ! A47   A(12,14,24)           119.2976                                         !
 ! A48   A(13,14,24)           119.293                                          !
 ! A49   A(3,27,28)            123.2642                                         !
 ! A50   A(3,27,35)            119.3787                                         !
 ! A51   A(28,27,35)           116.9556                                         !
 ! A52   A(27,28,29)           110.4083                                         !
 ! A53   A(27,28,31)           114.1433                                         !
 ! A54   A(27,28,36)           104.73                                           !
 ! A55   A(29,28,31)           111.2994                                         !
 ! A56   A(29,28,36)           108.3023                                         !
 ! A57   A(31,28,36)           107.5542                                         !
 ! A58   A(28,29,30)           121.7281                                         !
 ! A59   A(28,29,46)           119.4402                                         !
 ! A60   A(30,29,46)           118.8223                                         !
 ! A61   A(28,31,32)           109.0912                                         !
 ! A62   A(28,31,33)           111.1041                                         !
 ! A63   A(28,31,37)           107.1534                                         !
 ! A64   A(32,31,33)           111.3835                                         !
 ! A65   A(32,31,37)           108.6597                                         !
 ! A66   A(33,31,37)           109.3268                                         !
 ! A67   A(31,32,34)           113.5954                                         !
 ! A68   A(31,32,38)           108.8645                                         !
 ! A69   A(31,32,39)           109.2903                                         !
 ! A70   A(34,32,38)           109.874                                          !
 ! A71   A(34,32,39)           108.0971                                         !
 ! A72   A(38,32,39)           106.9037                                         !
 ! A73   A(31,33,40)           111.9559                                         !
 ! A74   A(31,33,41)           111.4117                                         !
 ! A75   A(31,33,42)           110.4415                                         !
 ! A76   A(40,33,41)           108.1535                                         !
 ! A77   A(40,33,42)           107.1154                                         !
 ! A78   A(41,33,42)           107.5603                                         !
 ! A79   A(32,34,43)           110.7355                                         !
 ! A80   A(32,34,44)           112.2856                                         !
 ! A81   A(32,34,45)           110.4712                                         !
 ! A82   A(43,34,44)           107.3976                                         !
 ! A83   A(43,34,45)           107.8262                                         !
 ! A84   A(44,34,45)           107.9518                                         !
 ! A85   A(29,46,47)           134.2407                                         !
 ! A86   A(29,46,58)           109.5452                                         !
 ! A87   A(47,46,58)           115.4379                                         !
 ! A88   A(46,47,48)           111.9                                            !
 ! A89   A(46,47,50)           113.5106                                         !
 ! A90   A(46,47,59)           103.0602                                         !
 ! A91   A(48,47,50)           116.0919                                         !
 ! A92   A(48,47,59)           103.5783                                         !
 ! A93   A(50,47,59)           107.1688                                         !
 ! A94   A(47,48,49)           118.8603                                         !
 ! A95   A(47,48,57)           116.6605                                         !
 ! A96   A(49,48,57)           124.421                                          !
 ! A97   A(47,50,51)           117.3683                                         !
 ! A98   A(47,50,60)           106.2998                                         !
 ! A99   A(47,50,61)           110.0642                                         !
 ! A100  A(51,50,60)           109.5718                                         !
 ! A101  A(51,50,61)           106.6568                                         !
 ! A102  A(60,50,61)           106.3983                                         !
 ! A103  A(50,51,52)           117.0052                                         !
 ! A104  A(50,51,62)           109.5419                                         !
 ! A105  A(50,51,63)           107.9247                                         !
 ! A106  A(52,51,62)           108.4124                                         !
 ! A107  A(52,51,63)           106.9232                                         !
 ! A108  A(62,51,63)           106.5285                                         !
 ! A109  A(51,52,53)           110.3338                                         !
 ! A110  A(51,52,64)           111.1053                                         !
 ! A111  A(51,52,65)           109.6496                                         !
 ! A112  A(53,52,64)           108.302                                          !
 ! A113  A(53,52,65)           109.356                                          !
 ! A114  A(64,52,65)           108.0405                                         !
 ! A115  A(52,53,54)           125.7293                                         !
 ! A116  A(52,53,66)           115.6324                                         !
 ! A117  A(54,53,66)           116.8953                                         !
 ! A118  A(53,54,55)           119.5888                                         !
 ! A119  A(53,54,56)           119.5276                                         !
 ! A120  A(55,54,56)           120.8824                                         !
 ! A121  A(54,55,67)           121.2466                                         !
 ! A122  A(54,55,68)           120.791                                          !
 ! A123  A(67,55,68)           117.4246                                         !
 ! A124  A(54,56,69)           118.3285                                         !
 ! A125  A(54,56,70)           120.0601                                         !
 ! A126  A(69,56,70)           118.1036                                         !
 ! D1    D(15,1,2,3)            59.2297                                         !
 ! D2    D(15,1,2,5)           -68.3224                                         !
 ! D3    D(15,1,2,16)          173.5594                                         !
 ! D4    D(25,1,2,3)          -178.7539                                         !
 ! D5    D(25,1,2,5)            53.694                                          !
 ! D6    D(25,1,2,16)          -64.4242                                         !
 ! D7    D(26,1,2,3)           -54.7116                                         !
 ! D8    D(26,1,2,5)           177.7363                                         !
 ! D9    D(26,1,2,16)           59.618                                          !
 ! D10   D(1,2,3,4)            117.1676                                         !
 ! D11   D(1,2,3,27)           -66.3323                                         !
 ! D12   D(5,2,3,4)           -118.5859                                         !
 ! D13   D(5,2,3,27)            57.9142                                         !
 ! D14   D(16,2,3,4)             2.2951                                         !
 ! D15   D(16,2,3,27)          178.7951                                         !
 ! D16   D(1,2,5,6)            -57.0527                                         !
 ! D17   D(1,2,5,17)            65.8921                                         !
 ! D18   D(1,2,5,18)          -178.9253                                         !
 ! D19   D(3,2,5,6)            176.5382                                         !
 ! D20   D(3,2,5,17)           -60.5169                                         !
 ! D21   D(3,2,5,18)            54.6657                                         !
 ! D22   D(16,2,5,6)            58.4413                                         !
 ! D23   D(16,2,5,17)         -178.6139                                         !
 ! D24   D(16,2,5,18)          -63.4313                                         !
 ! D25   D(2,3,27,28)         -177.3643                                         !
 ! D26   D(2,3,27,35)           10.1365                                         !
 ! D27   D(4,3,27,28)           -1.0806                                         !
 ! D28   D(4,3,27,35)         -173.5798                                         !
 ! D29   D(2,5,6,7)            111.4879                                         !
 ! D30   D(2,5,6,8)            -65.9503                                         !
 ! D31   D(17,5,6,7)           -10.9586                                         !
 ! D32   D(17,5,6,8)           171.6032                                         !
 ! D33   D(18,5,6,7)          -129.2053                                         !
 ! D34   D(18,5,6,8)            53.3565                                         !
 ! D35   D(5,6,7,11)          -177.9225                                         !
 ! D36   D(5,6,7,19)             4.2438                                         !
 ! D37   D(8,6,7,11)            -0.0783                                         !
 ! D38   D(8,6,7,19)          -177.912                                          !
 ! D39   D(5,6,8,9)            178.1453                                         !
 ! D40   D(5,6,8,10)            -2.479                                          !
 ! D41   D(7,6,8,9)              0.2793                                         !
 ! D42   D(7,6,8,10)           179.655                                          !
 ! D43   D(6,7,11,9)            -0.1605                                         !
 ! D44   D(6,7,11,20)         -175.0417                                         !
 ! D45   D(19,7,11,9)          177.8942                                         !
 ! D46   D(19,7,11,20)           3.0131                                         !
 ! D47   D(6,8,9,11)            -0.3748                                         !
 ! D48   D(6,8,9,12)           179.7648                                         !
 ! D49   D(10,8,9,11)         -179.86                                           !
 ! D50   D(10,8,9,12)            0.2797                                         !
 ! D51   D(6,8,10,13)         -179.5954                                         !
 ! D52   D(6,8,10,21)           -0.712                                          !
 ! D53   D(9,8,10,13)           -0.279                                          !
 ! D54   D(9,8,10,21)          178.6044                                         !
 ! D55   D(8,9,11,7)             0.3348                                         !
 ! D56   D(8,9,11,20)          175.2156                                         !
 ! D57   D(12,9,11,7)         -179.8202                                         !
 ! D58   D(12,9,11,20)          -4.9395                                         !
 ! D59   D(8,9,12,14)           -0.0495                                         !
 ! D60   D(8,9,12,22)         -179.7607                                         !
 ! D61   D(11,9,12,14)        -179.8743                                         !
 ! D62   D(11,9,12,22)           0.4145                                         !
 ! D63   D(8,10,13,14)           0.0626                                         !
 ! D64   D(8,10,13,23)         179.6658                                         !
 ! D65   D(21,10,13,14)       -178.8264                                         !
 ! D66   D(21,10,13,23)          0.7768                                         !
 ! D67   D(9,12,14,13)          -0.1762                                         !
 ! D68   D(9,12,14,24)        -179.817                                          !
 ! D69   D(22,12,14,13)        179.5352                                         !
 ! D70   D(22,12,14,24)         -0.1056                                         !
 ! D71   D(10,13,14,12)          0.1734                                         !
 ! D72   D(10,13,14,24)        179.8142                                         !
 ! D73   D(23,13,14,12)       -179.4314                                         !
 ! D74   D(23,13,14,24)          0.2094                                         !
 ! D75   D(3,27,28,29)         -64.7905                                         !
 ! D76   D(3,27,28,31)          61.4723                                         !
 ! D77   D(3,27,28,36)         178.8332                                         !
 ! D78   D(35,27,28,29)        107.8776                                         !
 ! D79   D(35,27,28,31)       -125.8596                                         !
 ! D80   D(35,27,28,36)         -8.4988                                         !
 ! D81   D(27,28,29,30)        117.8854                                         !
 ! D82   D(27,28,29,46)        -63.2405                                         !
 ! D83   D(31,28,29,30)         -9.9551                                         !
 ! D84   D(31,28,29,46)        168.9191                                         !
 ! D85   D(36,28,29,30)       -127.9844                                         !
 ! D86   D(36,28,29,46)         50.8898                                         !
 ! D87   D(27,28,31,32)        163.6828                                         !
 ! D88   D(27,28,31,33)         40.5111                                         !
 ! D89   D(27,28,31,37)        -78.8551                                         !
 ! D90   D(29,28,31,32)        -70.5211                                         !
 ! D91   D(29,28,31,33)        166.3072                                         !
 ! D92   D(29,28,31,37)         46.9409                                         !
 ! D93   D(36,28,31,32)         47.9586                                         !
 ! D94   D(36,28,31,33)        -75.2131                                         !
 ! D95   D(36,28,31,37)        165.4206                                         !
 ! D96   D(28,29,46,47)          4.4925                                         !
 ! D97   D(28,29,46,58)        173.5867                                         !
 ! D98   D(30,29,46,47)       -176.6005                                         !
 ! D99   D(30,29,46,58)         -7.5063                                         !
 ! D100  D(28,31,32,34)        164.5333                                         !
 ! D101  D(28,31,32,38)        -72.6965                                         !
 ! D102  D(28,31,32,39)         43.7355                                         !
 ! D103  D(33,31,32,34)        -72.4617                                         !
 ! D104  D(33,31,32,38)         50.3085                                         !
 ! D105  D(33,31,32,39)        166.7405                                         !
 ! D106  D(37,31,32,34)         48.0272                                         !
 ! D107  D(37,31,32,38)        170.7974                                         !
 ! D108  D(37,31,32,39)        -72.7705                                         !
 ! D109  D(28,31,33,40)        -65.8357                                         !
 ! D110  D(28,31,33,41)         55.4237                                         !
 ! D111  D(28,31,33,42)        174.8966                                         !
 ! D112  D(32,31,33,40)        172.3188                                         !
 ! D113  D(32,31,33,41)        -66.4218                                         !
 ! D114  D(32,31,33,42)         53.0511                                         !
 ! D115  D(37,31,33,40)         52.2229                                         !
 ! D116  D(37,31,33,41)        173.4823                                         !
 ! D117  D(37,31,33,42)        -67.0448                                         !
 ! D118  D(31,32,34,43)       -178.6033                                         !
 ! D119  D(31,32,34,44)         61.3522                                         !
 ! D120  D(31,32,34,45)        -59.215                                          !
 ! D121  D(38,32,34,43)         59.1838                                         !
 ! D122  D(38,32,34,44)        -60.8607                                         !
 ! D123  D(38,32,34,45)        178.5721                                         !
 ! D124  D(39,32,34,43)        -57.137                                          !
 ! D125  D(39,32,34,44)       -177.1816                                         !
 ! D126  D(39,32,34,45)         62.2512                                         !
 ! D127  D(29,46,47,48)         66.6886                                         !
 ! D128  D(29,46,47,50)        -67.0853                                         !
 ! D129  D(29,46,47,59)        177.3599                                         !
 ! D130  D(58,46,47,48)       -101.9245                                         !
 ! D131  D(58,46,47,50)        124.3017                                         !
 ! D132  D(58,46,47,59)          8.7468                                         !
 ! D133  D(46,47,48,49)       -122.5454                                         !
 ! D134  D(46,47,48,57)         60.1053                                         !
 ! D135  D(50,47,48,49)          9.9553                                         !
 ! D136  D(50,47,48,57)       -167.394                                          !
 ! D137  D(59,47,48,49)        127.1113                                         !
 ! D138  D(59,47,48,57)        -50.238                                          !
 ! D139  D(46,47,50,51)       -175.8435                                         !
 ! D140  D(46,47,50,60)        -52.8615                                         !
 ! D141  D(46,47,50,61)         61.9695                                         !
 ! D142  D(48,47,50,51)         52.401                                          !
 ! D143  D(48,47,50,60)        175.3829                                         !
 ! D144  D(48,47,50,61)        -69.7861                                         !
 ! D145  D(59,47,50,51)        -62.7439                                         !
 ! D146  D(59,47,50,60)         60.238                                          !
 ! D147  D(59,47,50,61)        175.069                                          !
 ! D148  D(47,50,51,52)         44.8031                                         !
 ! D149  D(47,50,51,62)        -79.0503                                         !
 ! D150  D(47,50,51,63)        165.3492                                         !
 ! D151  D(60,50,51,52)        -76.4927                                         !
 ! D152  D(60,50,51,62)        159.6539                                         !
 ! D153  D(60,50,51,63)         44.0534                                         !
 ! D154  D(61,50,51,52)        168.7283                                         !
 ! D155  D(61,50,51,62)         44.8748                                         !
 ! D156  D(61,50,51,63)        -70.7256                                         !
 ! D157  D(50,51,52,53)        -74.9415                                         !
 ! D158  D(50,51,52,64)         45.1916                                         !
 ! D159  D(50,51,52,65)        164.5517                                         !
 ! D160  D(62,51,52,53)         49.4847                                         !
 ! D161  D(62,51,52,64)        169.6178                                         !
 ! D162  D(62,51,52,65)        -71.0221                                         !
 ! D163  D(63,51,52,53)        163.9853                                         !
 ! D164  D(63,51,52,64)        -75.8816                                         !
 ! D165  D(63,51,52,65)         43.4785                                         !
 ! D166  D(51,52,53,54)        144.6465                                         !
 ! D167  D(51,52,53,66)        -19.7665                                         !
 ! D168  D(64,52,53,54)         22.8403                                         !
 ! D169  D(64,52,53,66)       -141.5726                                         !
 ! D170  D(65,52,53,54)        -94.671                                          !
 ! D171  D(65,52,53,66)        100.9161                                         !
 ! D172  D(52,53,54,55)         27.3671                                         !
 ! D173  D(52,53,54,56)       -152.248                                          !
 ! D174  D(66,53,54,55)       -168.3948                                         !
 ! D175  D(66,53,54,56)         11.9901                                         !
 ! D176  D(53,54,55,67)       -168.5442                                         !
 ! D177  D(53,54,55,68)         20.0838                                         !
 ! D178  D(56,54,55,67)         11.0655                                         !
 ! D179  D(56,54,55,68)       -160.3065                                         !
 ! D180  D(53,54,56,69)         31.6589                                         !
 ! D181  D(53,54,56,70)       -169.8568                                         !
 ! D182  D(55,54,56,69)       -147.9511                                         !
 ! D183  D(55,54,56,70)         10.5332                                         !
 --------------------------------------------------------------------------------
 Symmetry turned off by external request.
 Stoichiometry    C23H36N7O4(1+)
 Framework group  C1[X(C23H36N7O4)]
 Deg. of freedom   204
 Full point group                 C1      NOp   1
                          Input orientation:                          
 ---------------------------------------------------------------------
 Center     Atomic      Atomic             Coordinates (Angstroms)
 Number     Number       Type             X           Y           Z
 ---------------------------------------------------------------------
      1          7           0      -94.164954  -13.688268    5.249978
      2          6           0      -94.632236  -15.006764    5.817429
      3          6           0      -95.580431  -15.760428    4.857403
      4          8           0      -95.236999  -16.846098    4.417743
      5          6           0      -95.216081  -14.751647    7.221798
      6          6           0      -94.214646  -14.093110    8.122289
      7          6           0      -94.260868  -12.807366    8.615343
      8          6           0      -92.982076  -14.675421    8.599729
      9          6           0      -92.332548  -13.685175    9.383812
     10          6           0      -92.375497  -15.935896    8.448439
     11          7           0      -93.134796  -12.558418    9.369415
     12          6           0      -91.103092  -13.915320   10.009970
     13          6           0      -91.155167  -16.168411    9.068055
     14          6           0      -90.525833  -15.167537    9.838817
     15          1           0      -94.964953  -13.024991    5.030092
     16          1           0      -93.743554  -15.634563    5.890013
     17          1           0      -96.123350  -14.140524    7.140673
     18          1           0      -95.529506  -15.724864    7.618850
     19          1           0      -95.033158  -12.056870    8.509327
     20          1           0      -92.963170  -11.715931    9.896935
     21          1           0      -92.858637  -16.721781    7.873231
     22          1           0      -90.621156  -13.148445   10.609601
     23          1           0      -90.676854  -17.137749    8.965373
     24          1           0      -89.572937  -15.382641   10.312906
     25          1           0      -93.525044  -13.249648    5.923939
     26          1           0      -93.726850  -13.789469    4.322569
     27          7           0      -96.786988  -15.180807    4.622692
     28          6           0      -97.825701  -15.792894    3.780910
     29          6           0      -97.339952  -15.895392    2.311008
     30          8           0      -97.212615  -16.970580    1.751609
     31          6           0      -98.338004  -17.157141    4.299822
     32          6           0      -99.671719  -17.496321    3.597708
     33          6           0      -98.496821  -17.143478    5.825957
     34          6           0     -100.083093  -18.965446    3.739351
     35          1           0      -96.954624  -14.237138    4.943741
     36          1           0      -98.663918  -15.089746    3.817727
     37          1           0      -97.594692  -17.908172    4.020179
     38          1           0     -100.462599  -16.845435    4.002133
     39          1           0      -99.586705  -17.268351    2.530218
     40          1           0      -97.534861  -17.038154    6.336416
     41          1           0      -99.149870  -16.323322    6.153853
     42          1           0      -98.943846  -18.079544    6.171786
     43          1           0     -101.019411  -19.159232    3.205040
     44          1           0     -100.236507  -19.254948    4.784612
     45          1           0      -99.313677  -19.621364    3.316645
     46          7           0      -97.064011  -14.737698    1.603063
     47          6           0      -97.040877  -13.313163    1.942801
     48          6           0      -95.907984  -12.976315    2.943774
     49          8           0      -96.211579  -12.425569    4.056869
     50          6           0      -98.432131  -12.737254    2.274355
     51          6           0      -98.525563  -11.219565    2.549449
     52          6           0      -97.768603  -10.288909    1.590053
     53          7           0      -96.317968  -10.338512    1.864613
     54          6           0      -95.347630  -10.253940    0.950333
     55          7           0      -95.571679   -9.586804   -0.196547
     56          7           0      -94.167348  -10.841095    1.184509
     57          8           0      -94.730015  -13.224967    2.569554
     58          1           0      -96.661258  -14.977320    0.705723
     59          1           0      -96.709359  -12.841713    1.010894
     60          1           0      -99.082238  -12.998361    1.430949
     61          1           0      -98.847080  -13.240673    3.151147
     62          1           0      -98.189860  -11.011209    3.569749
     63          1           0      -99.582196  -10.933090    2.504329
     64          1           0      -97.931615  -10.581135    0.545737
     65          1           0      -98.127067   -9.260318    1.714721
     66          1           0      -96.055403  -10.688841    2.783842
     67          1           0      -94.928452   -9.648247   -0.972466
     68          1           0      -96.317709   -8.909207   -0.263272
     69          1           0      -94.153416  -11.705990    1.750880
     70          1           0      -93.381052  -10.657277    0.576769
 ---------------------------------------------------------------------
 Rotational constants (GHZ):           0.1362170           0.0769087           0.0555847
 Standard basis: 6-31G(d) (6D, 7F)
   582 basis functions,  1096 primitive gaussians,   582 cartesian basis functions
   127 alpha electrons      127 beta electrons
       nuclear repulsion energy      3816.5286017347 Hartrees.
 NAtoms=   70 NActive=   70 NUniq=   70 SFac= 1.00D+00 NAtFMM=   60 NAOKFM=T Big=T
 Integral buffers will be    131072 words long.
 Raffenetti 2 integral format.
 Two-electron integral symmetry is turned off.
 Nuclear repulsion after empirical dispersion term =     3816.4338126737 Hartrees.
 One-electron integrals computed using PRISM.
 NBasis=   582 RedAO= T EigKep=  3.77D-04  NBF=   582
 NBsUse=   582 1.00D-06 EigRej= -1.00D+00 NBFU=   582
 Initial guess from the checkpoint file:  "conf-472.chk"
 B after Tr=     0.000000    0.000000    0.000000
         Rot=    1.000000    0.000000    0.000000    0.000000 Ang=   0.00 deg.
 Requested convergence on RMS density matrix=1.00D-08 within 128 cycles.
 Requested convergence on MAX density matrix=1.00D-06.
 Requested convergence on             energy=1.00D-06.
 No special actions if energy rises.
 SCF Done:  E(RB3LYP) =  -1582.23864728     A.U. after    3 cycles
            NFock=  3  Conv=0.11D-08     -V/T= 2.0095

 **********************************************************************

            Population analysis using the SCF Density.

 **********************************************************************

 Alpha  occ. eigenvalues --  -19.23015 -19.22185 -19.20902 -19.18951 -14.54011
 Alpha  occ. eigenvalues --  -14.52687 -14.51355 -14.50641 -14.47021 -14.45530
 Alpha  occ. eigenvalues --  -14.44160 -10.48087 -10.40191 -10.38585 -10.36632
 Alpha  occ. eigenvalues --  -10.36087 -10.35699 -10.33717 -10.31726 -10.31633
 Alpha  occ. eigenvalues --  -10.30776 -10.30458 -10.30417 -10.29417 -10.28076
 Alpha  occ. eigenvalues --  -10.27122 -10.26877 -10.26732 -10.26260 -10.25890
 Alpha  occ. eigenvalues --  -10.25134 -10.23817 -10.23680 -10.22289  -1.16787
 Alpha  occ. eigenvalues --   -1.15901  -1.13230  -1.11156  -1.09180  -1.06894
 Alpha  occ. eigenvalues --   -1.06796  -1.05813  -1.04490  -1.01959  -1.00095
 Alpha  occ. eigenvalues --   -0.92271  -0.91129  -0.90838  -0.87829  -0.85602
 Alpha  occ. eigenvalues --   -0.85260  -0.81750  -0.81230  -0.80285  -0.79727
 Alpha  occ. eigenvalues --   -0.77979  -0.77315  -0.76293  -0.73952  -0.71872
 Alpha  occ. eigenvalues --   -0.70664  -0.70619  -0.69906  -0.68845  -0.68708
 Alpha  occ. eigenvalues --   -0.68071  -0.66608  -0.66533  -0.65877  -0.65054
 Alpha  occ. eigenvalues --   -0.64858  -0.63093  -0.62494  -0.61767  -0.61693
 Alpha  occ. eigenvalues --   -0.60659  -0.60288  -0.58963  -0.58228  -0.57059
 Alpha  occ. eigenvalues --   -0.56715  -0.55963  -0.55435  -0.54761  -0.54370
 Alpha  occ. eigenvalues --   -0.54014  -0.53510  -0.52726  -0.52094  -0.51912
 Alpha  occ. eigenvalues --   -0.51475  -0.51041  -0.50654  -0.50405  -0.49793
 Alpha  occ. eigenvalues --   -0.49451  -0.48978  -0.48848  -0.47890  -0.47494
 Alpha  occ. eigenvalues --   -0.47004  -0.46677  -0.46434  -0.45880  -0.45598
 Alpha  occ. eigenvalues --   -0.44685  -0.43687  -0.43424  -0.43375  -0.43212
 Alpha  occ. eigenvalues --   -0.41706  -0.41514  -0.41403  -0.40631  -0.39586
 Alpha  occ. eigenvalues --   -0.38964  -0.38549  -0.38122  -0.37900  -0.36299
 Alpha  occ. eigenvalues --   -0.36226  -0.35490  -0.34223  -0.32688  -0.31861
 Alpha  occ. eigenvalues --   -0.30695  -0.29255
 Alpha virt. eigenvalues --   -0.13027  -0.09965  -0.09664  -0.08610  -0.07816
 Alpha virt. eigenvalues --   -0.06224  -0.05642  -0.04308  -0.03480  -0.03016
 Alpha virt. eigenvalues --   -0.02500  -0.01890  -0.01064  -0.00400  -0.00139
 Alpha virt. eigenvalues --    0.00501   0.01026   0.01523   0.02380   0.02970
 Alpha virt. eigenvalues --    0.03191   0.03907   0.04057   0.04102   0.04387
 Alpha virt. eigenvalues --    0.05275   0.05912   0.06194   0.06765   0.07186
 Alpha virt. eigenvalues --    0.07513   0.07867   0.07988   0.08481   0.08808
 Alpha virt. eigenvalues --    0.09687   0.09767   0.10318   0.10714   0.10800
 Alpha virt. eigenvalues --    0.11050   0.11244   0.12069   0.12440   0.12505
 Alpha virt. eigenvalues --    0.13027   0.13118   0.13520   0.14198   0.14715
 Alpha virt. eigenvalues --    0.15144   0.15647   0.15917   0.16411   0.16818
 Alpha virt. eigenvalues --    0.17733   0.18368   0.18497   0.18853   0.19577
 Alpha virt. eigenvalues --    0.20634   0.20763   0.22639   0.22683   0.23667
 Alpha virt. eigenvalues --    0.23939   0.24933   0.25802   0.26775   0.26809
 Alpha virt. eigenvalues --    0.27837   0.29953   0.30206   0.31593   0.31828
 Alpha virt. eigenvalues --    0.33578   0.34778   0.36430   0.37327   0.37881
 Alpha virt. eigenvalues --    0.39840   0.40469   0.40725   0.41355   0.42133
 Alpha virt. eigenvalues --    0.42307   0.43484   0.43652   0.43949   0.45275
 Alpha virt. eigenvalues --    0.45338   0.45962   0.46067   0.46689   0.47241
 Alpha virt. eigenvalues --    0.47541   0.48083   0.48470   0.48572   0.49385
 Alpha virt. eigenvalues --    0.49737   0.49992   0.50119   0.50494   0.50895
 Alpha virt. eigenvalues --    0.51756   0.52176   0.52526   0.53021   0.53428
 Alpha virt. eigenvalues --    0.53549   0.53944   0.54067   0.54592   0.54860
 Alpha virt. eigenvalues --    0.55317   0.55768   0.56485   0.56572   0.57842
 Alpha virt. eigenvalues --    0.58277   0.58417   0.59181   0.59750   0.60389
 Alpha virt. eigenvalues --    0.60956   0.61266   0.61541   0.62701   0.63084
 Alpha virt. eigenvalues --    0.63429   0.64442   0.64692   0.64961   0.66091
 Alpha virt. eigenvalues --    0.67294   0.67600   0.68075   0.68623   0.69916
 Alpha virt. eigenvalues --    0.70626   0.70943   0.71262   0.71703   0.72242
 Alpha virt. eigenvalues --    0.72391   0.73050   0.73708   0.74391   0.74634
 Alpha virt. eigenvalues --    0.74905   0.75433   0.76011   0.76493   0.76834
 Alpha virt. eigenvalues --    0.77293   0.77508   0.78048   0.78194   0.78413
 Alpha virt. eigenvalues --    0.78864   0.79038   0.79505   0.79750   0.80872
 Alpha virt. eigenvalues --    0.81111   0.81309   0.82185   0.82521   0.83038
 Alpha virt. eigenvalues --    0.83876   0.84154   0.84777   0.84900   0.85422
 Alpha virt. eigenvalues --    0.85737   0.86545   0.86634   0.87004   0.87100
 Alpha virt. eigenvalues --    0.87724   0.88469   0.88549   0.89677   0.89921
 Alpha virt. eigenvalues --    0.90197   0.90603   0.91098   0.91375   0.91982
 Alpha virt. eigenvalues --    0.92744   0.93007   0.94217   0.94329   0.95232
 Alpha virt. eigenvalues --    0.95873   0.96272   0.96950   0.98172   0.99299
 Alpha virt. eigenvalues --    0.99466   0.99915   1.01196   1.02232   1.03328
 Alpha virt. eigenvalues --    1.03455   1.04340   1.04861   1.06294   1.07642
 Alpha virt. eigenvalues --    1.08741   1.09987   1.10442   1.11107   1.11576
 Alpha virt. eigenvalues --    1.12362   1.13821   1.14275   1.15413   1.16237
 Alpha virt. eigenvalues --    1.16599   1.17223   1.19318   1.19949   1.20469
 Alpha virt. eigenvalues --    1.21274   1.22308   1.22698   1.24662   1.25056
 Alpha virt. eigenvalues --    1.25256   1.27001   1.27279   1.28721   1.28912
 Alpha virt. eigenvalues --    1.31397   1.32743   1.32813   1.33443   1.34329
 Alpha virt. eigenvalues --    1.35350   1.35430   1.35864   1.37635   1.38377
 Alpha virt. eigenvalues --    1.39004   1.40455   1.41486   1.42032   1.42505
 Alpha virt. eigenvalues --    1.42788   1.43132   1.45142   1.46874   1.47260
 Alpha virt. eigenvalues --    1.48432   1.49160   1.49771   1.50777   1.52283
 Alpha virt. eigenvalues --    1.53186   1.53937   1.54487   1.56686   1.56993
 Alpha virt. eigenvalues --    1.58260   1.59451   1.61059   1.61396   1.61872
 Alpha virt. eigenvalues --    1.64238   1.64905   1.66114   1.67021   1.67426
 Alpha virt. eigenvalues --    1.68354   1.68623   1.69101   1.70109   1.70333
 Alpha virt. eigenvalues --    1.70980   1.71506   1.73019   1.73607   1.74510
 Alpha virt. eigenvalues --    1.75150   1.75745   1.76336   1.76731   1.77760
 Alpha virt. eigenvalues --    1.78625   1.79126   1.79253   1.80897   1.81206
 Alpha virt. eigenvalues --    1.81646   1.82390   1.82515   1.83223   1.84137
 Alpha virt. eigenvalues --    1.84494   1.85405   1.85988   1.86183   1.86700
 Alpha virt. eigenvalues --    1.87307   1.88324   1.88564   1.89506   1.90099
 Alpha virt. eigenvalues --    1.91159   1.91538   1.92131   1.92687   1.92724
 Alpha virt. eigenvalues --    1.93175   1.94320   1.94589   1.94956   1.96052
 Alpha virt. eigenvalues --    1.97055   1.97484   1.98126   1.98492   1.99290
 Alpha virt. eigenvalues --    1.99959   2.00600   2.01637   2.02401   2.04435
 Alpha virt. eigenvalues --    2.05419   2.05955   2.06509   2.06883   2.07843
 Alpha virt. eigenvalues --    2.08381   2.09629   2.10336   2.10782   2.11921
 Alpha virt. eigenvalues --    2.14207   2.15271   2.15292   2.16638   2.17378
 Alpha virt. eigenvalues --    2.18365   2.19054   2.20041   2.20980   2.21745
 Alpha virt. eigenvalues --    2.22511   2.24445   2.24885   2.25526   2.26096
 Alpha virt. eigenvalues --    2.26804   2.27746   2.28896   2.30506   2.30852
 Alpha virt. eigenvalues --    2.31154   2.31720   2.31919   2.32833   2.36102
 Alpha virt. eigenvalues --    2.36603   2.38013   2.38667   2.39798   2.41036
 Alpha virt. eigenvalues --    2.41388   2.41681   2.43226   2.43604   2.44974
 Alpha virt. eigenvalues --    2.45570   2.46963   2.47767   2.49029   2.50096
 Alpha virt. eigenvalues --    2.51087   2.51740   2.52678   2.53488   2.54859
 Alpha virt. eigenvalues --    2.55170   2.56997   2.57838   2.58620   2.59026
 Alpha virt. eigenvalues --    2.59240   2.59850   2.60505   2.60877   2.63506
 Alpha virt. eigenvalues --    2.63755   2.66273   2.66820   2.69554   2.69924
 Alpha virt. eigenvalues --    2.71741   2.74053   2.74165   2.77464   2.78858
 Alpha virt. eigenvalues --    2.83910   2.87040   2.87689   2.90182   2.90929
 Alpha virt. eigenvalues --    2.92735   2.93289   2.95338   2.96447   2.97347
 Alpha virt. eigenvalues --    3.04110   3.04376   3.07240   3.09536   3.15968
 Alpha virt. eigenvalues --    3.36038   3.65814   3.73616   3.77114   3.82533
 Alpha virt. eigenvalues --    3.88123   3.94202   3.97819   4.00340   4.01651
 Alpha virt. eigenvalues --    4.03472   4.05351   4.07880   4.09620   4.10569
 Alpha virt. eigenvalues --    4.12275   4.13414   4.16769   4.20061   4.22049
 Alpha virt. eigenvalues --    4.26129   4.27768   4.31670   4.32385   4.35516
 Alpha virt. eigenvalues --    4.37820   4.37960   4.44880   4.46194   4.49023
 Alpha virt. eigenvalues --    4.53920   4.56821   4.61048   4.66111   4.71083
          Condensed to atoms (all electrons):
 Mulliken charges:
               1
     1  N   -0.763865
     2  C   -0.121972
     3  C    0.623791
     4  O   -0.481817
     5  C   -0.365683
     6  C    0.012695
     7  C   -0.010672
     8  C    0.085003
     9  C    0.310164
    10  C   -0.216815
    11  N   -0.681490
    12  C   -0.157819
    13  C   -0.137264
    14  C   -0.147518
    15  H    0.409946
    16  H    0.218788
    17  H    0.161573
    18  H    0.205271
    19  H    0.163344
    20  H    0.343127
    21  H    0.141102
    22  H    0.143600
    23  H    0.147278
    24  H    0.149442
    25  H    0.388589
    26  H    0.413854
    27  N   -0.633286
    28  C   -0.058664
    29  C    0.623243
    30  O   -0.476269
    31  C   -0.070223
    32  C   -0.267061
    33  C   -0.463601
    34  C   -0.452181
    35  H    0.345834
    36  H    0.156208
    37  H    0.188700
    38  H    0.118569
    39  H    0.153772
    40  H    0.141455
    41  H    0.127341
    42  H    0.166802
    43  H    0.150937
    44  H    0.146994
    45  H    0.162812
    46  N   -0.614589
    47  C   -0.013373
    48  C    0.591583
    49  O   -0.626981
    50  C   -0.268688
    51  C   -0.310256
    52  C   -0.158236
    53  N   -0.603771
    54  C    0.773740
    55  N   -0.749936
    56  N   -0.777009
    57  O   -0.597771
    58  H    0.341544
    59  H    0.139220
    60  H    0.162958
    61  H    0.161279
    62  H    0.183009
    63  H    0.175301
    64  H    0.177622
    65  H    0.183910
    66  H    0.384005
    67  H    0.380392
    68  H    0.386296
    69  H    0.420967
    70  H    0.364747
 Sum of Mulliken charges =   1.00000
 Mulliken charges with hydrogens summed into heavy atoms:
               1
     1  N    0.448524
     2  C    0.096816
     3  C    0.623791
     4  O   -0.481817
     5  C    0.001161
     6  C    0.012695
     7  C    0.152672
     8  C    0.085003
     9  C    0.310164
    10  C   -0.075713
    11  N   -0.338363
    12  C   -0.014219
    13  C    0.010015
    14  C    0.001924
    27  N   -0.287453
    28  C    0.097544
    29  C    0.623243
    30  O   -0.476269
    31  C    0.118477
    32  C    0.005281
    33  C   -0.028003
    34  C    0.008562
    46  N   -0.273045
    47  C    0.125847
    48  C    0.591583
    49  O   -0.626981
    50  C    0.055550
    51  C    0.048053
    52  C    0.203296
    53  N   -0.219765
    54  C    0.773740
    55  N    0.016753
    56  N    0.008705
    57  O   -0.597771
 Electronic spatial extent (au):  <R**2>=        8526694.1494
 Charge=              1.0000 electrons
 Dipole moment (field-independent basis, Debye):
    X=           -456.9452    Y=            -49.6219    Z=             16.3068  Tot=            459.9208
 Quadrupole moment (field-independent basis, Debye-Ang):
   XX=          43307.1773   YY=            298.6330   ZZ=            -63.0762
   XY=           4714.1187   XZ=          -1530.4052   YZ=           -204.1697
 Traceless Quadrupole moment (field-independent basis, Debye-Ang):
   XX=          28792.9326   YY=         -14215.6117   ZZ=         -14577.3209
   XY=           4714.1187   XZ=          -1530.4052   YZ=           -204.1697
 Octapole moment (field-independent basis, Debye-Ang**2):
  XXX=       -4088510.0128  YYY=           3841.7960  ZZZ=          -1719.4757  XYY=         -28138.6874
  XXY=        -445485.7382  XXZ=         142846.3066  XZZ=           6389.2690  YZZ=           1138.1820
  YYZ=           1638.0583  XYZ=          19152.8846
 Hexadecapole moment (field-independent basis, Debye-Ang**3):
 XXXX=      384411819.5455 YYYY=        -212394.6650 ZZZZ=         -28033.9997 XXXY=       41866858.7091
 XXXZ=      -13257194.5434 YYYX=        -373953.6345 YYYZ=           8482.7997 ZZZX=         165198.0246
 ZZZY=          28125.3970 XXYY=        2614932.2811 XXZZ=        -650843.5001 YYZZ=         -26115.1190
 XXYZ=       -1785196.1253 YYXZ=        -152723.4704 ZZXY=        -113631.6555
 N-N= 3.816433812674D+03 E-N=-1.128886326674D+04  KE= 1.567319731520D+03
 Unable to Open any file for archive entry.
 1\1\GINC-QML-003\SP\RB3LYP\6-31G(d)\C23H36N7O4(1+)\KENGMITH\24-May-202
 2\0\\# B3LYP/6-31G* empiricaldispersion=gd3 guess=read geom=check nosy
 mm integral(ultrafinegrid)\\Candidate Structure: Conf:472 Charge calc 
 in gas phase\\1,1\N,0,-94.1649535137,-13.6882681221,5.2499777029\C,0,-
 94.6322359168,-15.0067636569,5.8174289725\C,0,-95.5804309367,-15.76042
 82719,4.8574026408\O,0,-95.2369985032,-16.8460983087,4.4177428683\C,0,
 -95.2160809117,-14.7516471008,7.2217984798\C,0,-94.2146456388,-14.0931
 096772,8.1222885529\C,0,-94.2608680157,-12.8073662182,8.615343124\C,0,
 -92.9820760309,-14.6754205464,8.599729202\C,0,-92.3325479896,-13.68517
 45788,9.3838118974\C,0,-92.3754970352,-15.9358956762,8.4484392434\N,0,
 -93.1347958661,-12.558418433,9.3694148782\C,0,-91.1030917927,-13.91532
 03254,10.0099698619\C,0,-91.155167389,-16.1684109979,9.0680554392\C,0,
 -90.5258328508,-15.1675372523,9.8388166807\H,0,-94.9649531012,-13.0249
 912331,5.0300922934\H,0,-93.7435538057,-15.6345634523,5.8900128954\H,0
 ,-96.1233501278,-14.1405241757,7.1406734848\H,0,-95.5295062561,-15.724
 8637801,7.618850452\H,0,-95.0331578328,-12.0568701686,8.509326556\H,0,
 -92.9631699444,-11.7159310893,9.8969346056\H,0,-92.8586367679,-16.7217
 809145,7.8732309055\H,0,-90.6211557174,-13.1484449602,10.6096012575\H,
 0,-90.676854262,-17.1377492455,8.9653726045\H,0,-89.5729372947,-15.382
 6413669,10.3129060452\H,0,-93.5250442835,-13.2496484944,5.923939077\H,
 0,-93.7268496944,-13.789469165,4.3225692686\N,0,-96.7869882379,-15.180
 8070632,4.6226920998\C,0,-97.8257012916,-15.7928936579,3.7809097733\C,
 0,-97.3399524335,-15.8953920514,2.3110084053\O,0,-97.2126154143,-16.97
 05797575,1.7516086227\C,0,-98.33800424,-17.1571411861,4.2998220956\C,0
 ,-99.6717191807,-17.4963211012,3.5977079639\C,0,-98.496820522,-17.1434
 783879,5.8259571878\C,0,-100.0830929892,-18.9654461394,3.7393513761\H,
 0,-96.9546238908,-14.2371377011,4.9437408225\H,0,-98.663917558,-15.089
 7459831,3.8177268244\H,0,-97.5946923637,-17.9081717621,4.0201791111\H,
 0,-100.4625990991,-16.8454346773,4.0021325483\H,0,-99.5867045997,-17.2
 683505355,2.5302179493\H,0,-97.5348614736,-17.0381543514,6.3364163443\
 H,0,-99.1498696377,-16.3233218807,6.153853348\H,0,-98.9438463856,-18.0
 795437606,6.1717864837\H,0,-101.0194111615,-19.159231903,3.2050403902\
 H,0,-100.2365065881,-19.2549482901,4.7846123687\H,0,-99.3136768,-19.62
 13636814,3.3166448691\N,0,-97.0640108957,-14.737698218,1.6030632807\C,
 0,-97.0408768497,-13.3131625384,1.9428008965\C,0,-95.9079840044,-12.97
 63147536,2.9437739701\O,0,-96.2115788895,-12.4255694933,4.0568692806\C
 ,0,-98.4321311873,-12.7372544953,2.2743552044\C,0,-98.5255634755,-11.2
 195647504,2.5494489733\C,0,-97.7686025325,-10.2889094971,1.5900534681\
 N,0,-96.3179683214,-10.3385117453,1.8646132541\C,0,-95.3476301874,-10.
 2539401064,0.9503330221\N,0,-95.5716792615,-9.5868036237,-0.1965469691
 \N,0,-94.1673483195,-10.8410950955,1.1845087079\O,0,-94.7300153547,-13
 .2249666117,2.5695540837\H,0,-96.6612580185,-14.9773198244,0.705722676
 \H,0,-96.7093592722,-12.8417132585,1.0108937288\H,0,-99.082238343,-12.
 9983610043,1.4309493381\H,0,-98.8470803705,-13.2406725715,3.1511473821
 \H,0,-98.1898599039,-11.0112089118,3.5697490564\H,0,-99.5821959694,-10
 .9330898155,2.5043293066\H,0,-97.9316151543,-10.5811347863,0.545737142
 6\H,0,-98.1270670918,-9.2603182866,1.7147214894\H,0,-96.0554030977,-10
 .6888414044,2.7838421454\H,0,-94.9284523976,-9.648246808,-0.9724656541
 \H,0,-96.3177090438,-8.9092072082,-0.2632720189\H,0,-94.1534160333,-11
 .7059899661,1.7508799855\H,0,-93.3810519591,-10.6572768234,0.576768605
 9\\Version=ES64L-G16RevC.01\HF=-1582.2386473\RMSD=1.080e-09\Dipole=1.0
 543488,7.1965502,-2.3502689\Quadrupole=21406.8396787,-10568.9588466,-1
 0837.8808321,3504.8317444,-1137.8187353,-151.7951476\PG=C01 [X(C23H36N
 7O4)]\\@
 The archive entry for this job was punched.


 NO MATTER HOW THIN YOU SLICE IT, IT'S STILL BALONEY

                                   -- ALFRED E. SMITH
 Job cpu time:       0 days  0 hours  5 minutes 29.2 seconds.
 Elapsed time:       0 days  0 hours  1 minutes 22.8 seconds.
 File lengths (MBytes):  RWF=    296 Int=      0 D2E=      0 Chk=     40 Scr=     16
 Normal termination of Gaussian 16 at Tue May 24 23:10:21 2022.
