 Entering Gaussian System, Link 0=/opt/software/Gaussian/g16-AVX-C.01/g16/g16
 Input=charge-conf-222.com
 Output=charge-conf-222.log
 Initial command:
 /opt/software/Gaussian/g16-AVX-C.01/g16/l1.exe "/mnt/gs18/scratch/users/kengmith/Gau-37789.inp" -scrdir="/mnt/gs18/scratch/users/kengmith/"
 Entering Link 1 = /opt/software/Gaussian/g16-AVX-C.01/g16/l1.exe PID=     37799.
  
 Copyright (c) 1988-2019, Gaussian, Inc.  All Rights Reserved.
  
 This is part of the Gaussian(R) 16 program.  It is based on
 the Gaussian(R) 09 system (copyright 2009, Gaussian, Inc.),
 the Gaussian(R) 03 system (copyright 2003, Gaussian, Inc.),
 the Gaussian(R) 98 system (copyright 1998, Gaussian, Inc.),
 the Gaussian(R) 94 system (copyright 1995, Gaussian, Inc.),
 the Gaussian 92(TM) system (copyright 1992, Gaussian, Inc.),
 the Gaussian 90(TM) system (copyright 1990, Gaussian, Inc.),
 the Gaussian 88(TM) system (copyright 1988, Gaussian, Inc.),
 the Gaussian 86(TM) system (copyright 1986, Carnegie Mellon
 University), and the Gaussian 82(TM) system (copyright 1983,
 Carnegie Mellon University). Gaussian is a federally registered
 trademark of Gaussian, Inc.
  
 This software contains proprietary and confidential information,
 including trade secrets, belonging to Gaussian, Inc.
  
 This software is provided under written license and may be
 used, copied, transmitted, or stored only in accord with that
 written license.
  
 The following legend is applicable only to US Government
 contracts under FAR:
  
                    RESTRICTED RIGHTS LEGEND
  
 Use, reproduction and disclosure by the US Government is
 subject to restrictions as set forth in subparagraphs (a)
 and (c) of the Commercial Computer Software - Restricted
 Rights clause in FAR 52.227-19.
  
 Gaussian, Inc.
 340 Quinnipiac St., Bldg. 40, Wallingford CT 06492
  
  
 ---------------------------------------------------------------
 Warning -- This program may not be used in any manner that
 competes with the business of Gaussian, Inc. or will provide
 assistance to any competitor of Gaussian, Inc.  The licensee
 of this program is prohibited from giving any competitor of
 Gaussian, Inc. access to this program.  By using this program,
 the user acknowledges that Gaussian, Inc. is engaged in the
 business of creating and licensing software in the field of
 computational chemistry and represents and warrants to the
 licensee that it is not a competitor of Gaussian, Inc. and that
 it will not use this program in any manner prohibited above.
 ---------------------------------------------------------------
  

 Cite this work as:
 Gaussian 16, Revision C.01,
 M. J. Frisch, G. W. Trucks, H. B. Schlegel, G. E. Scuseria, 
 M. A. Robb, J. R. Cheeseman, G. Scalmani, V. Barone, 
 G. A. Petersson, H. Nakatsuji, X. Li, M. Caricato, A. V. Marenich, 
 J. Bloino, B. G. Janesko, R. Gomperts, B. Mennucci, H. P. Hratchian, 
 J. V. Ortiz, A. F. Izmaylov, J. L. Sonnenberg, D. Williams-Young, 
 F. Ding, F. Lipparini, F. Egidi, J. Goings, B. Peng, A. Petrone, 
 T. Henderson, D. Ranasinghe, V. G. Zakrzewski, J. Gao, N. Rega, 
 G. Zheng, W. Liang, M. Hada, M. Ehara, K. Toyota, R. Fukuda, 
 J. Hasegawa, M. Ishida, T. Nakajima, Y. Honda, O. Kitao, H. Nakai, 
 T. Vreven, K. Throssell, J. A. Montgomery, Jr., J. E. Peralta, 
 F. Ogliaro, M. J. Bearpark, J. J. Heyd, E. N. Brothers, K. N. Kudin, 
 V. N. Staroverov, T. A. Keith, R. Kobayashi, J. Normand, 
 K. Raghavachari, A. P. Rendell, J. C. Burant, S. S. Iyengar, 
 J. Tomasi, M. Cossi, J. M. Millam, M. Klene, C. Adamo, R. Cammi, 
 J. W. Ochterski, R. L. Martin, K. Morokuma, O. Farkas, 
 J. B. Foresman, and D. J. Fox, Gaussian, Inc., Wallingford CT, 2019.
 
 ******************************************
 Gaussian 16:  ES64L-G16RevC.01  3-Jul-2019
                24-May-2022 
 ******************************************
 %mem=8gb
 %nproc=4
 Will use up to    4 processors via shared memory.
 %chk=conf-222.chk
 ----------------------------------------------------------------------
 # B3LYP/6-31G* empiricaldispersion=gd3 guess=read geom=check nosymm in
 tegral(ultrafinegrid)
 ----------------------------------------------------------------------
 1/29=2,38=1,172=1/1;
 2/12=2,15=1,40=1/2;
 3/5=1,6=6,7=1,11=2,14=-4,25=1,30=1,74=-5,75=-5,116=-2,124=31/1,2,3;
 4/5=1/1;
 5/5=2,38=6/2;
 6/7=2,8=2,9=2,10=2,28=1/1;
 99/5=1,9=1/99;
 ------------------------------------------------------
 Candidate Structure: Conf:222 Charge calc in gas phase
 ------------------------------------------------------
 Structure from the checkpoint file:  "conf-222.chk"
 Charge =  1 Multiplicity = 1
 Redundant internal coordinates found in file.  (old form).
 N,0,-95.6477770252,-12.8318754912,3.028016424
 C,0,-96.8909850473,-12.0208351604,3.3752479478
 C,0,-96.6074556107,-11.4035759346,4.763868513
 O,0,-96.3997248221,-10.2082763201,4.8617896463
 C,0,-98.1293652753,-12.9318798277,3.2357122193
 C,0,-98.0773288204,-13.7490417856,1.980148206
 C,0,-97.7735266129,-15.0896628824,1.9037403988
 C,0,-98.2125661971,-13.2710652061,0.625820203
 C,0,-97.9963940841,-14.3864693567,-0.2289377905
 C,0,-98.4952774316,-12.0161663814,0.0560417037
 N,0,-97.7246642242,-15.4749910736,0.5803181224
 C,0,-98.0624890639,-14.2819959199,-1.622111325
 C,0,-98.5557454326,-11.9075487317,-1.326851229
 C,0,-98.342364351,-13.0295395617,-2.1559410403
 H,0,-94.7874519297,-12.3482154467,3.3341723006
 H,0,-96.9265369743,-11.1975040952,2.660925175
 H,0,-98.2009962183,-13.6023434432,4.096817561
 H,0,-99.0103150674,-12.280109791,3.2617530951
 H,0,-97.5555771759,-15.7845367479,2.7042567429
 H,0,-97.5975515107,-16.4215200209,0.2563045717
 H,0,-98.6771135852,-11.149078383,0.686530555
 H,0,-97.9022110555,-15.1448722791,-2.2624271245
 H,0,-98.7765439909,-10.9465352294,-1.7816669213
 H,0,-98.4011503801,-12.9123911665,-3.2339018903
 H,0,-95.6678158974,-13.7455038594,3.5439429807
 H,0,-95.6332803933,-13.0302275043,2.0233524876
 N,0,-96.544987847,-12.3254876515,5.7840941981
 C,0,-95.4246183905,-12.3719361964,6.7445783909
 C,0,-94.2321097974,-12.9474037134,5.9550529065
 O,0,-93.7285681265,-12.2700980154,5.0531577601
 C,0,-95.0511424877,-11.0296674643,7.4099509366
 C,0,-93.8960588273,-11.2665348388,8.4067206806
 C,0,-96.2861806102,-10.4143506695,8.0785827489
 C,0,-93.343674392,-9.9799397727,9.0298546239
 H,0,-96.7503331986,-13.2774654389,5.4907830004
 H,0,-95.7339753144,-13.0528308625,7.5364258417
 H,0,-94.699261914,-10.3573113533,6.6222772581
 H,0,-94.2399522802,-11.9451151005,9.2027673397
 H,0,-93.0727767223,-11.783749644,7.8963579273
 H,0,-96.0398374556,-9.4486700314,8.5282933709
 H,0,-97.079992746,-10.2445580408,7.3484779822
 H,0,-96.6719155236,-11.0668638933,8.8732682672
 H,0,-94.0842612666,-9.4784047757,9.6604472573
 H,0,-93.0307892664,-9.2734468243,8.2521365088
 H,0,-92.4713880899,-10.196688896,9.6557441701
 N,0,-93.6866788019,-14.1749816114,6.2627467168
 C,0,-94.3786308444,-15.4505992544,6.5330379176
 C,0,-95.3211658189,-15.8532899341,5.3457985173
 O,0,-95.9414626638,-14.9265972236,4.7576450314
 C,0,-95.0741124413,-15.512178716,7.913717409
 C,0,-95.5907486936,-16.8872721163,8.3861288664
 C,0,-94.5739888469,-18.0392947344,8.4173426554
 N,0,-94.3609798282,-18.5157709343,7.0468307748
 C,0,-93.297752297,-19.1469973489,6.5797938181
 N,0,-92.4440273647,-19.7988571648,7.389562694
 N,0,-93.0491924929,-19.0844435916,5.2528725514
 O,0,-95.4053866414,-17.0799860568,5.0638383423
 H,0,-92.8891848139,-14.3167334362,5.6474525854
 H,0,-93.5649144795,-16.1804388531,6.5510561715
 H,0,-94.3607530439,-15.1150435889,8.6461118797
 H,0,-95.9395873695,-14.8453115161,7.9212602944
 H,0,-96.447684219,-17.2008506253,7.776956557
 H,0,-95.9753795172,-16.7564389369,9.4031248774
 H,0,-93.6191232776,-17.7110067675,8.8505317749
 H,0,-94.9647350545,-18.8554470385,9.0373957906
 H,0,-94.9302236519,-18.0432368886,6.3040163474
 H,0,-91.5717027218,-20.1705387575,7.0437318133
 H,0,-92.6962677801,-20.0062993756,8.3443213979
 H,0,-93.6926871013,-18.5296945427,4.6928223612
 H,0,-92.5485852613,-19.8294432343,4.7890126331
 Recover connectivity data from disk.
                           ----------------------------
                           !    Current Parameters    !
                           ! (Angstroms and Degrees)  !
 --------------------------                            --------------------------
 ! Name  Definition              Value                                          !
 --------------------------------------------------------------------------------
 ! R1    R(1,2)                  1.5244                                         !
 ! R2    R(1,15)                 1.0334                                         !
 ! R3    R(1,25)                 1.0494                                         !
 ! R4    R(1,26)                 1.0242                                         !
 ! R5    R(2,3)                  1.5459                                         !
 ! R6    R(2,5)                  1.5437                                         !
 ! R7    R(2,16)                 1.0906                                         !
 ! R8    R(3,4)                  1.2172                                         !
 ! R9    R(3,27)                 1.3765                                         !
 ! R10   R(5,6)                  1.499                                          !
 ! R11   R(5,17)                 1.0937                                         !
 ! R12   R(5,18)                 1.0962                                         !
 ! R13   R(6,7)                  1.3767                                         !
 ! R14   R(6,8)                  1.4426                                         !
 ! R15   R(7,11)                 1.3792                                         !
 ! R16   R(7,19)                 1.0822                                         !
 ! R17   R(8,9)                  1.4218                                         !
 ! R18   R(8,10)                 1.4069                                         !
 ! R19   R(9,11)                 1.3833                                         !
 ! R20   R(9,12)                 1.3986                                         !
 ! R21   R(10,13)                1.3885                                         !
 ! R22   R(10,21)                1.0874                                         !
 ! R23   R(11,20)                1.0085                                         !
 ! R24   R(12,14)                1.3899                                         !
 ! R25   R(12,22)                1.0864                                         !
 ! R26   R(13,14)                1.4113                                         !
 ! R27   R(13,23)                1.0859                                         !
 ! R28   R(14,24)                1.0859                                         !
 ! R29   R(27,28)                1.4765                                         !
 ! R30   R(27,35)                1.0171                                         !
 ! R31   R(28,29)                1.5416                                         !
 ! R32   R(28,31)                1.544                                          !
 ! R33   R(28,36)                1.0892                                         !
 ! R34   R(29,30)                1.2352                                         !
 ! R35   R(29,46)                1.3781                                         !
 ! R36   R(31,32)                1.544                                          !
 ! R37   R(31,33)                1.5333                                         !
 ! R38   R(31,37)                1.0938                                         !
 ! R39   R(32,34)                1.5326                                         !
 ! R40   R(32,38)                1.1011                                         !
 ! R41   R(32,39)                1.0981                                         !
 ! R42   R(33,40)                1.0934                                         !
 ! R43   R(33,41)                1.0918                                         !
 ! R44   R(33,42)                1.0982                                         !
 ! R45   R(34,43)                1.0944                                         !
 ! R46   R(34,44)                1.0963                                         !
 ! R47   R(34,45)                1.0953                                         !
 ! R48   R(46,47)                1.4762                                         !
 ! R49   R(46,58)                1.0172                                         !
 ! R50   R(47,48)                1.5685                                         !
 ! R51   R(47,50)                1.5472                                         !
 ! R52   R(47,59)                1.0932                                         !
 ! R53   R(48,49)                1.2607                                         !
 ! R54   R(48,57)                1.2615                                         !
 ! R55   R(50,51)                1.543                                          !
 ! R56   R(50,60)                1.0968                                         !
 ! R57   R(50,61)                1.0926                                         !
 ! R58   R(51,52)                1.5369                                         !
 ! R59   R(51,62)                1.0972                                         !
 ! R60   R(51,63)                1.0951                                         !
 ! R61   R(52,53)                1.4665                                         !
 ! R62   R(52,64)                1.0987                                         !
 ! R63   R(52,65)                1.0969                                         !
 ! R64   R(53,54)                1.3218                                         !
 ! R65   R(53,66)                1.0484                                         !
 ! R66   R(54,55)                1.3452                                         !
 ! R67   R(54,56)                1.3514                                         !
 ! R68   R(55,67)                1.0093                                         !
 ! R69   R(55,68)                1.0091                                         !
 ! R70   R(56,69)                1.0176                                         !
 ! R71   R(56,70)                1.0103                                         !
 ! A1    A(2,1,15)             111.2517                                         !
 ! A2    A(2,1,25)             109.6106                                         !
 ! A3    A(2,1,26)             109.7564                                         !
 ! A4    A(15,1,25)            106.1244                                         !
 ! A5    A(15,1,26)            111.6847                                         !
 ! A6    A(25,1,26)            108.2961                                         !
 ! A7    A(1,2,3)              105.5137                                         !
 ! A8    A(1,2,5)              108.6414                                         !
 ! A9    A(1,2,16)             106.2029                                         !
 ! A10   A(3,2,5)              117.6444                                         !
 ! A11   A(3,2,16)             107.0315                                         !
 ! A12   A(5,2,16)             111.1114                                         !
 ! A13   A(2,3,4)              119.7158                                         !
 ! A14   A(2,3,27)             113.9968                                         !
 ! A15   A(4,3,27)             126.1825                                         !
 ! A16   A(2,5,6)              111.6904                                         !
 ! A17   A(2,5,17)             110.0696                                         !
 ! A18   A(2,5,18)             106.9571                                         !
 ! A19   A(6,5,17)             109.1215                                         !
 ! A20   A(6,5,18)             111.8355                                         !
 ! A21   A(17,5,18)            107.0475                                         !
 ! A22   A(5,6,7)              125.8028                                         !
 ! A23   A(5,6,8)              127.0497                                         !
 ! A24   A(7,6,8)              106.9317                                         !
 ! A25   A(6,7,11)             109.4582                                         !
 ! A26   A(6,7,19)             128.9493                                         !
 ! A27   A(11,7,19)            121.5504                                         !
 ! A28   A(6,8,9)              106.8714                                         !
 ! A29   A(6,8,10)             133.9958                                         !
 ! A30   A(9,8,10)             119.1327                                         !
 ! A31   A(8,9,11)             107.1867                                         !
 ! A32   A(8,9,12)             122.2117                                         !
 ! A33   A(11,9,12)            130.6                                            !
 ! A34   A(8,10,13)            118.8091                                         !
 ! A35   A(8,10,21)            120.6663                                         !
 ! A36   A(13,10,21)           120.5192                                         !
 ! A37   A(7,11,9)             109.5441                                         !
 ! A38   A(7,11,20)            125.0967                                         !
 ! A39   A(9,11,20)            125.1235                                         !
 ! A40   A(9,12,14)            117.3474                                         !
 ! A41   A(9,12,22)            121.3852                                         !
 ! A42   A(14,12,22)           121.2674                                         !
 ! A43   A(10,13,14)           121.0862                                         !
 ! A44   A(10,13,23)           119.686                                          !
 ! A45   A(14,13,23)           119.2267                                         !
 ! A46   A(12,14,13)           121.4116                                         !
 ! A47   A(12,14,24)           119.299                                          !
 ! A48   A(13,14,24)           119.2891                                         !
 ! A49   A(3,27,28)            122.5255                                         !
 ! A50   A(3,27,35)            113.8272                                         !
 ! A51   A(28,27,35)           108.1413                                         !
 ! A52   A(27,28,29)           105.4003                                         !
 ! A53   A(27,28,31)           115.8838                                         !
 ! A54   A(27,28,36)           106.0862                                         !
 ! A55   A(29,28,31)           110.9842                                         !
 ! A56   A(29,28,36)           111.019                                          !
 ! A57   A(31,28,36)           107.3897                                         !
 ! A58   A(28,29,30)           118.9864                                         !
 ! A59   A(28,29,46)           121.6232                                         !
 ! A60   A(30,29,46)           119.3493                                         !
 ! A61   A(28,31,32)           109.0143                                         !
 ! A62   A(28,31,33)           109.9963                                         !
 ! A63   A(28,31,37)           107.5707                                         !
 ! A64   A(32,31,33)           112.4972                                         !
 ! A65   A(32,31,37)           108.5748                                         !
 ! A66   A(33,31,37)           109.0557                                         !
 ! A67   A(31,32,34)           113.7876                                         !
 ! A68   A(31,32,38)           109.1245                                         !
 ! A69   A(31,32,39)           109.4576                                         !
 ! A70   A(34,32,38)           109.6324                                         !
 ! A71   A(34,32,39)           108.3105                                         !
 ! A72   A(38,32,39)           106.2541                                         !
 ! A73   A(31,33,40)           110.6291                                         !
 ! A74   A(31,33,41)           110.8815                                         !
 ! A75   A(31,33,42)           111.1018                                         !
 ! A76   A(40,33,41)           107.5481                                         !
 ! A77   A(40,33,42)           107.8349                                         !
 ! A78   A(41,33,42)           108.7186                                         !
 ! A79   A(32,34,43)           112.0309                                         !
 ! A80   A(32,34,44)           110.82                                           !
 ! A81   A(32,34,45)           110.6873                                         !
 ! A82   A(43,34,44)           107.8526                                         !
 ! A83   A(43,34,45)           107.4797                                         !
 ! A84   A(44,34,45)           107.7956                                         !
 ! A85   A(29,46,47)           128.6913                                         !
 ! A86   A(29,46,58)           107.4205                                         !
 ! A87   A(47,46,58)           110.9678                                         !
 ! A88   A(46,47,48)           111.4045                                         !
 ! A89   A(46,47,50)           114.1109                                         !
 ! A90   A(46,47,59)           103.3572                                         !
 ! A91   A(48,47,50)           113.2748                                         !
 ! A92   A(48,47,59)           106.76                                           !
 ! A93   A(50,47,59)           107.0562                                         !
 ! A94   A(47,48,49)           117.392                                          !
 ! A95   A(47,48,57)           117.3204                                         !
 ! A96   A(49,48,57)           125.285                                          !
 ! A97   A(47,50,51)           117.3345                                         !
 ! A98   A(47,50,60)           106.805                                          !
 ! A99   A(47,50,61)           109.7511                                         !
 ! A100  A(51,50,60)           109.6333                                         !
 ! A101  A(51,50,61)           106.0564                                         !
 ! A102  A(60,50,61)           106.8329                                         !
 ! A103  A(50,51,52)           116.9182                                         !
 ! A104  A(50,51,62)           110.2565                                         !
 ! A105  A(50,51,63)           107.1839                                         !
 ! A106  A(52,51,62)           108.2862                                         !
 ! A107  A(52,51,63)           107.6408                                         !
 ! A108  A(62,51,63)           105.9879                                         !
 ! A109  A(51,52,53)           108.7027                                         !
 ! A110  A(51,52,64)           111.0386                                         !
 ! A111  A(51,52,65)           109.4836                                         !
 ! A112  A(53,52,64)           109.8342                                         !
 ! A113  A(53,52,65)           109.7707                                         !
 ! A114  A(64,52,65)           108.0004                                         !
 ! A115  A(52,53,54)           127.0286                                         !
 ! A116  A(52,53,66)           115.9024                                         !
 ! A117  A(54,53,66)           113.6825                                         !
 ! A118  A(53,54,55)           121.9542                                         !
 ! A119  A(53,54,56)           118.2147                                         !
 ! A120  A(55,54,56)           119.7858                                         !
 ! A121  A(54,55,67)           121.3801                                         !
 ! A122  A(54,55,68)           120.7008                                         !
 ! A123  A(67,55,68)           117.6807                                         !
 ! A124  A(54,56,69)           116.6993                                         !
 ! A125  A(54,56,70)           120.5159                                         !
 ! A126  A(69,56,70)           117.5572                                         !
 ! D1    D(15,1,2,3)           -38.5136                                         !
 ! D2    D(15,1,2,5)          -165.5145                                         !
 ! D3    D(15,1,2,16)           74.8901                                         !
 ! D4    D(25,1,2,3)            78.5452                                         !
 ! D5    D(25,1,2,5)           -48.4557                                         !
 ! D6    D(25,1,2,16)         -168.0512                                         !
 ! D7    D(26,1,2,3)          -162.6343                                         !
 ! D8    D(26,1,2,5)            70.3648                                         !
 ! D9    D(26,1,2,16)          -49.2307                                         !
 ! D10   D(1,2,3,4)            108.7521                                         !
 ! D11   D(1,2,3,27)           -67.7519                                         !
 ! D12   D(5,2,3,4)           -129.9244                                         !
 ! D13   D(5,2,3,27)            53.5717                                         !
 ! D14   D(16,2,3,4)            -4.0722                                         !
 ! D15   D(16,2,3,27)          179.4239                                         !
 ! D16   D(1,2,5,6)            -44.5657                                         !
 ! D17   D(1,2,5,17)            76.8096                                         !
 ! D18   D(1,2,5,18)          -167.233                                          !
 ! D19   D(3,2,5,6)           -164.2583                                         !
 ! D20   D(3,2,5,17)           -42.8829                                         !
 ! D21   D(3,2,5,18)            73.0745                                         !
 ! D22   D(16,2,5,6)            71.9168                                         !
 ! D23   D(16,2,5,17)         -166.7079                                         !
 ! D24   D(16,2,5,18)          -50.7505                                         !
 ! D25   D(2,3,27,28)          129.7281                                         !
 ! D26   D(2,3,27,35)           -3.532                                          !
 ! D27   D(4,3,27,28)          -46.5098                                         !
 ! D28   D(4,3,27,35)         -179.7699                                         !
 ! D29   D(2,5,6,7)            104.3256                                         !
 ! D30   D(2,5,6,8)            -69.6282                                         !
 ! D31   D(17,5,6,7)           -17.5973                                         !
 ! D32   D(17,5,6,8)           168.4488                                         !
 ! D33   D(18,5,6,7)          -135.8386                                         !
 ! D34   D(18,5,6,8)            50.2076                                         !
 ! D35   D(5,6,7,11)          -175.5212                                         !
 ! D36   D(5,6,7,19)             2.1126                                         !
 ! D37   D(8,6,7,11)            -0.5625                                         !
 ! D38   D(8,6,7,19)           177.0713                                         !
 ! D39   D(5,6,8,9)            175.7462                                         !
 ! D40   D(5,6,8,10)            -4.3416                                         !
 ! D41   D(7,6,8,9)              0.8693                                         !
 ! D42   D(7,6,8,10)          -179.2184                                         !
 ! D43   D(6,7,11,9)             0.0296                                         !
 ! D44   D(6,7,11,20)         -174.619                                          !
 ! D45   D(19,7,11,9)         -177.8112                                         !
 ! D46   D(19,7,11,20)           7.5402                                         !
 ! D47   D(6,8,9,11)            -0.8511                                         !
 ! D48   D(6,8,9,12)           179.5564                                         !
 ! D49   D(10,8,9,11)          179.2212                                         !
 ! D50   D(10,8,9,12)           -0.3713                                         !
 ! D51   D(6,8,10,13)         -179.8303                                         !
 ! D52   D(6,8,10,21)           -0.6772                                         !
 ! D53   D(9,8,10,13)            0.0736                                         !
 ! D54   D(9,8,10,21)          179.2267                                         !
 ! D55   D(8,9,11,7)             0.5247                                         !
 ! D56   D(8,9,11,20)          175.1715                                         !
 ! D57   D(12,9,11,7)         -179.9294                                         !
 ! D58   D(12,9,11,20)          -5.2826                                         !
 ! D59   D(8,9,12,14)            0.4233                                         !
 ! D60   D(8,9,12,22)         -179.5412                                         !
 ! D61   D(11,9,12,14)        -179.0639                                         !
 ! D62   D(11,9,12,22)           0.9716                                         !
 ! D63   D(8,10,13,14)           0.1509                                         !
 ! D64   D(8,10,13,23)         179.7745                                         !
 ! D65   D(21,10,13,14)       -179.0035                                         !
 ! D66   D(21,10,13,23)          0.6201                                         !
 ! D67   D(9,12,14,13)          -0.1907                                         !
 ! D68   D(9,12,14,24)        -179.9987                                         !
 ! D69   D(22,12,14,13)        179.7739                                         !
 ! D70   D(22,12,14,24)         -0.0341                                         !
 ! D71   D(10,13,14,12)         -0.0933                                         !
 ! D72   D(10,13,14,24)        179.7147                                         !
 ! D73   D(23,13,14,12)       -179.7186                                         !
 ! D74   D(23,13,14,24)          0.0894                                         !
 ! D75   D(3,27,28,29)         -73.0298                                         !
 ! D76   D(3,27,28,31)          50.099                                          !
 ! D77   D(3,27,28,36)         169.1546                                         !
 ! D78   D(35,27,28,29)         62.4608                                         !
 ! D79   D(35,27,28,31)       -174.4105                                         !
 ! D80   D(35,27,28,36)        -55.3549                                         !
 ! D81   D(27,28,29,30)         68.3162                                         !
 ! D82   D(27,28,29,46)       -114.035                                          !
 ! D83   D(31,28,29,30)        -57.8847                                         !
 ! D84   D(31,28,29,46)        119.764                                          !
 ! D85   D(36,28,29,30)       -177.2444                                         !
 ! D86   D(36,28,29,46)          0.4043                                         !
 ! D87   D(27,28,31,32)        178.4111                                         !
 ! D88   D(27,28,31,33)         54.6255                                         !
 ! D89   D(27,28,31,37)        -64.038                                          !
 ! D90   D(29,28,31,32)        -61.4402                                         !
 ! D91   D(29,28,31,33)        174.7743                                         !
 ! D92   D(29,28,31,37)         56.1108                                         !
 ! D93   D(36,28,31,32)         60.0716                                         !
 ! D94   D(36,28,31,33)        -63.7139                                         !
 ! D95   D(36,28,31,37)        177.6226                                         !
 ! D96   D(28,29,46,47)         46.0144                                         !
 ! D97   D(28,29,46,58)       -176.9477                                         !
 ! D98   D(30,29,46,47)       -136.3453                                         !
 ! D99   D(30,29,46,58)          0.6927                                         !
 ! D100  D(28,31,32,34)        174.2853                                         !
 ! D101  D(28,31,32,38)        -62.9306                                         !
 ! D102  D(28,31,32,39)         52.9627                                         !
 ! D103  D(33,31,32,34)        -63.4245                                         !
 ! D104  D(33,31,32,38)         59.3597                                         !
 ! D105  D(33,31,32,39)        175.253                                          !
 ! D106  D(37,31,32,34)         57.371                                          !
 ! D107  D(37,31,32,38)       -179.8449                                         !
 ! D108  D(37,31,32,39)        -63.9516                                         !
 ! D109  D(28,31,33,40)       -178.3482                                         !
 ! D110  D(28,31,33,41)        -59.111                                          !
 ! D111  D(28,31,33,42)         61.9124                                         !
 ! D112  D(32,31,33,40)         59.9179                                         !
 ! D113  D(32,31,33,41)        179.1551                                         !
 ! D114  D(32,31,33,42)        -59.8215                                         !
 ! D115  D(37,31,33,40)        -60.6011                                         !
 ! D116  D(37,31,33,41)         58.6361                                         !
 ! D117  D(37,31,33,42)        179.6595                                         !
 ! D118  D(31,32,34,43)         65.1934                                         !
 ! D119  D(31,32,34,44)        -55.3171                                         !
 ! D120  D(31,32,34,45)       -174.8618                                         !
 ! D121  D(38,32,34,43)        -57.3118                                         !
 ! D122  D(38,32,34,44)       -177.8224                                         !
 ! D123  D(38,32,34,45)         62.633                                          !
 ! D124  D(39,32,34,43)       -172.8472                                         !
 ! D125  D(39,32,34,44)         66.6423                                         !
 ! D126  D(39,32,34,45)        -52.9024                                         !
 ! D127  D(29,46,47,48)         56.0071                                         !
 ! D128  D(29,46,47,50)        -73.8155                                         !
 ! D129  D(29,46,47,59)        170.3007                                         !
 ! D130  D(58,46,47,48)        -79.8566                                         !
 ! D131  D(58,46,47,50)        150.3207                                         !
 ! D132  D(58,46,47,59)         34.437                                          !
 ! D133  D(46,47,48,49)        -37.265                                          !
 ! D134  D(46,47,48,57)        143.296                                          !
 ! D135  D(50,47,48,49)         92.9943                                         !
 ! D136  D(50,47,48,57)        -86.4447                                         !
 ! D137  D(59,47,48,49)       -149.4249                                         !
 ! D138  D(59,47,48,57)         31.1361                                         !
 ! D139  D(46,47,50,51)       -168.8436                                         !
 ! D140  D(46,47,50,60)        -45.3931                                         !
 ! D141  D(46,47,50,61)         70.0648                                         !
 ! D142  D(48,47,50,51)         62.271                                          !
 ! D143  D(48,47,50,60)       -174.2785                                         !
 ! D144  D(48,47,50,61)        -58.8205                                         !
 ! D145  D(59,47,50,51)        -55.1368                                         !
 ! D146  D(59,47,50,60)         68.3137                                         !
 ! D147  D(59,47,50,61)       -176.2284                                         !
 ! D148  D(47,50,51,52)         54.7356                                         !
 ! D149  D(47,50,51,62)        -69.4908                                         !
 ! D150  D(47,50,51,63)        175.5838                                         !
 ! D151  D(60,50,51,52)        -67.266                                          !
 ! D152  D(60,50,51,62)        168.5075                                         !
 ! D153  D(60,50,51,63)         53.5822                                         !
 ! D154  D(61,50,51,52)        177.7345                                         !
 ! D155  D(61,50,51,62)         53.5081                                         !
 ! D156  D(61,50,51,63)        -61.4173                                         !
 ! D157  D(50,51,52,53)        -76.9732                                         !
 ! D158  D(50,51,52,64)         43.9583                                         !
 ! D159  D(50,51,52,65)        163.1209                                         !
 ! D160  D(62,51,52,53)         48.2474                                         !
 ! D161  D(62,51,52,64)        169.1788                                         !
 ! D162  D(62,51,52,65)        -71.6585                                         !
 ! D163  D(63,51,52,53)        162.4198                                         !
 ! D164  D(63,51,52,64)        -76.6488                                         !
 ! D165  D(63,51,52,65)         42.5138                                         !
 ! D166  D(51,52,53,54)        155.8297                                         !
 ! D167  D(51,52,53,66)         -1.9364                                         !
 ! D168  D(64,52,53,54)         34.1602                                         !
 ! D169  D(64,52,53,66)       -123.606                                          !
 ! D170  D(65,52,53,54)        -84.443                                          !
 ! D171  D(65,52,53,66)        117.7909                                         !
 ! D172  D(52,53,54,55)         21.1683                                         !
 ! D173  D(52,53,54,56)       -156.3773                                         !
 ! D174  D(66,53,54,55)        179.3493                                         !
 ! D175  D(66,53,54,56)          1.8037                                         !
 ! D176  D(53,54,55,67)       -171.5981                                         !
 ! D177  D(53,54,55,68)         14.1435                                         !
 ! D178  D(56,54,55,67)          5.9099                                         !
 ! D179  D(56,54,55,68)       -168.3485                                         !
 ! D180  D(53,54,56,69)          1.4156                                         !
 ! D181  D(53,54,56,70)       -152.4216                                         !
 ! D182  D(55,54,56,69)       -176.185                                          !
 ! D183  D(55,54,56,70)         29.9778                                         !
 --------------------------------------------------------------------------------
 Symmetry turned off by external request.
 Stoichiometry    C23H36N7O4(1+)
 Framework group  C1[X(C23H36N7O4)]
 Deg. of freedom   204
 Full point group                 C1      NOp   1
                          Input orientation:                          
 ---------------------------------------------------------------------
 Center     Atomic      Atomic             Coordinates (Angstroms)
 Number     Number       Type             X           Y           Z
 ---------------------------------------------------------------------
      1          7           0      -95.647777  -12.831875    3.028016
      2          6           0      -96.890985  -12.020835    3.375248
      3          6           0      -96.607456  -11.403576    4.763869
      4          8           0      -96.399725  -10.208276    4.861790
      5          6           0      -98.129365  -12.931880    3.235712
      6          6           0      -98.077329  -13.749042    1.980148
      7          6           0      -97.773527  -15.089663    1.903740
      8          6           0      -98.212566  -13.271065    0.625820
      9          6           0      -97.996394  -14.386469   -0.228938
     10          6           0      -98.495277  -12.016166    0.056042
     11          7           0      -97.724664  -15.474991    0.580318
     12          6           0      -98.062489  -14.281996   -1.622111
     13          6           0      -98.555745  -11.907549   -1.326851
     14          6           0      -98.342364  -13.029540   -2.155941
     15          1           0      -94.787452  -12.348215    3.334172
     16          1           0      -96.926537  -11.197504    2.660925
     17          1           0      -98.200996  -13.602343    4.096818
     18          1           0      -99.010315  -12.280110    3.261753
     19          1           0      -97.555577  -15.784537    2.704257
     20          1           0      -97.597552  -16.421520    0.256305
     21          1           0      -98.677114  -11.149078    0.686531
     22          1           0      -97.902211  -15.144872   -2.262427
     23          1           0      -98.776544  -10.946535   -1.781667
     24          1           0      -98.401150  -12.912391   -3.233902
     25          1           0      -95.667816  -13.745504    3.543943
     26          1           0      -95.633280  -13.030228    2.023352
     27          7           0      -96.544988  -12.325488    5.784094
     28          6           0      -95.424618  -12.371936    6.744578
     29          6           0      -94.232110  -12.947404    5.955053
     30          8           0      -93.728568  -12.270098    5.053158
     31          6           0      -95.051142  -11.029667    7.409951
     32          6           0      -93.896059  -11.266535    8.406721
     33          6           0      -96.286181  -10.414351    8.078583
     34          6           0      -93.343674   -9.979940    9.029855
     35          1           0      -96.750333  -13.277465    5.490783
     36          1           0      -95.733975  -13.052831    7.536426
     37          1           0      -94.699262  -10.357311    6.622277
     38          1           0      -94.239952  -11.945115    9.202767
     39          1           0      -93.072777  -11.783750    7.896358
     40          1           0      -96.039837   -9.448670    8.528293
     41          1           0      -97.079993  -10.244558    7.348478
     42          1           0      -96.671916  -11.066864    8.873268
     43          1           0      -94.084261   -9.478405    9.660447
     44          1           0      -93.030789   -9.273447    8.252137
     45          1           0      -92.471388  -10.196689    9.655744
     46          7           0      -93.686679  -14.174982    6.262747
     47          6           0      -94.378631  -15.450599    6.533038
     48          6           0      -95.321166  -15.853290    5.345799
     49          8           0      -95.941463  -14.926597    4.757645
     50          6           0      -95.074112  -15.512179    7.913717
     51          6           0      -95.590749  -16.887272    8.386129
     52          6           0      -94.573989  -18.039295    8.417343
     53          7           0      -94.360980  -18.515771    7.046831
     54          6           0      -93.297752  -19.146997    6.579794
     55          7           0      -92.444027  -19.798857    7.389563
     56          7           0      -93.049192  -19.084444    5.252873
     57          8           0      -95.405387  -17.079986    5.063838
     58          1           0      -92.889185  -14.316733    5.647453
     59          1           0      -93.564914  -16.180439    6.551056
     60          1           0      -94.360753  -15.115044    8.646112
     61          1           0      -95.939587  -14.845312    7.921260
     62          1           0      -96.447684  -17.200851    7.776957
     63          1           0      -95.975380  -16.756439    9.403125
     64          1           0      -93.619123  -17.711007    8.850532
     65          1           0      -94.964735  -18.855447    9.037396
     66          1           0      -94.930224  -18.043237    6.304016
     67          1           0      -91.571703  -20.170539    7.043732
     68          1           0      -92.696268  -20.006299    8.344321
     69          1           0      -93.692687  -18.529695    4.692822
     70          1           0      -92.548585  -19.829443    4.789013
 ---------------------------------------------------------------------
 Rotational constants (GHZ):           0.1359393           0.0775765           0.0535196
 Standard basis: 6-31G(d) (6D, 7F)
   582 basis functions,  1096 primitive gaussians,   582 cartesian basis functions
   127 alpha electrons      127 beta electrons
       nuclear repulsion energy      3801.8346373308 Hartrees.
 NAtoms=   70 NActive=   70 NUniq=   70 SFac= 1.00D+00 NAtFMM=   60 NAOKFM=T Big=T
 Integral buffers will be    131072 words long.
 Raffenetti 2 integral format.
 Two-electron integral symmetry is turned off.
 Nuclear repulsion after empirical dispersion term =     3801.7401521567 Hartrees.
 One-electron integrals computed using PRISM.
 NBasis=   582 RedAO= T EigKep=  3.77D-04  NBF=   582
 NBsUse=   582 1.00D-06 EigRej= -1.00D+00 NBFU=   582
 Initial guess from the checkpoint file:  "conf-222.chk"
 B after Tr=     0.000000    0.000000    0.000000
         Rot=    1.000000    0.000000    0.000000    0.000000 Ang=   0.00 deg.
 Requested convergence on RMS density matrix=1.00D-08 within 128 cycles.
 Requested convergence on MAX density matrix=1.00D-06.
 Requested convergence on             energy=1.00D-06.
 No special actions if energy rises.
 SCF Done:  E(RB3LYP) =  -1582.24422063     A.U. after    1 cycles
            NFock=  1  Conv=0.35D-08     -V/T= 2.0095

 **********************************************************************

            Population analysis using the SCF Density.

 **********************************************************************

 Alpha  occ. eigenvalues --  -19.22138 -19.22051 -19.22043 -19.21289 -14.53848
 Alpha  occ. eigenvalues --  -14.51921 -14.50602 -14.49253 -14.46152 -14.46074
 Alpha  occ. eigenvalues --  -14.44178 -10.47129 -10.39890 -10.39040 -10.38416
 Alpha  occ. eigenvalues --  -10.35617 -10.35190 -10.34353 -10.32141 -10.30984
 Alpha  occ. eigenvalues --  -10.30464 -10.30188 -10.29712 -10.29675 -10.26869
 Alpha  occ. eigenvalues --  -10.26392 -10.26302 -10.26194 -10.26147 -10.25674
 Alpha  occ. eigenvalues --  -10.25319 -10.25172 -10.23481 -10.23313  -1.15958
 Alpha  occ. eigenvalues --   -1.15184  -1.14042  -1.12928  -1.08933  -1.06583
 Alpha  occ. eigenvalues --   -1.05959  -1.04802  -1.04082  -1.02030  -1.01463
 Alpha  occ. eigenvalues --   -0.91534  -0.91517  -0.90061  -0.88431  -0.85672
 Alpha  occ. eigenvalues --   -0.84972  -0.81471  -0.81006  -0.79888  -0.79605
 Alpha  occ. eigenvalues --   -0.77837  -0.77102  -0.75835  -0.73281  -0.71671
 Alpha  occ. eigenvalues --   -0.70725  -0.69792  -0.69534  -0.68994  -0.68339
 Alpha  occ. eigenvalues --   -0.67601  -0.66690  -0.66247  -0.64699  -0.64373
 Alpha  occ. eigenvalues --   -0.64145  -0.63346  -0.61764  -0.61736  -0.61631
 Alpha  occ. eigenvalues --   -0.60754  -0.59719  -0.58667  -0.58502  -0.57827
 Alpha  occ. eigenvalues --   -0.56856  -0.56145  -0.54880  -0.54645  -0.54401
 Alpha  occ. eigenvalues --   -0.53865  -0.53012  -0.52770  -0.52060  -0.51761
 Alpha  occ. eigenvalues --   -0.51128  -0.51018  -0.50498  -0.50410  -0.50356
 Alpha  occ. eigenvalues --   -0.49550  -0.49184  -0.48668  -0.48041  -0.47859
 Alpha  occ. eigenvalues --   -0.47410  -0.46878  -0.46497  -0.45629  -0.45399
 Alpha  occ. eigenvalues --   -0.44944  -0.44174  -0.43935  -0.42734  -0.42666
 Alpha  occ. eigenvalues --   -0.42287  -0.41046  -0.40861  -0.40009  -0.39932
 Alpha  occ. eigenvalues --   -0.39466  -0.39040  -0.38641  -0.38131  -0.37421
 Alpha  occ. eigenvalues --   -0.35908  -0.35583  -0.34372  -0.34019  -0.33121
 Alpha  occ. eigenvalues --   -0.29974  -0.28380
 Alpha virt. eigenvalues --   -0.11723  -0.11299  -0.08856  -0.08806  -0.07347
 Alpha virt. eigenvalues --   -0.06739  -0.05055  -0.03853  -0.03045  -0.02570
 Alpha virt. eigenvalues --   -0.02187  -0.01790  -0.01192   0.00109   0.00324
 Alpha virt. eigenvalues --    0.01597   0.01741   0.02185   0.02605   0.02924
 Alpha virt. eigenvalues --    0.03776   0.04006   0.04597   0.04665   0.05163
 Alpha virt. eigenvalues --    0.05947   0.06231   0.06484   0.06826   0.07220
 Alpha virt. eigenvalues --    0.07475   0.07729   0.08204   0.08712   0.08934
 Alpha virt. eigenvalues --    0.09430   0.09631   0.09715   0.10224   0.10326
 Alpha virt. eigenvalues --    0.11022   0.11354   0.11568   0.11766   0.12222
 Alpha virt. eigenvalues --    0.12929   0.13234   0.13829   0.14153   0.14604
 Alpha virt. eigenvalues --    0.15247   0.15790   0.16178   0.16487   0.16660
 Alpha virt. eigenvalues --    0.17726   0.18536   0.18685   0.18955   0.19476
 Alpha virt. eigenvalues --    0.20285   0.20821   0.21635   0.22172   0.24265
 Alpha virt. eigenvalues --    0.24473   0.25786   0.26223   0.26636   0.27295
 Alpha virt. eigenvalues --    0.28571   0.30346   0.31231   0.32073   0.33273
 Alpha virt. eigenvalues --    0.34605   0.35263   0.37522   0.38761   0.39256
 Alpha virt. eigenvalues --    0.40019   0.40898   0.41504   0.41934   0.42237
 Alpha virt. eigenvalues --    0.42583   0.43170   0.43994   0.44450   0.45094
 Alpha virt. eigenvalues --    0.45354   0.45630   0.45837   0.46781   0.47018
 Alpha virt. eigenvalues --    0.47429   0.47768   0.48254   0.48382   0.48943
 Alpha virt. eigenvalues --    0.49304   0.50224   0.50692   0.50791   0.51413
 Alpha virt. eigenvalues --    0.51790   0.51998   0.52954   0.52990   0.53342
 Alpha virt. eigenvalues --    0.53813   0.53910   0.54263   0.54413   0.55084
 Alpha virt. eigenvalues --    0.55375   0.55523   0.55662   0.55857   0.56980
 Alpha virt. eigenvalues --    0.57019   0.57471   0.58291   0.59174   0.59375
 Alpha virt. eigenvalues --    0.60486   0.60955   0.61298   0.61814   0.62256
 Alpha virt. eigenvalues --    0.62661   0.63524   0.63845   0.64240   0.64992
 Alpha virt. eigenvalues --    0.65276   0.66971   0.67399   0.68684   0.69376
 Alpha virt. eigenvalues --    0.70206   0.71168   0.71270   0.71756   0.72520
 Alpha virt. eigenvalues --    0.72793   0.73531   0.74077   0.74422   0.74848
 Alpha virt. eigenvalues --    0.75007   0.75446   0.75770   0.76392   0.76499
 Alpha virt. eigenvalues --    0.76831   0.77168   0.77787   0.78161   0.78341
 Alpha virt. eigenvalues --    0.78841   0.79224   0.79671   0.79898   0.80388
 Alpha virt. eigenvalues --    0.80812   0.81174   0.81467   0.82338   0.82921
 Alpha virt. eigenvalues --    0.83520   0.83801   0.84069   0.84430   0.84901
 Alpha virt. eigenvalues --    0.85342   0.85656   0.86341   0.86674   0.87095
 Alpha virt. eigenvalues --    0.87752   0.88217   0.89178   0.89630   0.90300
 Alpha virt. eigenvalues --    0.90666   0.91060   0.91516   0.92231   0.92350
 Alpha virt. eigenvalues --    0.92624   0.93317   0.93991   0.95431   0.96344
 Alpha virt. eigenvalues --    0.97118   0.97499   0.98055   0.98805   0.99771
 Alpha virt. eigenvalues --    1.00812   1.01267   1.02633   1.03702   1.04012
 Alpha virt. eigenvalues --    1.04563   1.05299   1.05953   1.06731   1.07355
 Alpha virt. eigenvalues --    1.08548   1.08782   1.10025   1.10913   1.11326
 Alpha virt. eigenvalues --    1.12710   1.14901   1.15729   1.15859   1.16836
 Alpha virt. eigenvalues --    1.17672   1.18526   1.18627   1.20516   1.20671
 Alpha virt. eigenvalues --    1.22280   1.22793   1.23075   1.24997   1.25738
 Alpha virt. eigenvalues --    1.26269   1.27206   1.28143   1.28604   1.31005
 Alpha virt. eigenvalues --    1.31659   1.32922   1.33592   1.34015   1.34145
 Alpha virt. eigenvalues --    1.34767   1.36792   1.37867   1.38841   1.39222
 Alpha virt. eigenvalues --    1.39843   1.40457   1.41723   1.42382   1.43145
 Alpha virt. eigenvalues --    1.43245   1.43948   1.45587   1.46158   1.47099
 Alpha virt. eigenvalues --    1.47725   1.48794   1.49694   1.51392   1.51777
 Alpha virt. eigenvalues --    1.52317   1.53134   1.54778   1.55623   1.56458
 Alpha virt. eigenvalues --    1.56765   1.58955   1.59244   1.59893   1.61597
 Alpha virt. eigenvalues --    1.62606   1.63041   1.64279   1.64833   1.66924
 Alpha virt. eigenvalues --    1.67051   1.67827   1.68465   1.69597   1.70057
 Alpha virt. eigenvalues --    1.70767   1.72248   1.72627   1.72843   1.73345
 Alpha virt. eigenvalues --    1.74048   1.75149   1.75508   1.77357   1.77459
 Alpha virt. eigenvalues --    1.78809   1.79312   1.79903   1.81024   1.81186
 Alpha virt. eigenvalues --    1.81389   1.82543   1.83148   1.83396   1.84174
 Alpha virt. eigenvalues --    1.84708   1.85296   1.86515   1.86754   1.87267
 Alpha virt. eigenvalues --    1.87942   1.88784   1.89023   1.89726   1.90021
 Alpha virt. eigenvalues --    1.91353   1.91749   1.92084   1.92567   1.92653
 Alpha virt. eigenvalues --    1.93400   1.94329   1.95489   1.95808   1.96065
 Alpha virt. eigenvalues --    1.96476   1.97525   1.97838   1.98926   1.99285
 Alpha virt. eigenvalues --    2.00908   2.02531   2.03161   2.04335   2.04642
 Alpha virt. eigenvalues --    2.06020   2.06926   2.07263   2.08334   2.08578
 Alpha virt. eigenvalues --    2.09163   2.10153   2.11106   2.12207   2.12587
 Alpha virt. eigenvalues --    2.13294   2.15154   2.16251   2.16944   2.17264
 Alpha virt. eigenvalues --    2.17987   2.19548   2.20404   2.21243   2.22036
 Alpha virt. eigenvalues --    2.22635   2.23372   2.24682   2.25021   2.25434
 Alpha virt. eigenvalues --    2.26296   2.27045   2.27621   2.28608   2.29205
 Alpha virt. eigenvalues --    2.30498   2.31651   2.32177   2.33298   2.34026
 Alpha virt. eigenvalues --    2.34963   2.35515   2.37071   2.37369   2.39071
 Alpha virt. eigenvalues --    2.40385   2.41993   2.42761   2.43549   2.44012
 Alpha virt. eigenvalues --    2.46334   2.46917   2.48034   2.48341   2.50643
 Alpha virt. eigenvalues --    2.51988   2.52566   2.53908   2.54309   2.55477
 Alpha virt. eigenvalues --    2.56028   2.56835   2.58249   2.58604   2.58893
 Alpha virt. eigenvalues --    2.59060   2.60385   2.61328   2.62081   2.63010
 Alpha virt. eigenvalues --    2.64127   2.65646   2.67427   2.70228   2.70607
 Alpha virt. eigenvalues --    2.71461   2.72269   2.75111   2.77360   2.78769
 Alpha virt. eigenvalues --    2.84580   2.85013   2.87175   2.87774   2.89465
 Alpha virt. eigenvalues --    2.90643   2.91823   2.94903   2.96766   2.98907
 Alpha virt. eigenvalues --    3.00891   3.03195   3.03393   3.05138   3.17012
 Alpha virt. eigenvalues --    3.36545   3.65646   3.74193   3.78829   3.84332
 Alpha virt. eigenvalues --    3.94096   3.95311   3.97071   4.00235   4.02205
 Alpha virt. eigenvalues --    4.03580   4.05077   4.08936   4.10153   4.11526
 Alpha virt. eigenvalues --    4.12377   4.13829   4.16539   4.17359   4.21060
 Alpha virt. eigenvalues --    4.23063   4.26114   4.29510   4.32471   4.33143
 Alpha virt. eigenvalues --    4.35514   4.36093   4.44518   4.46037   4.48020
 Alpha virt. eigenvalues --    4.49566   4.56738   4.58177   4.67218   4.72483
          Condensed to atoms (all electrons):
 Mulliken charges:
               1
     1  N   -0.791342
     2  C   -0.103924
     3  C    0.593691
     4  O   -0.466947
     5  C   -0.370028
     6  C   -0.002949
     7  C   -0.007399
     8  C    0.075916
     9  C    0.308824
    10  C   -0.216878
    11  N   -0.684401
    12  C   -0.159338
    13  C   -0.137270
    14  C   -0.148598
    15  H    0.431708
    16  H    0.211997
    17  H    0.181667
    18  H    0.195097
    19  H    0.187994
    20  H    0.338540
    21  H    0.132863
    22  H    0.139368
    23  H    0.143978
    24  H    0.146289
    25  H    0.443707
    26  H    0.402691
    27  N   -0.614637
    28  C   -0.034978
    29  C    0.577051
    30  O   -0.541915
    31  C   -0.081882
    32  C   -0.269333
    33  C   -0.458335
    34  C   -0.450816
    35  H    0.362843
    36  H    0.143362
    37  H    0.179468
    38  H    0.121707
    39  H    0.142577
    40  H    0.163561
    41  H    0.176313
    42  H    0.129705
    43  H    0.157977
    44  H    0.157409
    45  H    0.150346
    46  N   -0.582230
    47  C   -0.075689
    48  C    0.614096
    49  O   -0.591904
    50  C   -0.281151
    51  C   -0.323167
    52  C   -0.150870
    53  N   -0.619166
    54  C    0.781511
    55  N   -0.756908
    56  N   -0.773692
    57  O   -0.588579
    58  H    0.330600
    59  H    0.143304
    60  H    0.171715
    61  H    0.176001
    62  H    0.182786
    63  H    0.181740
    64  H    0.172509
    65  H    0.182872
    66  H    0.422817
    67  H    0.379247
    68  H    0.385343
    69  H    0.395986
    70  H    0.367148
 Sum of Mulliken charges =   1.00000
 Mulliken charges with hydrogens summed into heavy atoms:
               1
     1  N    0.486763
     2  C    0.108073
     3  C    0.593691
     4  O   -0.466947
     5  C    0.006736
     6  C   -0.002949
     7  C    0.180595
     8  C    0.075916
     9  C    0.308824
    10  C   -0.084015
    11  N   -0.345860
    12  C   -0.019970
    13  C    0.006709
    14  C   -0.002309
    27  N   -0.251794
    28  C    0.108384
    29  C    0.577051
    30  O   -0.541915
    31  C    0.097586
    32  C   -0.005049
    33  C    0.011244
    34  C    0.014916
    46  N   -0.251631
    47  C    0.067614
    48  C    0.614096
    49  O   -0.591904
    50  C    0.066566
    51  C    0.041359
    52  C    0.204511
    53  N   -0.196348
    54  C    0.781511
    55  N    0.007683
    56  N   -0.010558
    57  O   -0.588579
 Electronic spatial extent (au):  <R**2>=        8536183.1437
 Charge=              1.0000 electrons
 Dipole moment (field-independent basis, Debye):
    X=           -451.7522    Y=            -84.5712    Z=             25.9461  Tot=            460.3319
 Quadrupole moment (field-independent basis, Debye-Ang):
   XX=          42305.9844   YY=           1319.7807   ZZ=              7.3431
   XY=           7929.1996   XZ=          -2420.8933   YZ=           -480.4943
 Traceless Quadrupole moment (field-independent basis, Debye-Ang):
   XX=          27761.6150   YY=         -13224.5887   ZZ=         -14537.0263
   XY=           7929.1996   XZ=          -2420.8933   YZ=           -480.4943
 Octapole moment (field-independent basis, Debye-Ang**2):
  XXX=       -3943620.6632  YYY=         -19425.3539  ZZZ=          -1142.6761  XYY=        -122936.8383
  XXY=        -740897.7765  XXZ=         224999.0813  XZZ=           -258.9520  YZZ=           -952.1982
  YYZ=           8040.5384  XYZ=          44768.8139
 Hexadecapole moment (field-independent basis, Debye-Ang**3):
 XXXX=      365761866.2693 YYYY=         273374.4545 ZZZZ=         -24798.4760 XXXY=       68975042.3965
 XXXZ=      -20824788.6744 YYYX=        1791687.7721 YYYZ=        -129322.5792 ZZZX=         110151.1605
 ZZZY=          10236.8999 XXYY=       11413234.4884 XXZZ=         -23463.6141 YYZZ=          21961.7071
 XXYZ=       -4158785.8453 YYXZ=        -746333.6294 ZZXY=          82893.1873
 N-N= 3.801740152157D+03 E-N=-1.125965530515D+04  KE= 1.567324808361D+03
 Unable to Open any file for archive entry.
 1\1\GINC-QML-003\SP\RB3LYP\6-31G(d)\C23H36N7O4(1+)\KENGMITH\24-May-202
 2\0\\# B3LYP/6-31G* empiricaldispersion=gd3 guess=read geom=check nosy
 mm integral(ultrafinegrid)\\Candidate Structure: Conf:222 Charge calc 
 in gas phase\\1,1\N,0,-95.6477770252,-12.8318754912,3.028016424\C,0,-9
 6.8909850473,-12.0208351604,3.3752479478\C,0,-96.6074556107,-11.403575
 9346,4.763868513\O,0,-96.3997248221,-10.2082763201,4.8617896463\C,0,-9
 8.1293652753,-12.9318798277,3.2357122193\C,0,-98.0773288204,-13.749041
 7856,1.980148206\C,0,-97.7735266129,-15.0896628824,1.9037403988\C,0,-9
 8.2125661971,-13.2710652061,0.625820203\C,0,-97.9963940841,-14.3864693
 567,-0.2289377905\C,0,-98.4952774316,-12.0161663814,0.0560417037\N,0,-
 97.7246642242,-15.4749910736,0.5803181224\C,0,-98.0624890639,-14.28199
 59199,-1.622111325\C,0,-98.5557454326,-11.9075487317,-1.326851229\C,0,
 -98.342364351,-13.0295395617,-2.1559410403\H,0,-94.7874519297,-12.3482
 154467,3.3341723006\H,0,-96.9265369743,-11.1975040952,2.660925175\H,0,
 -98.2009962183,-13.6023434432,4.096817561\H,0,-99.0103150674,-12.28010
 9791,3.2617530951\H,0,-97.5555771759,-15.7845367479,2.7042567429\H,0,-
 97.5975515107,-16.4215200209,0.2563045717\H,0,-98.6771135852,-11.14907
 8383,0.686530555\H,0,-97.9022110555,-15.1448722791,-2.2624271245\H,0,-
 98.7765439909,-10.9465352294,-1.7816669213\H,0,-98.4011503801,-12.9123
 911665,-3.2339018903\H,0,-95.6678158974,-13.7455038594,3.5439429807\H,
 0,-95.6332803933,-13.0302275043,2.0233524876\N,0,-96.544987847,-12.325
 4876515,5.7840941981\C,0,-95.4246183905,-12.3719361964,6.7445783909\C,
 0,-94.2321097974,-12.9474037134,5.9550529065\O,0,-93.7285681265,-12.27
 00980154,5.0531577601\C,0,-95.0511424877,-11.0296674643,7.4099509366\C
 ,0,-93.8960588273,-11.2665348388,8.4067206806\C,0,-96.2861806102,-10.4
 143506695,8.0785827489\C,0,-93.343674392,-9.9799397727,9.0298546239\H,
 0,-96.7503331986,-13.2774654389,5.4907830004\H,0,-95.7339753144,-13.05
 28308625,7.5364258417\H,0,-94.699261914,-10.3573113533,6.6222772581\H,
 0,-94.2399522802,-11.9451151005,9.2027673397\H,0,-93.0727767223,-11.78
 3749644,7.8963579273\H,0,-96.0398374556,-9.4486700314,8.5282933709\H,0
 ,-97.079992746,-10.2445580408,7.3484779822\H,0,-96.6719155236,-11.0668
 638933,8.8732682672\H,0,-94.0842612666,-9.4784047757,9.6604472573\H,0,
 -93.0307892664,-9.2734468243,8.2521365088\H,0,-92.4713880899,-10.19668
 8896,9.6557441701\N,0,-93.6866788019,-14.1749816114,6.2627467168\C,0,-
 94.3786308444,-15.4505992544,6.5330379176\C,0,-95.3211658189,-15.85328
 99341,5.3457985173\O,0,-95.9414626638,-14.9265972236,4.7576450314\C,0,
 -95.0741124413,-15.512178716,7.913717409\C,0,-95.5907486936,-16.887272
 1163,8.3861288664\C,0,-94.5739888469,-18.0392947344,8.4173426554\N,0,-
 94.3609798282,-18.5157709343,7.0468307748\C,0,-93.297752297,-19.146997
 3489,6.5797938181\N,0,-92.4440273647,-19.7988571648,7.389562694\N,0,-9
 3.0491924929,-19.0844435916,5.2528725514\O,0,-95.4053866414,-17.079986
 0568,5.0638383423\H,0,-92.8891848139,-14.3167334362,5.6474525854\H,0,-
 93.5649144795,-16.1804388531,6.5510561715\H,0,-94.3607530439,-15.11504
 35889,8.6461118797\H,0,-95.9395873695,-14.8453115161,7.9212602944\H,0,
 -96.447684219,-17.2008506253,7.776956557\H,0,-95.9753795172,-16.756438
 9369,9.4031248774\H,0,-93.6191232776,-17.7110067675,8.8505317749\H,0,-
 94.9647350545,-18.8554470385,9.0373957906\H,0,-94.9302236519,-18.04323
 68886,6.3040163474\H,0,-91.5717027218,-20.1705387575,7.0437318133\H,0,
 -92.6962677801,-20.0062993756,8.3443213979\H,0,-93.6926871013,-18.5296
 945427,4.6928223612\H,0,-92.5485852613,-19.8294432343,4.7890126331\\Ve
 rsion=ES64L-G16RevC.01\HF=-1582.2442206\RMSD=3.490e-09\Dipole=3.190902
 5,-6.5536425,1.3069017\Quadrupole=20640.0803372,-9832.1575591,-10807.9
 22778,5895.1655494,-1799.8748262,-357.2357247\PG=C01 [X(C23H36N7O4)]\\
 @
 The archive entry for this job was punched.


 "A LITTLE BIT GOES A LONG WAY"
 R.S. MULLIKEN AS QUOTED BY K. RUEDENBERG
 Job cpu time:       0 days  0 hours  2 minutes 15.9 seconds.
 Elapsed time:       0 days  0 hours  0 minutes 34.4 seconds.
 File lengths (MBytes):  RWF=    296 Int=      0 D2E=      0 Chk=     40 Scr=     16
 Normal termination of Gaussian 16 at Tue May 24 23:09:33 2022.
