 Entering Gaussian System, Link 0=/opt/software/Gaussian/g16-AVX-C.01/g16/g16
 Input=charge-conf-34.com
 Output=charge-conf-34.log
 Initial command:
 /opt/software/Gaussian/g16-AVX-C.01/g16/l1.exe "/mnt/gs18/scratch/users/kengmith/Gau-37768.inp" -scrdir="/mnt/gs18/scratch/users/kengmith/"
 Entering Link 1 = /opt/software/Gaussian/g16-AVX-C.01/g16/l1.exe PID=     37784.
  
 Copyright (c) 1988-2019, Gaussian, Inc.  All Rights Reserved.
  
 This is part of the Gaussian(R) 16 program.  It is based on
 the Gaussian(R) 09 system (copyright 2009, Gaussian, Inc.),
 the Gaussian(R) 03 system (copyright 2003, Gaussian, Inc.),
 the Gaussian(R) 98 system (copyright 1998, Gaussian, Inc.),
 the Gaussian(R) 94 system (copyright 1995, Gaussian, Inc.),
 the Gaussian 92(TM) system (copyright 1992, Gaussian, Inc.),
 the Gaussian 90(TM) system (copyright 1990, Gaussian, Inc.),
 the Gaussian 88(TM) system (copyright 1988, Gaussian, Inc.),
 the Gaussian 86(TM) system (copyright 1986, Carnegie Mellon
 University), and the Gaussian 82(TM) system (copyright 1983,
 Carnegie Mellon University). Gaussian is a federally registered
 trademark of Gaussian, Inc.
  
 This software contains proprietary and confidential information,
 including trade secrets, belonging to Gaussian, Inc.
  
 This software is provided under written license and may be
 used, copied, transmitted, or stored only in accord with that
 written license.
  
 The following legend is applicable only to US Government
 contracts under FAR:
  
                    RESTRICTED RIGHTS LEGEND
  
 Use, reproduction and disclosure by the US Government is
 subject to restrictions as set forth in subparagraphs (a)
 and (c) of the Commercial Computer Software - Restricted
 Rights clause in FAR 52.227-19.
  
 Gaussian, Inc.
 340 Quinnipiac St., Bldg. 40, Wallingford CT 06492
  
  
 ---------------------------------------------------------------
 Warning -- This program may not be used in any manner that
 competes with the business of Gaussian, Inc. or will provide
 assistance to any competitor of Gaussian, Inc.  The licensee
 of this program is prohibited from giving any competitor of
 Gaussian, Inc. access to this program.  By using this program,
 the user acknowledges that Gaussian, Inc. is engaged in the
 business of creating and licensing software in the field of
 computational chemistry and represents and warrants to the
 licensee that it is not a competitor of Gaussian, Inc. and that
 it will not use this program in any manner prohibited above.
 ---------------------------------------------------------------
  

 Cite this work as:
 Gaussian 16, Revision C.01,
 M. J. Frisch, G. W. Trucks, H. B. Schlegel, G. E. Scuseria, 
 M. A. Robb, J. R. Cheeseman, G. Scalmani, V. Barone, 
 G. A. Petersson, H. Nakatsuji, X. Li, M. Caricato, A. V. Marenich, 
 J. Bloino, B. G. Janesko, R. Gomperts, B. Mennucci, H. P. Hratchian, 
 J. V. Ortiz, A. F. Izmaylov, J. L. Sonnenberg, D. Williams-Young, 
 F. Ding, F. Lipparini, F. Egidi, J. Goings, B. Peng, A. Petrone, 
 T. Henderson, D. Ranasinghe, V. G. Zakrzewski, J. Gao, N. Rega, 
 G. Zheng, W. Liang, M. Hada, M. Ehara, K. Toyota, R. Fukuda, 
 J. Hasegawa, M. Ishida, T. Nakajima, Y. Honda, O. Kitao, H. Nakai, 
 T. Vreven, K. Throssell, J. A. Montgomery, Jr., J. E. Peralta, 
 F. Ogliaro, M. J. Bearpark, J. J. Heyd, E. N. Brothers, K. N. Kudin, 
 V. N. Staroverov, T. A. Keith, R. Kobayashi, J. Normand, 
 K. Raghavachari, A. P. Rendell, J. C. Burant, S. S. Iyengar, 
 J. Tomasi, M. Cossi, J. M. Millam, M. Klene, C. Adamo, R. Cammi, 
 J. W. Ochterski, R. L. Martin, K. Morokuma, O. Farkas, 
 J. B. Foresman, and D. J. Fox, Gaussian, Inc., Wallingford CT, 2019.
 
 ******************************************
 Gaussian 16:  ES64L-G16RevC.01  3-Jul-2019
                24-May-2022 
 ******************************************
 %mem=8gb
 %nproc=4
 Will use up to    4 processors via shared memory.
 %chk=conf-34.chk
 ----------------------------------------------------------------------
 # B3LYP/6-31G* empiricaldispersion=gd3 guess=read geom=check nosymm in
 tegral(ultrafinegrid)
 ----------------------------------------------------------------------
 1/29=2,38=1,172=1/1;
 2/12=2,15=1,40=1/2;
 3/5=1,6=6,7=1,11=2,14=-4,25=1,30=1,74=-5,75=-5,116=-2,124=31/1,2,3;
 4/5=1/1;
 5/5=2,38=6/2;
 6/7=2,8=2,9=2,10=2,28=1/1;
 99/5=1,9=1/99;
 -----------------------------------------------------
 Candidate Structure: Conf:34 Charge calc in gas phase
 -----------------------------------------------------
 Structure from the checkpoint file:  "conf-34.chk"
 Charge =  1 Multiplicity = 1
 Redundant internal coordinates found in file.  (old form).
 N,0,-95.4066094323,-12.7473181131,5.0913600976
 C,0,-94.084268769,-13.4845465087,5.0530915797
 C,0,-94.0267224445,-14.5693385877,3.9546121378
 O,0,-93.1472145602,-14.5013178402,3.1090554386
 C,0,-93.7985521654,-14.0217106831,6.470731793
 C,0,-93.7828863483,-12.9190790315,7.4861759129
 C,0,-94.6933293301,-12.7093844188,8.4994784887
 C,0,-92.8242394863,-11.8409303862,7.5619451703
 C,0,-93.2124806319,-11.0166947691,8.6511101092
 C,0,-91.6747651125,-11.5044660234,6.8236337847
 N,0,-94.3574967253,-11.5692885203,9.1971909589
 C,0,-92.4948948787,-9.8728126972,9.0159939824
 C,0,-90.9594941883,-10.3701128421,7.1824382883
 C,0,-91.3671524667,-9.5627672595,8.2659015886
 H,0,-95.3788373117,-12.0924282338,5.8852449972
 H,0,-93.3344520157,-12.7441176452,4.7730248836
 H,0,-94.5429664154,-14.7838641607,6.7303804773
 H,0,-92.829722231,-14.5334786427,6.4245219747
 H,0,-95.5401144929,-13.3131138509,8.7985882015
 H,0,-94.8151815849,-11.2448676269,10.0354945037
 H,0,-91.338717981,-12.1286036971,5.9994435981
 H,0,-92.8028310859,-9.2547750399,9.8545204029
 H,0,-90.0669138519,-10.0999671408,6.6263923403
 H,0,-90.7835069881,-8.6838319136,8.5224711873
 H,0,-95.6059794219,-12.2343426552,4.2254044182
 H,0,-96.2433241421,-13.3993779404,5.2036035979
 N,0,-94.9221262134,-15.582651695,4.0696895697
 C,0,-95.0527874056,-16.6458618405,3.0651395919
 C,0,-95.4642207406,-16.0302253347,1.705068067
 O,0,-94.7789142807,-16.156268852,0.7057950989
 C,0,-93.8052417741,-17.5481678209,2.9242949297
 C,0,-94.1990621775,-18.8441807321,2.1817398001
 C,0,-93.1873049042,-17.8505394064,4.2956416912
 C,0,-92.9992624994,-19.6417718721,1.6604034783
 H,0,-95.7313892039,-15.456281079,4.668462525
 H,0,-95.8751847726,-17.2711725149,3.4292222999
 H,0,-93.0799012258,-17.0023222649,2.3153019643
 H,0,-94.8008434478,-19.4722804711,2.8571747424
 H,0,-94.8374255802,-18.5917743321,1.3285752826
 H,0,-93.9227661059,-18.3006936097,4.9758489002
 H,0,-92.3562500579,-18.5539080328,4.193525124
 H,0,-92.7922088881,-16.9477828957,4.7703183704
 H,0,-92.4058397663,-19.0335215544,0.9684133876
 H,0,-93.3317601119,-20.5351607202,1.1208750195
 H,0,-92.3391427947,-19.9738717981,2.4689465204
 N,0,-96.6140726231,-15.2537129949,1.6252468972
 C,0,-97.8346186826,-15.0943714574,2.4285014257
 C,0,-97.6452288466,-14.0802288482,3.585704728
 O,0,-97.3820992611,-14.5137460202,4.7515162833
 C,0,-98.516103256,-16.3987069727,2.8674301993
 C,0,-99.8522717986,-16.2008744368,3.6144596761
 C,0,-100.8715328705,-15.2476985787,2.955889976
 N,0,-100.6036162062,-13.8184333964,3.2243580515
 C,0,-100.8168176314,-13.2053466844,4.3990759518
 N,0,-101.8291713335,-13.5956087735,5.1951567706
 N,0,-100.0166730292,-12.1982718941,4.7548401723
 O,0,-97.7730303937,-12.8551629489,3.2956172601
 H,0,-96.6769766502,-14.8609265164,0.6935619794
 H,0,-98.506557794,-14.5947555449,1.7240186715
 H,0,-98.6731124846,-17.0082984443,1.9694832323
 H,0,-97.8572099485,-16.9644879317,3.5303670813
 H,0,-99.6522842564,-15.8457433445,4.6315061501
 H,0,-100.3312331713,-17.1820224431,3.7120939159
 H,0,-100.887509456,-15.3590137114,1.8678741049
 H,0,-101.8837435275,-15.4824945405,3.2961060593
 H,0,-99.8699714101,-13.3782718063,2.6762154537
 H,0,-101.9379934367,-13.2101484107,6.1214877806
 H,0,-102.6009317017,-14.1313327908,4.8261792505
 H,0,-99.0664281463,-12.1678445724,4.3447770692
 H,0,-100.2635486518,-11.5815389024,5.5151360529
 Recover connectivity data from disk.
                           ----------------------------
                           !    Current Parameters    !
                           ! (Angstroms and Degrees)  !
 --------------------------                            --------------------------
 ! Name  Definition              Value                                          !
 --------------------------------------------------------------------------------
 ! R1    R(1,2)                  1.5144                                         !
 ! R2    R(1,15)                 1.0295                                         !
 ! R3    R(1,25)                 1.026                                          !
 ! R4    R(1,26)                 1.0667                                         !
 ! R5    R(2,3)                  1.5449                                         !
 ! R6    R(2,5)                  1.5427                                         !
 ! R7    R(2,16)                 1.0904                                         !
 ! R8    R(3,4)                  1.2219                                         !
 ! R9    R(3,27)                 1.3571                                         !
 ! R10   R(5,6)                  1.4991                                         !
 ! R11   R(5,17)                 1.0966                                         !
 ! R12   R(5,18)                 1.0967                                         !
 ! R13   R(6,7)                  1.3783                                         !
 ! R14   R(6,8)                  1.4447                                         !
 ! R15   R(7,11)                 1.3782                                         !
 ! R16   R(7,19)                 1.0821                                         !
 ! R17   R(8,9)                  1.42                                           !
 ! R18   R(8,10)                 1.407                                          !
 ! R19   R(9,11)                 1.3837                                         !
 ! R20   R(9,12)                 1.3988                                         !
 ! R21   R(10,13)                1.3882                                         !
 ! R22   R(10,21)                1.0871                                         !
 ! R23   R(11,20)                1.0087                                         !
 ! R24   R(12,14)                1.3894                                         !
 ! R25   R(12,22)                1.0862                                         !
 ! R26   R(13,14)                1.4113                                         !
 ! R27   R(13,23)                1.0858                                         !
 ! R28   R(14,24)                1.0858                                         !
 ! R29   R(27,28)                1.4685                                         !
 ! R30   R(27,35)                1.0146                                         !
 ! R31   R(28,29)                1.5486                                         !
 ! R32   R(28,31)                1.5461                                         !
 ! R33   R(28,36)                1.0954                                         !
 ! R34   R(29,30)                1.2182                                         !
 ! R35   R(29,46)                1.3898                                         !
 ! R36   R(31,32)                1.5447                                         !
 ! R37   R(31,33)                1.5342                                         !
 ! R38   R(31,37)                1.0931                                         !
 ! R39   R(32,34)                1.5321                                         !
 ! R40   R(32,38)                1.1013                                         !
 ! R41   R(32,39)                1.095                                          !
 ! R42   R(33,40)                1.0983                                         !
 ! R43   R(33,41)                1.0935                                         !
 ! R44   R(33,42)                1.0938                                         !
 ! R45   R(34,43)                1.0959                                         !
 ! R46   R(34,44)                1.0953                                         !
 ! R47   R(34,45)                1.0953                                         !
 ! R48   R(46,47)                1.4698                                         !
 ! R49   R(46,58)                1.0131                                         !
 ! R50   R(47,48)                1.5503                                         !
 ! R51   R(47,50)                1.5357                                         !
 ! R52   R(47,59)                1.0943                                         !
 ! R53   R(48,49)                1.2713                                         !
 ! R54   R(48,57)                1.2654                                         !
 ! R55   R(50,51)                1.5435                                         !
 ! R56   R(50,60)                1.0966                                         !
 ! R57   R(50,61)                1.0926                                         !
 ! R58   R(51,52)                1.5431                                         !
 ! R59   R(51,62)                1.0957                                         !
 ! R60   R(51,63)                1.0962                                         !
 ! R61   R(52,53)                1.4787                                         !
 ! R62   R(52,64)                1.0938                                         !
 ! R63   R(52,65)                1.0934                                         !
 ! R64   R(53,54)                1.3421                                         !
 ! R65   R(53,66)                1.0161                                         !
 ! R66   R(54,55)                1.3457                                         !
 ! R67   R(54,56)                1.3345                                         !
 ! R68   R(55,67)                1.0092                                         !
 ! R69   R(55,68)                1.0093                                         !
 ! R70   R(56,69)                1.0354                                         !
 ! R71   R(56,70)                1.0096                                         !
 ! A1    A(2,1,15)             107.7936                                         !
 ! A2    A(2,1,25)             113.0609                                         !
 ! A3    A(2,1,26)             112.9531                                         !
 ! A4    A(15,1,25)            109.7564                                         !
 ! A5    A(15,1,26)            109.1998                                         !
 ! A6    A(25,1,26)            104.0049                                         !
 ! A7    A(1,2,3)              113.0981                                         !
 ! A8    A(1,2,5)              107.9385                                         !
 ! A9    A(1,2,16)             106.0435                                         !
 ! A10   A(3,2,5)              113.7034                                         !
 ! A11   A(3,2,16)             105.5793                                         !
 ! A12   A(5,2,16)             110.1894                                         !
 ! A13   A(2,3,4)              118.6687                                         !
 ! A14   A(2,3,27)             116.0666                                         !
 ! A15   A(4,3,27)             125.1085                                         !
 ! A16   A(2,5,6)              111.6107                                         !
 ! A17   A(2,5,17)             109.5041                                         !
 ! A18   A(2,5,18)             106.7016                                         !
 ! A19   A(6,5,17)             110.9735                                         !
 ! A20   A(6,5,18)             111.2576                                         !
 ! A21   A(17,5,18)            106.5804                                         !
 ! A22   A(5,6,7)              127.0862                                         !
 ! A23   A(5,6,8)              126.2556                                         !
 ! A24   A(7,6,8)              106.6322                                         !
 ! A25   A(6,7,11)             109.6995                                         !
 ! A26   A(6,7,19)             129.4375                                         !
 ! A27   A(11,7,19)            120.8155                                         !
 ! A28   A(6,8,9)              106.9766                                         !
 ! A29   A(6,8,10)             133.8728                                         !
 ! A30   A(9,8,10)             119.1472                                         !
 ! A31   A(8,9,11)             107.2863                                         !
 ! A32   A(8,9,12)             122.3104                                         !
 ! A33   A(11,9,12)            130.403                                          !
 ! A34   A(8,10,13)            118.7329                                         !
 ! A35   A(8,10,21)            120.8701                                         !
 ! A36   A(13,10,21)           120.3865                                         !
 ! A37   A(7,11,9)             109.4033                                         !
 ! A38   A(7,11,20)            125.1856                                         !
 ! A39   A(9,11,20)            125.1004                                         !
 ! A40   A(9,12,14)            117.2609                                         !
 ! A41   A(9,12,22)            121.4149                                         !
 ! A42   A(14,12,22)           121.3234                                         !
 ! A43   A(10,13,14)           121.1332                                         !
 ! A44   A(10,13,23)           119.6381                                         !
 ! A45   A(14,13,23)           119.2274                                         !
 ! A46   A(12,14,13)           121.4145                                         !
 ! A47   A(12,14,24)           119.2972                                         !
 ! A48   A(13,14,24)           119.2872                                         !
 ! A49   A(3,27,28)            122.7705                                         !
 ! A50   A(3,27,35)            118.901                                          !
 ! A51   A(28,27,35)           115.0181                                         !
 ! A52   A(27,28,29)           109.6696                                         !
 ! A53   A(27,28,31)           114.3965                                         !
 ! A54   A(27,28,36)           104.6391                                         !
 ! A55   A(29,28,31)           111.4931                                         !
 ! A56   A(29,28,36)           108.6259                                         !
 ! A57   A(31,28,36)           107.6337                                         !
 ! A58   A(28,29,30)           121.9938                                         !
 ! A59   A(28,29,46)           119.4973                                         !
 ! A60   A(30,29,46)           118.4325                                         !
 ! A61   A(28,31,32)           109.1304                                         !
 ! A62   A(28,31,33)           111.0136                                         !
 ! A63   A(28,31,37)           107.1426                                         !
 ! A64   A(32,31,33)           111.531                                          !
 ! A65   A(32,31,37)           108.6816                                         !
 ! A66   A(33,31,37)           109.2154                                         !
 ! A67   A(31,32,34)           113.6209                                         !
 ! A68   A(31,32,38)           108.844                                          !
 ! A69   A(31,32,39)           109.2544                                         !
 ! A70   A(34,32,38)           109.8581                                         !
 ! A71   A(34,32,39)           108.1432                                         !
 ! A72   A(38,32,39)           106.9031                                         !
 ! A73   A(31,33,40)           111.3862                                         !
 ! A74   A(31,33,41)           110.45                                           !
 ! A75   A(31,33,42)           111.7602                                         !
 ! A76   A(40,33,41)           107.6449                                         !
 ! A77   A(40,33,42)           108.1434                                         !
 ! A78   A(41,33,42)           107.2703                                         !
 ! A79   A(32,34,43)           110.4852                                         !
 ! A80   A(32,34,44)           110.7618                                         !
 ! A81   A(32,34,45)           112.2466                                         !
 ! A82   A(43,34,44)           107.8209                                         !
 ! A83   A(43,34,45)           107.9416                                         !
 ! A84   A(44,34,45)           107.412                                          !
 ! A85   A(29,46,47)           135.7443                                         !
 ! A86   A(29,46,58)           108.713                                          !
 ! A87   A(47,46,58)           114.1428                                         !
 ! A88   A(46,47,48)           112.1726                                         !
 ! A89   A(46,47,50)           115.6344                                         !
 ! A90   A(46,47,59)           101.9806                                         !
 ! A91   A(48,47,50)           113.3576                                         !
 ! A92   A(48,47,59)           104.8858                                         !
 ! A93   A(50,47,59)           107.4158                                         !
 ! A94   A(47,48,49)           119.1238                                         !
 ! A95   A(47,48,57)           116.7336                                         !
 ! A96   A(49,48,57)           124.1416                                         !
 ! A97   A(47,50,51)           114.4318                                         !
 ! A98   A(47,50,60)           107.5559                                         !
 ! A99   A(47,50,61)           110.2203                                         !
 ! A100  A(51,50,60)           110.0962                                         !
 ! A101  A(51,50,61)           107.1428                                         !
 ! A102  A(60,50,61)           107.177                                          !
 ! A103  A(50,51,52)           116.3853                                         !
 ! A104  A(50,51,62)           109.4375                                         !
 ! A105  A(50,51,63)           107.8559                                         !
 ! A106  A(52,51,62)           108.452                                          !
 ! A107  A(52,51,63)           107.5951                                         !
 ! A108  A(62,51,63)           106.6896                                         !
 ! A109  A(51,52,53)           113.5707                                         !
 ! A110  A(51,52,64)           111.7963                                         !
 ! A111  A(51,52,65)           110.2461                                         !
 ! A112  A(53,52,64)           106.3558                                         !
 ! A113  A(53,52,65)           108.5905                                         !
 ! A114  A(64,52,65)           105.9107                                         !
 ! A115  A(52,53,54)           124.8653                                         !
 ! A116  A(52,53,66)           116.8448                                         !
 ! A117  A(54,53,66)           112.8916                                         !
 ! A118  A(53,54,55)           120.319                                          !
 ! A119  A(53,54,56)           118.8686                                         !
 ! A120  A(55,54,56)           120.8097                                         !
 ! A121  A(54,55,67)           120.8868                                         !
 ! A122  A(54,55,68)           120.8561                                         !
 ! A123  A(67,55,68)           117.1175                                         !
 ! A124  A(54,56,69)           117.8304                                         !
 ! A125  A(54,56,70)           121.0043                                         !
 ! A126  A(69,56,70)           120.3114                                         !
 ! D1    D(15,1,2,3)           176.3595                                         !
 ! D2    D(15,1,2,5)            49.6728                                         !
 ! D3    D(15,1,2,16)          -68.3975                                         !
 ! D4    D(25,1,2,3)           -62.1423                                         !
 ! D5    D(25,1,2,5)           171.171                                          !
 ! D6    D(25,1,2,16)           53.1007                                         !
 ! D7    D(26,1,2,3)            55.6288                                         !
 ! D8    D(26,1,2,5)           -71.0579                                         !
 ! D9    D(26,1,2,16)          170.8718                                         !
 ! D10   D(1,2,3,4)            122.2483                                         !
 ! D11   D(1,2,3,27)           -62.0604                                         !
 ! D12   D(5,2,3,4)           -114.183                                          !
 ! D13   D(5,2,3,27)            61.5083                                         !
 ! D14   D(16,2,3,4)             6.7283                                         !
 ! D15   D(16,2,3,27)         -177.5804                                         !
 ! D16   D(1,2,5,6)            -57.1736                                         !
 ! D17   D(1,2,5,17)            66.1076                                         !
 ! D18   D(1,2,5,18)          -178.91                                           !
 ! D19   D(3,2,5,6)            176.4936                                         !
 ! D20   D(3,2,5,17)           -60.2252                                         !
 ! D21   D(3,2,5,18)            54.7572                                         !
 ! D22   D(16,2,5,6)            58.2018                                         !
 ! D23   D(16,2,5,17)         -178.517                                          !
 ! D24   D(16,2,5,18)          -63.5345                                         !
 ! D25   D(2,3,27,28)          176.1202                                         !
 ! D26   D(2,3,27,35)           17.7053                                         !
 ! D27   D(4,3,27,28)           -8.5017                                         !
 ! D28   D(4,3,27,35)         -166.9166                                         !
 ! D29   D(2,5,6,7)            112.0303                                         !
 ! D30   D(2,5,6,8)            -65.8629                                         !
 ! D31   D(17,5,6,7)           -10.4122                                         !
 ! D32   D(17,5,6,8)           171.6946                                         !
 ! D33   D(18,5,6,7)          -128.905                                          !
 ! D34   D(18,5,6,8)            53.2018                                         !
 ! D35   D(5,6,7,11)          -178.2398                                         !
 ! D36   D(5,6,7,19)             4.2959                                         !
 ! D37   D(8,6,7,11)            -0.0127                                         !
 ! D38   D(8,6,7,19)          -177.477                                          !
 ! D39   D(5,6,8,9)            178.5239                                         !
 ! D40   D(5,6,8,10)            -2.1784                                         !
 ! D41   D(7,6,8,9)              0.2778                                         !
 ! D42   D(7,6,8,10)           179.5755                                         !
 ! D43   D(6,7,11,9)            -0.268                                          !
 ! D44   D(6,7,11,20)         -174.1245                                         !
 ! D45   D(19,7,11,9)          177.4519                                         !
 ! D46   D(19,7,11,20)           3.5954                                         !
 ! D47   D(6,8,9,11)            -0.4369                                         !
 ! D48   D(6,8,9,12)           179.7314                                         !
 ! D49   D(10,8,9,11)         -179.8572                                         !
 ! D50   D(10,8,9,12)            0.311                                          !
 ! D51   D(6,8,10,13)         -179.5225                                         !
 ! D52   D(6,8,10,21)           -0.6955                                         !
 ! D53   D(9,8,10,13)           -0.2916                                         !
 ! D54   D(9,8,10,21)          178.5355                                         !
 ! D55   D(8,9,11,7)             0.4386                                         !
 ! D56   D(8,9,11,20)          174.3015                                         !
 ! D57   D(12,9,11,7)         -179.7481                                         !
 ! D58   D(12,9,11,20)          -5.8852                                         !
 ! D59   D(8,9,12,14)           -0.0787                                         !
 ! D60   D(8,9,12,22)         -179.7528                                         !
 ! D61   D(11,9,12,14)        -179.8678                                         !
 ! D62   D(11,9,12,22)           0.4582                                         !
 ! D63   D(8,10,13,14)           0.0561                                         !
 ! D64   D(8,10,13,23)         179.6454                                         !
 ! D65   D(21,10,13,14)       -178.7768                                         !
 ! D66   D(21,10,13,23)          0.8124                                         !
 ! D67   D(9,12,14,13)          -0.1667                                         !
 ! D68   D(9,12,14,24)        -179.7923                                         !
 ! D69   D(22,12,14,13)        179.5077                                         !
 ! D70   D(22,12,14,24)         -0.1179                                         !
 ! D71   D(10,13,14,12)          0.1815                                         !
 ! D72   D(10,13,14,24)        179.8072                                         !
 ! D73   D(23,13,14,12)       -179.4094                                         !
 ! D74   D(23,13,14,24)          0.2163                                         !
 ! D75   D(3,27,28,29)         -61.467                                          !
 ! D76   D(3,27,28,31)          64.6449                                         !
 ! D77   D(3,27,28,36)        -177.8219                                         !
 ! D78   D(35,27,28,29)         97.7143                                         !
 ! D79   D(35,27,28,31)       -136.1738                                         !
 ! D80   D(35,27,28,36)        -18.6406                                         !
 ! D81   D(27,28,29,30)        120.6909                                         !
 ! D82   D(27,28,29,46)        -56.081                                          !
 ! D83   D(31,28,29,30)         -7.0565                                         !
 ! D84   D(31,28,29,46)        176.1715                                         !
 ! D85   D(36,28,29,30)       -125.4993                                         !
 ! D86   D(36,28,29,46)         57.7288                                         !
 ! D87   D(27,28,31,32)        163.1731                                         !
 ! D88   D(27,28,31,33)         39.8487                                         !
 ! D89   D(27,28,31,37)        -79.3242                                         !
 ! D90   D(29,28,31,32)        -71.6702                                         !
 ! D91   D(29,28,31,33)        165.0054                                         !
 ! D92   D(29,28,31,37)         45.8324                                         !
 ! D93   D(36,28,31,32)         47.365                                          !
 ! D94   D(36,28,31,33)        -75.9594                                         !
 ! D95   D(36,28,31,37)        164.8676                                         !
 ! D96   D(28,29,46,47)        -20.5069                                         !
 ! D97   D(28,29,46,58)        174.3755                                         !
 ! D98   D(30,29,46,47)        162.6062                                         !
 ! D99   D(30,29,46,58)         -2.5114                                         !
 ! D100  D(28,31,32,34)        164.8098                                         !
 ! D101  D(28,31,32,38)        -72.4381                                         !
 ! D102  D(28,31,32,39)         43.9618                                         !
 ! D103  D(33,31,32,34)        -72.1739                                         !
 ! D104  D(33,31,32,38)         50.5781                                         !
 ! D105  D(33,31,32,39)        166.978                                          !
 ! D106  D(37,31,32,34)         48.2829                                         !
 ! D107  D(37,31,32,38)        171.0349                                         !
 ! D108  D(37,31,32,39)        -72.5651                                         !
 ! D109  D(28,31,33,40)         55.8202                                         !
 ! D110  D(28,31,33,41)        175.3883                                         !
 ! D111  D(28,31,33,42)        -65.271                                          !
 ! D112  D(32,31,33,40)        -66.1149                                         !
 ! D113  D(32,31,33,41)         53.4532                                         !
 ! D114  D(32,31,33,42)        172.7939                                         !
 ! D115  D(37,31,33,40)        173.7419                                         !
 ! D116  D(37,31,33,41)        -66.69                                           !
 ! D117  D(37,31,33,42)         52.6507                                         !
 ! D118  D(31,32,34,43)        -59.1273                                         !
 ! D119  D(31,32,34,44)       -178.5349                                         !
 ! D120  D(31,32,34,45)         61.4103                                         !
 ! D121  D(38,32,34,43)        178.6804                                         !
 ! D122  D(38,32,34,44)         59.2727                                         !
 ! D123  D(38,32,34,45)        -60.782                                          !
 ! D124  D(39,32,34,43)         62.3428                                         !
 ! D125  D(39,32,34,44)        -57.0648                                         !
 ! D126  D(39,32,34,45)       -177.1196                                         !
 ! D127  D(29,46,47,48)         85.6735                                         !
 ! D128  D(29,46,47,50)        -46.4266                                         !
 ! D129  D(29,46,47,59)       -162.607                                          !
 ! D130  D(58,46,47,48)       -109.7872                                         !
 ! D131  D(58,46,47,50)        118.1127                                         !
 ! D132  D(58,46,47,59)          1.9323                                         !
 ! D133  D(46,47,48,49)        -97.7167                                         !
 ! D134  D(46,47,48,57)         82.6203                                         !
 ! D135  D(50,47,48,49)         35.5092                                         !
 ! D136  D(50,47,48,57)       -144.1538                                         !
 ! D137  D(59,47,48,49)        152.3901                                         !
 ! D138  D(59,47,48,57)        -27.2729                                         !
 ! D139  D(46,47,50,51)       -175.4817                                         !
 ! D140  D(46,47,50,60)        -52.8286                                         !
 ! D141  D(46,47,50,61)         63.6987                                         !
 ! D142  D(48,47,50,51)         52.9739                                         !
 ! D143  D(48,47,50,60)        175.6271                                         !
 ! D144  D(48,47,50,61)        -67.8456                                         !
 ! D145  D(59,47,50,51)        -62.4135                                         !
 ! D146  D(59,47,50,60)         60.2397                                         !
 ! D147  D(59,47,50,61)        176.767                                          !
 ! D148  D(47,50,51,52)         48.7922                                         !
 ! D149  D(47,50,51,62)        -74.5567                                         !
 ! D150  D(47,50,51,63)        169.7446                                         !
 ! D151  D(60,50,51,52)        -72.4726                                         !
 ! D152  D(60,50,51,62)        164.1785                                         !
 ! D153  D(60,50,51,63)         48.4798                                         !
 ! D154  D(61,50,51,52)        171.2992                                         !
 ! D155  D(61,50,51,62)         47.9504                                         !
 ! D156  D(61,50,51,63)        -67.7483                                         !
 ! D157  D(50,51,52,53)        -81.3986                                         !
 ! D158  D(50,51,52,64)         38.9564                                         !
 ! D159  D(50,51,52,65)        156.4847                                         !
 ! D160  D(62,51,52,53)         42.4593                                         !
 ! D161  D(62,51,52,64)        162.8143                                         !
 ! D162  D(62,51,52,65)        -79.6573                                         !
 ! D163  D(63,51,52,53)        157.5103                                         !
 ! D164  D(63,51,52,64)        -82.1347                                         !
 ! D165  D(63,51,52,65)         35.3936                                         !
 ! D166  D(51,52,53,54)        -73.3845                                         !
 ! D167  D(51,52,53,66)         78.7403                                         !
 ! D168  D(64,52,53,54)        163.2327                                         !
 ! D169  D(64,52,53,66)        -44.6425                                         !
 ! D170  D(65,52,53,54)         49.6457                                         !
 ! D171  D(65,52,53,66)       -158.2295                                         !
 ! D172  D(52,53,54,55)        -32.4362                                         !
 ! D173  D(52,53,54,56)        148.16                                           !
 ! D174  D(66,53,54,55)        174.4888                                         !
 ! D175  D(66,53,54,56)         -4.915                                          !
 ! D176  D(53,54,55,67)        173.3644                                         !
 ! D177  D(53,54,55,68)        -19.189                                          !
 ! D178  D(56,54,55,67)         -7.2434                                         !
 ! D179  D(56,54,55,68)        160.2031                                         !
 ! D180  D(53,54,56,69)        -24.553                                          !
 ! D181  D(53,54,56,70)        165.9959                                         !
 ! D182  D(55,54,56,69)        156.0462                                         !
 ! D183  D(55,54,56,70)        -13.4049                                         !
 --------------------------------------------------------------------------------
 Symmetry turned off by external request.
 Stoichiometry    C23H36N7O4(1+)
 Framework group  C1[X(C23H36N7O4)]
 Deg. of freedom   204
 Full point group                 C1      NOp   1
                          Input orientation:                          
 ---------------------------------------------------------------------
 Center     Atomic      Atomic             Coordinates (Angstroms)
 Number     Number       Type             X           Y           Z
 ---------------------------------------------------------------------
      1          7           0      -95.406609  -12.747318    5.091360
      2          6           0      -94.084269  -13.484547    5.053092
      3          6           0      -94.026722  -14.569339    3.954612
      4          8           0      -93.147215  -14.501318    3.109055
      5          6           0      -93.798552  -14.021711    6.470732
      6          6           0      -93.782886  -12.919079    7.486176
      7          6           0      -94.693329  -12.709384    8.499478
      8          6           0      -92.824239  -11.840930    7.561945
      9          6           0      -93.212481  -11.016695    8.651110
     10          6           0      -91.674765  -11.504466    6.823634
     11          7           0      -94.357497  -11.569289    9.197191
     12          6           0      -92.494895   -9.872813    9.015994
     13          6           0      -90.959494  -10.370113    7.182438
     14          6           0      -91.367152   -9.562767    8.265902
     15          1           0      -95.378837  -12.092428    5.885245
     16          1           0      -93.334452  -12.744118    4.773025
     17          1           0      -94.542966  -14.783864    6.730380
     18          1           0      -92.829722  -14.533479    6.424522
     19          1           0      -95.540114  -13.313114    8.798588
     20          1           0      -94.815182  -11.244868   10.035495
     21          1           0      -91.338718  -12.128604    5.999444
     22          1           0      -92.802831   -9.254775    9.854520
     23          1           0      -90.066914  -10.099967    6.626392
     24          1           0      -90.783507   -8.683832    8.522471
     25          1           0      -95.605979  -12.234343    4.225404
     26          1           0      -96.243324  -13.399378    5.203604
     27          7           0      -94.922126  -15.582652    4.069690
     28          6           0      -95.052787  -16.645862    3.065140
     29          6           0      -95.464221  -16.030225    1.705068
     30          8           0      -94.778914  -16.156269    0.705795
     31          6           0      -93.805242  -17.548168    2.924295
     32          6           0      -94.199062  -18.844181    2.181740
     33          6           0      -93.187305  -17.850539    4.295642
     34          6           0      -92.999262  -19.641772    1.660403
     35          1           0      -95.731389  -15.456281    4.668463
     36          1           0      -95.875185  -17.271173    3.429222
     37          1           0      -93.079901  -17.002322    2.315302
     38          1           0      -94.800843  -19.472280    2.857175
     39          1           0      -94.837426  -18.591774    1.328575
     40          1           0      -93.922766  -18.300694    4.975849
     41          1           0      -92.356250  -18.553908    4.193525
     42          1           0      -92.792209  -16.947783    4.770318
     43          1           0      -92.405840  -19.033522    0.968413
     44          1           0      -93.331760  -20.535161    1.120875
     45          1           0      -92.339143  -19.973872    2.468947
     46          7           0      -96.614073  -15.253713    1.625247
     47          6           0      -97.834619  -15.094371    2.428501
     48          6           0      -97.645229  -14.080229    3.585705
     49          8           0      -97.382099  -14.513746    4.751516
     50          6           0      -98.516103  -16.398707    2.867430
     51          6           0      -99.852272  -16.200874    3.614460
     52          6           0     -100.871533  -15.247699    2.955890
     53          7           0     -100.603616  -13.818433    3.224358
     54          6           0     -100.816818  -13.205347    4.399076
     55          7           0     -101.829171  -13.595609    5.195157
     56          7           0     -100.016673  -12.198272    4.754840
     57          8           0      -97.773030  -12.855163    3.295617
     58          1           0      -96.676977  -14.860927    0.693562
     59          1           0      -98.506558  -14.594756    1.724019
     60          1           0      -98.673112  -17.008298    1.969483
     61          1           0      -97.857210  -16.964488    3.530367
     62          1           0      -99.652284  -15.845743    4.631506
     63          1           0     -100.331233  -17.182022    3.712094
     64          1           0     -100.887509  -15.359014    1.867874
     65          1           0     -101.883744  -15.482495    3.296106
     66          1           0      -99.869971  -13.378272    2.676215
     67          1           0     -101.937993  -13.210148    6.121488
     68          1           0     -102.600932  -14.131333    4.826179
     69          1           0      -99.066428  -12.167845    4.344777
     70          1           0     -100.263549  -11.581539    5.515136
 ---------------------------------------------------------------------
 Rotational constants (GHZ):           0.1304949           0.0798491           0.0549033
 Standard basis: 6-31G(d) (6D, 7F)
   582 basis functions,  1096 primitive gaussians,   582 cartesian basis functions
   127 alpha electrons      127 beta electrons
       nuclear repulsion energy      3804.6061343002 Hartrees.
 NAtoms=   70 NActive=   70 NUniq=   70 SFac= 1.00D+00 NAtFMM=   60 NAOKFM=T Big=T
 Integral buffers will be    131072 words long.
 Raffenetti 2 integral format.
 Two-electron integral symmetry is turned off.
 Nuclear repulsion after empirical dispersion term =     3804.5123551509 Hartrees.
 One-electron integrals computed using PRISM.
 NBasis=   582 RedAO= T EigKep=  3.77D-04  NBF=   582
 NBsUse=   582 1.00D-06 EigRej= -1.00D+00 NBFU=   582
 Initial guess from the checkpoint file:  "conf-34.chk"
 B after Tr=     0.000000    0.000000    0.000000
         Rot=    1.000000    0.000000    0.000000    0.000000 Ang=   0.00 deg.
 Requested convergence on RMS density matrix=1.00D-08 within 128 cycles.
 Requested convergence on MAX density matrix=1.00D-06.
 Requested convergence on             energy=1.00D-06.
 No special actions if energy rises.
 SCF Done:  E(RB3LYP) =  -1582.23454195     A.U. after    2 cycles
            NFock=  2  Conv=0.71D-08     -V/T= 2.0095

 **********************************************************************

            Population analysis using the SCF Density.

 **********************************************************************

 Alpha  occ. eigenvalues --  -19.23158 -19.22592 -19.20826 -19.19332 -14.54831
 Alpha  occ. eigenvalues --  -14.52474 -14.51194 -14.50661 -14.47389 -14.44858
 Alpha  occ. eigenvalues --  -14.44474 -10.47973 -10.40226 -10.38444 -10.36883
 Alpha  occ. eigenvalues --  -10.36201 -10.35942 -10.33988 -10.32028 -10.31535
 Alpha  occ. eigenvalues --  -10.30902 -10.30739 -10.30557 -10.29572 -10.28431
 Alpha  occ. eigenvalues --  -10.27423 -10.27171 -10.26999 -10.26543 -10.26155
 Alpha  occ. eigenvalues --  -10.25011 -10.23619 -10.23537 -10.22237  -1.16785
 Alpha  occ. eigenvalues --   -1.16004  -1.13150  -1.11476  -1.09769  -1.07247
 Alpha  occ. eigenvalues --   -1.06948  -1.05769  -1.04441  -1.01746  -1.00196
 Alpha  occ. eigenvalues --   -0.92567  -0.91228  -0.91074  -0.87787  -0.85798
 Alpha  occ. eigenvalues --   -0.85380  -0.82044  -0.81405  -0.80680  -0.79988
 Alpha  occ. eigenvalues --   -0.77755  -0.77167  -0.76395  -0.73476  -0.72360
 Alpha  occ. eigenvalues --   -0.70931  -0.70577  -0.69738  -0.69039  -0.68824
 Alpha  occ. eigenvalues --   -0.68509  -0.67369  -0.66239  -0.65726  -0.65393
 Alpha  occ. eigenvalues --   -0.64981  -0.63210  -0.62620  -0.61781  -0.61419
 Alpha  occ. eigenvalues --   -0.61155  -0.60363  -0.59066  -0.57723  -0.57337
 Alpha  occ. eigenvalues --   -0.56862  -0.55864  -0.55677  -0.55229  -0.54407
 Alpha  occ. eigenvalues --   -0.54123  -0.53650  -0.52744  -0.52251  -0.51785
 Alpha  occ. eigenvalues --   -0.51521  -0.51323  -0.50869  -0.50654  -0.50080
 Alpha  occ. eigenvalues --   -0.49765  -0.49363  -0.49142  -0.47922  -0.47389
 Alpha  occ. eigenvalues --   -0.46920  -0.46888  -0.46726  -0.46163  -0.45657
 Alpha  occ. eigenvalues --   -0.44978  -0.43683  -0.43530  -0.43177  -0.43063
 Alpha  occ. eigenvalues --   -0.41981  -0.41818  -0.41294  -0.40279  -0.39271
 Alpha  occ. eigenvalues --   -0.39039  -0.38801  -0.38135  -0.37950  -0.36856
 Alpha  occ. eigenvalues --   -0.36528  -0.35468  -0.34157  -0.33178  -0.31712
 Alpha  occ. eigenvalues --   -0.31011  -0.29594
 Alpha virt. eigenvalues --   -0.12824  -0.10056  -0.09975  -0.09018  -0.08220
 Alpha virt. eigenvalues --   -0.06305  -0.05933  -0.04902  -0.04602  -0.03707
 Alpha virt. eigenvalues --   -0.03333  -0.01623  -0.00802  -0.00777  -0.00160
 Alpha virt. eigenvalues --    0.00541   0.01281   0.01750   0.02027   0.02905
 Alpha virt. eigenvalues --    0.03056   0.03505   0.04054   0.04161   0.04995
 Alpha virt. eigenvalues --    0.05038   0.05851   0.06053   0.06778   0.07367
 Alpha virt. eigenvalues --    0.07531   0.07695   0.08062   0.09084   0.09514
 Alpha virt. eigenvalues --    0.09725   0.09925   0.10192   0.10481   0.10683
 Alpha virt. eigenvalues --    0.10945   0.11479   0.12297   0.12337   0.12685
 Alpha virt. eigenvalues --    0.12926   0.13041   0.13578   0.14035   0.14582
 Alpha virt. eigenvalues --    0.15053   0.15191   0.15853   0.16116   0.16729
 Alpha virt. eigenvalues --    0.17594   0.18202   0.18248   0.18865   0.19443
 Alpha virt. eigenvalues --    0.19944   0.20328   0.22572   0.23339   0.23669
 Alpha virt. eigenvalues --    0.24201   0.24790   0.25532   0.26413   0.26921
 Alpha virt. eigenvalues --    0.27769   0.29868   0.30983   0.31289   0.31624
 Alpha virt. eigenvalues --    0.33522   0.34428   0.35227   0.37191   0.37918
 Alpha virt. eigenvalues --    0.38960   0.39732   0.40886   0.41176   0.41564
 Alpha virt. eigenvalues --    0.42033   0.43063   0.43276   0.43875   0.44221
 Alpha virt. eigenvalues --    0.45186   0.45688   0.46028   0.46758   0.46967
 Alpha virt. eigenvalues --    0.47543   0.48182   0.48405   0.48877   0.49125
 Alpha virt. eigenvalues --    0.49274   0.49680   0.50037   0.50315   0.50639
 Alpha virt. eigenvalues --    0.51007   0.51522   0.51773   0.52416   0.53063
 Alpha virt. eigenvalues --    0.53123   0.53469   0.53744   0.54384   0.54617
 Alpha virt. eigenvalues --    0.54838   0.55257   0.55434   0.56011   0.57322
 Alpha virt. eigenvalues --    0.57712   0.58509   0.59113   0.59630   0.59890
 Alpha virt. eigenvalues --    0.60051   0.60641   0.61561   0.61837   0.62532
 Alpha virt. eigenvalues --    0.63432   0.63675   0.65123   0.65921   0.66494
 Alpha virt. eigenvalues --    0.67100   0.67887   0.68376   0.68490   0.69552
 Alpha virt. eigenvalues --    0.70023   0.70772   0.71143   0.71699   0.72056
 Alpha virt. eigenvalues --    0.72337   0.72919   0.73590   0.74225   0.74701
 Alpha virt. eigenvalues --    0.75155   0.75617   0.75839   0.76384   0.76704
 Alpha virt. eigenvalues --    0.77004   0.77450   0.77571   0.77932   0.78100
 Alpha virt. eigenvalues --    0.78540   0.79098   0.79479   0.79843   0.80097
 Alpha virt. eigenvalues --    0.80703   0.81617   0.81987   0.82511   0.83447
 Alpha virt. eigenvalues --    0.83494   0.83555   0.84141   0.84147   0.84921
 Alpha virt. eigenvalues --    0.85272   0.85766   0.86216   0.86476   0.86688
 Alpha virt. eigenvalues --    0.87201   0.87739   0.88562   0.89122   0.89615
 Alpha virt. eigenvalues --    0.89809   0.90147   0.91017   0.91437   0.92468
 Alpha virt. eigenvalues --    0.92662   0.92975   0.93304   0.94199   0.94638
 Alpha virt. eigenvalues --    0.95189   0.95596   0.97015   0.97591   0.98734
 Alpha virt. eigenvalues --    0.99092   1.00856   1.01529   1.01999   1.02355
 Alpha virt. eigenvalues --    1.03083   1.04577   1.04750   1.05789   1.07453
 Alpha virt. eigenvalues --    1.09217   1.09646   1.10162   1.10751   1.11306
 Alpha virt. eigenvalues --    1.13149   1.13462   1.14011   1.14649   1.15737
 Alpha virt. eigenvalues --    1.16084   1.16554   1.17938   1.18607   1.20415
 Alpha virt. eigenvalues --    1.20927   1.21379   1.22681   1.22947   1.23511
 Alpha virt. eigenvalues --    1.24809   1.26228   1.27609   1.28136   1.28890
 Alpha virt. eigenvalues --    1.29788   1.30360   1.31887   1.32784   1.33560
 Alpha virt. eigenvalues --    1.34594   1.36080   1.36833   1.38290   1.39184
 Alpha virt. eigenvalues --    1.39968   1.40902   1.41212   1.41584   1.42080
 Alpha virt. eigenvalues --    1.42576   1.43497   1.46006   1.46255   1.47293
 Alpha virt. eigenvalues --    1.48228   1.48584   1.49303   1.50597   1.52159
 Alpha virt. eigenvalues --    1.52642   1.53398   1.54245   1.56390   1.57642
 Alpha virt. eigenvalues --    1.59079   1.59903   1.60531   1.61126   1.61757
 Alpha virt. eigenvalues --    1.62443   1.64386   1.64813   1.65451   1.66214
 Alpha virt. eigenvalues --    1.66871   1.67874   1.68661   1.69288   1.70354
 Alpha virt. eigenvalues --    1.70702   1.71699   1.72532   1.73421   1.73884
 Alpha virt. eigenvalues --    1.74721   1.75111   1.76236   1.76862   1.77638
 Alpha virt. eigenvalues --    1.78263   1.79620   1.79962   1.80300   1.80915
 Alpha virt. eigenvalues --    1.81573   1.82142   1.82694   1.83380   1.83789
 Alpha virt. eigenvalues --    1.84438   1.84733   1.85978   1.86402   1.87365
 Alpha virt. eigenvalues --    1.87992   1.88189   1.88422   1.89651   1.89929
 Alpha virt. eigenvalues --    1.90776   1.91062   1.91465   1.92063   1.92662
 Alpha virt. eigenvalues --    1.93250   1.93492   1.94289   1.94938   1.96286
 Alpha virt. eigenvalues --    1.96627   1.97199   1.97725   1.98984   1.99646
 Alpha virt. eigenvalues --    2.00327   2.00750   2.01276   2.02877   2.04045
 Alpha virt. eigenvalues --    2.04684   2.06171   2.06577   2.06854   2.07495
 Alpha virt. eigenvalues --    2.07942   2.08660   2.08944   2.10152   2.12211
 Alpha virt. eigenvalues --    2.14377   2.15031   2.16142   2.16414   2.17182
 Alpha virt. eigenvalues --    2.18195   2.18800   2.19516   2.19804   2.21001
 Alpha virt. eigenvalues --    2.22047   2.23529   2.24717   2.25032   2.25848
 Alpha virt. eigenvalues --    2.26646   2.27779   2.29297   2.29474   2.30480
 Alpha virt. eigenvalues --    2.30653   2.30949   2.32817   2.33117   2.35023
 Alpha virt. eigenvalues --    2.35451   2.37981   2.38157   2.39965   2.40537
 Alpha virt. eigenvalues --    2.40756   2.41212   2.42766   2.43959   2.44942
 Alpha virt. eigenvalues --    2.46076   2.46796   2.47761   2.48163   2.48842
 Alpha virt. eigenvalues --    2.50906   2.51120   2.52401   2.53015   2.53975
 Alpha virt. eigenvalues --    2.55632   2.56477   2.56982   2.57672   2.58364
 Alpha virt. eigenvalues --    2.59049   2.59587   2.60167   2.60762   2.63367
 Alpha virt. eigenvalues --    2.64565   2.66355   2.67511   2.69319   2.70196
 Alpha virt. eigenvalues --    2.71324   2.73762   2.74452   2.77049   2.78449
 Alpha virt. eigenvalues --    2.83593   2.86662   2.87742   2.89432   2.89604
 Alpha virt. eigenvalues --    2.90263   2.93273   2.93592   2.94941   2.97232
 Alpha virt. eigenvalues --    3.03278   3.03952   3.07473   3.08590   3.15598
 Alpha virt. eigenvalues --    3.35759   3.66834   3.73522   3.75995   3.82030
 Alpha virt. eigenvalues --    3.88909   3.93618   3.95117   4.00451   4.01371
 Alpha virt. eigenvalues --    4.03143   4.04275   4.07695   4.10032   4.11069
 Alpha virt. eigenvalues --    4.12566   4.13465   4.14206   4.19315   4.21141
 Alpha virt. eigenvalues --    4.22959   4.27059   4.30977   4.32074   4.34363
 Alpha virt. eigenvalues --    4.36989   4.39419   4.39759   4.45609   4.46681
 Alpha virt. eigenvalues --    4.55114   4.55296   4.59489   4.67272   4.70743
          Condensed to atoms (all electrons):
 Mulliken charges:
               1
     1  N   -0.769727
     2  C   -0.123109
     3  C    0.618132
     4  O   -0.485202
     5  C   -0.364960
     6  C    0.009894
     7  C   -0.012976
     8  C    0.086605
     9  C    0.309716
    10  C   -0.216935
    11  N   -0.681604
    12  C   -0.158097
    13  C   -0.137029
    14  C   -0.147029
    15  H    0.386143
    16  H    0.217752
    17  H    0.169259
    18  H    0.207314
    19  H    0.162188
    20  H    0.342212
    21  H    0.143686
    22  H    0.143505
    23  H    0.148838
    24  H    0.150576
    25  H    0.410794
    26  H    0.415818
    27  N   -0.629474
    28  C   -0.063278
    29  C    0.613284
    30  O   -0.471143
    31  C   -0.068489
    32  C   -0.266495
    33  C   -0.458495
    34  C   -0.451899
    35  H    0.358833
    36  H    0.155295
    37  H    0.186665
    38  H    0.117842
    39  H    0.151214
    40  H    0.127562
    41  H    0.164287
    42  H    0.142994
    43  H    0.162412
    44  H    0.150240
    45  H    0.147427
    46  N   -0.637721
    47  C   -0.006209
    48  C    0.609907
    49  O   -0.612026
    50  C   -0.276505
    51  C   -0.286877
    52  C   -0.176479
    53  N   -0.595463
    54  C    0.791992
    55  N   -0.755570
    56  N   -0.772166
    57  O   -0.617018
    58  H    0.345439
    59  H    0.131189
    60  H    0.165409
    61  H    0.168872
    62  H    0.174226
    63  H    0.172116
    64  H    0.198017
    65  H    0.167095
    66  H    0.380910
    67  H    0.377002
    68  H    0.384407
    69  H    0.414132
    70  H    0.360776
 Sum of Mulliken charges =   1.00000
 Mulliken charges with hydrogens summed into heavy atoms:
               1
     1  N    0.443028
     2  C    0.094644
     3  C    0.618132
     4  O   -0.485202
     5  C    0.011613
     6  C    0.009894
     7  C    0.149213
     8  C    0.086605
     9  C    0.309716
    10  C   -0.073249
    11  N   -0.339392
    12  C   -0.014592
    13  C    0.011809
    14  C    0.003547
    27  N   -0.270640
    28  C    0.092017
    29  C    0.613284
    30  O   -0.471143
    31  C    0.118176
    32  C    0.002560
    33  C   -0.023652
    34  C    0.008179
    46  N   -0.292283
    47  C    0.124980
    48  C    0.609907
    49  O   -0.612026
    50  C    0.057776
    51  C    0.059466
    52  C    0.188633
    53  N   -0.214553
    54  C    0.791992
    55  N    0.005839
    56  N    0.002742
    57  O   -0.617018
 Electronic spatial extent (au):  <R**2>=        8527489.9288
 Charge=              1.0000 electrons
 Dipole moment (field-independent basis, Debye):
    X=           -477.3156    Y=            -62.6067    Z=             29.8972  Tot=            482.3314
 Quadrupole moment (field-independent basis, Debye-Ang):
   XX=          47275.9967   YY=            642.4748   ZZ=             -0.6569
   XY=           6246.4125   XZ=          -2930.8024   YZ=           -373.9961
 Traceless Quadrupole moment (field-independent basis, Debye-Ang):
   XX=          31303.3918   YY=         -15330.1301   ZZ=         -15973.2617
   XY=           6246.4125   XZ=          -2930.8024   YZ=           -373.9961
 Octapole moment (field-independent basis, Debye-Ang**2):
  XXX=       -4668977.4869  YYY=          -3156.9757  ZZZ=          -1291.2569  XYY=         -65168.5392
  XXY=        -620790.3170  XXZ=         286751.9318  XZZ=           -296.9286  YZZ=            489.6934
  YYZ=           3892.9974  XYZ=          36782.9473
 Hexadecapole moment (field-independent basis, Debye-Ang**3):
 XXXX=      459940683.9335 YYYY=         -83592.8278 ZZZZ=         -20271.1817 XXXY=       61487216.2852
 XXXZ=      -28010049.5644 YYYX=         354868.4419 YYYZ=         -27134.6439 ZZZX=         119903.9882
 ZZZY=          19992.3105 XXYY=        6565583.8780 XXZZ=          58391.0529 YYZZ=         -18705.9721
 XXYZ=       -3609696.0644 YYXZ=        -387065.9130 ZZXY=         -41879.2378
 N-N= 3.804512355151D+03 E-N=-1.126471401803D+04  KE= 1.567321163103D+03
 Unable to Open any file for archive entry.
 1\1\GINC-QML-003\SP\RB3LYP\6-31G(d)\C23H36N7O4(1+)\KENGMITH\24-May-202
 2\0\\# B3LYP/6-31G* empiricaldispersion=gd3 guess=read geom=check nosy
 mm integral(ultrafinegrid)\\Candidate Structure: Conf:34 Charge calc i
 n gas phase\\1,1\N,0,-95.4066094323,-12.7473181131,5.0913600976\C,0,-9
 4.084268769,-13.4845465087,5.0530915797\C,0,-94.0267224445,-14.5693385
 877,3.9546121378\O,0,-93.1472145602,-14.5013178402,3.1090554386\C,0,-9
 3.7985521654,-14.0217106831,6.470731793\C,0,-93.7828863483,-12.9190790
 315,7.4861759129\C,0,-94.6933293301,-12.7093844188,8.4994784887\C,0,-9
 2.8242394863,-11.8409303862,7.5619451703\C,0,-93.2124806319,-11.016694
 7691,8.6511101092\C,0,-91.6747651125,-11.5044660234,6.8236337847\N,0,-
 94.3574967253,-11.5692885203,9.1971909589\C,0,-92.4948948787,-9.872812
 6972,9.0159939824\C,0,-90.9594941883,-10.3701128421,7.1824382883\C,0,-
 91.3671524667,-9.5627672595,8.2659015886\H,0,-95.3788373117,-12.092428
 2338,5.8852449972\H,0,-93.3344520157,-12.7441176452,4.7730248836\H,0,-
 94.5429664154,-14.7838641607,6.7303804773\H,0,-92.829722231,-14.533478
 6427,6.4245219747\H,0,-95.5401144929,-13.3131138509,8.7985882015\H,0,-
 94.8151815849,-11.2448676269,10.0354945037\H,0,-91.338717981,-12.12860
 36971,5.9994435981\H,0,-92.8028310859,-9.2547750399,9.8545204029\H,0,-
 90.0669138519,-10.0999671408,6.6263923403\H,0,-90.7835069881,-8.683831
 9136,8.5224711873\H,0,-95.6059794219,-12.2343426552,4.2254044182\H,0,-
 96.2433241421,-13.3993779404,5.2036035979\N,0,-94.9221262134,-15.58265
 1695,4.0696895697\C,0,-95.0527874056,-16.6458618405,3.0651395919\C,0,-
 95.4642207406,-16.0302253347,1.705068067\O,0,-94.7789142807,-16.156268
 852,0.7057950989\C,0,-93.8052417741,-17.5481678209,2.9242949297\C,0,-9
 4.1990621775,-18.8441807321,2.1817398001\C,0,-93.1873049042,-17.850539
 4064,4.2956416912\C,0,-92.9992624994,-19.6417718721,1.6604034783\H,0,-
 95.7313892039,-15.456281079,4.668462525\H,0,-95.8751847726,-17.2711725
 149,3.4292222999\H,0,-93.0799012258,-17.0023222649,2.3153019643\H,0,-9
 4.8008434478,-19.4722804711,2.8571747424\H,0,-94.8374255802,-18.591774
 3321,1.3285752826\H,0,-93.9227661059,-18.3006936097,4.9758489002\H,0,-
 92.3562500579,-18.5539080328,4.193525124\H,0,-92.7922088881,-16.947782
 8957,4.7703183704\H,0,-92.4058397663,-19.0335215544,0.9684133876\H,0,-
 93.3317601119,-20.5351607202,1.1208750195\H,0,-92.3391427947,-19.97387
 17981,2.4689465204\N,0,-96.6140726231,-15.2537129949,1.6252468972\C,0,
 -97.8346186826,-15.0943714574,2.4285014257\C,0,-97.6452288466,-14.0802
 288482,3.585704728\O,0,-97.3820992611,-14.5137460202,4.7515162833\C,0,
 -98.516103256,-16.3987069727,2.8674301993\C,0,-99.8522717986,-16.20087
 44368,3.6144596761\C,0,-100.8715328705,-15.2476985787,2.955889976\N,0,
 -100.6036162062,-13.8184333964,3.2243580515\C,0,-100.8168176314,-13.20
 53466844,4.3990759518\N,0,-101.8291713335,-13.5956087735,5.1951567706\
 N,0,-100.0166730292,-12.1982718941,4.7548401723\O,0,-97.7730303937,-12
 .8551629489,3.2956172601\H,0,-96.6769766502,-14.8609265164,0.693561979
 4\H,0,-98.506557794,-14.5947555449,1.7240186715\H,0,-98.6731124846,-17
 .0082984443,1.9694832323\H,0,-97.8572099485,-16.9644879317,3.530367081
 3\H,0,-99.6522842564,-15.8457433445,4.6315061501\H,0,-100.3312331713,-
 17.1820224431,3.7120939159\H,0,-100.887509456,-15.3590137114,1.8678741
 049\H,0,-101.8837435275,-15.4824945405,3.2961060593\H,0,-99.8699714101
 ,-13.3782718063,2.6762154537\H,0,-101.9379934367,-13.2101484107,6.1214
 877806\H,0,-102.6009317017,-14.1313327908,4.8261792505\H,0,-99.0664281
 463,-12.1678445724,4.3447770692\H,0,-100.2635486518,-11.5815389024,5.5
 151360529\\Version=ES64L-G16RevC.01\HF=-1582.2345419\RMSD=7.082e-09\Di
 pole=-6.9484989,2.3209313,3.0476733\Quadrupole=23273.3045936,-11397.57
 59925,-11875.7286011,4644.0545844,-2178.9797398,-278.0569653\PG=C01 [X
 (C23H36N7O4)]\\@
 The archive entry for this job was punched.


 ERWIN WITH HIS PSI CAN DO
 CALCULATIONS QUITE A FEW.
 BUT ONE THING HAS NOT BEEN SEEN
 JUST WHAT DOES PSI REALLY MEAN.
 -- WALTER HUCKEL, TRANS. BY FELIX BLOCH
 Job cpu time:       0 days  0 hours  4 minutes 15.7 seconds.
 Elapsed time:       0 days  0 hours  1 minutes  4.4 seconds.
 File lengths (MBytes):  RWF=    296 Int=      0 D2E=      0 Chk=     40 Scr=     16
 Normal termination of Gaussian 16 at Tue May 24 23:10:03 2022.
