 Entering Gaussian System, Link 0=/opt/software/Gaussian/g16-AVX-C.01/g16/g16
 Input=charge-conf-746.com
 Output=charge-conf-746.log
 Initial command:
 /opt/software/Gaussian/g16-AVX-C.01/g16/l1.exe "/mnt/gs18/scratch/users/kengmith/Gau-35049.inp" -scrdir="/mnt/gs18/scratch/users/kengmith/"
 Entering Link 1 = /opt/software/Gaussian/g16-AVX-C.01/g16/l1.exe PID=     35069.
  
 Copyright (c) 1988-2019, Gaussian, Inc.  All Rights Reserved.
  
 This is part of the Gaussian(R) 16 program.  It is based on
 the Gaussian(R) 09 system (copyright 2009, Gaussian, Inc.),
 the Gaussian(R) 03 system (copyright 2003, Gaussian, Inc.),
 the Gaussian(R) 98 system (copyright 1998, Gaussian, Inc.),
 the Gaussian(R) 94 system (copyright 1995, Gaussian, Inc.),
 the Gaussian 92(TM) system (copyright 1992, Gaussian, Inc.),
 the Gaussian 90(TM) system (copyright 1990, Gaussian, Inc.),
 the Gaussian 88(TM) system (copyright 1988, Gaussian, Inc.),
 the Gaussian 86(TM) system (copyright 1986, Carnegie Mellon
 University), and the Gaussian 82(TM) system (copyright 1983,
 Carnegie Mellon University). Gaussian is a federally registered
 trademark of Gaussian, Inc.
  
 This software contains proprietary and confidential information,
 including trade secrets, belonging to Gaussian, Inc.
  
 This software is provided under written license and may be
 used, copied, transmitted, or stored only in accord with that
 written license.
  
 The following legend is applicable only to US Government
 contracts under FAR:
  
                    RESTRICTED RIGHTS LEGEND
  
 Use, reproduction and disclosure by the US Government is
 subject to restrictions as set forth in subparagraphs (a)
 and (c) of the Commercial Computer Software - Restricted
 Rights clause in FAR 52.227-19.
  
 Gaussian, Inc.
 340 Quinnipiac St., Bldg. 40, Wallingford CT 06492
  
  
 ---------------------------------------------------------------
 Warning -- This program may not be used in any manner that
 competes with the business of Gaussian, Inc. or will provide
 assistance to any competitor of Gaussian, Inc.  The licensee
 of this program is prohibited from giving any competitor of
 Gaussian, Inc. access to this program.  By using this program,
 the user acknowledges that Gaussian, Inc. is engaged in the
 business of creating and licensing software in the field of
 computational chemistry and represents and warrants to the
 licensee that it is not a competitor of Gaussian, Inc. and that
 it will not use this program in any manner prohibited above.
 ---------------------------------------------------------------
  

 Cite this work as:
 Gaussian 16, Revision C.01,
 M. J. Frisch, G. W. Trucks, H. B. Schlegel, G. E. Scuseria, 
 M. A. Robb, J. R. Cheeseman, G. Scalmani, V. Barone, 
 G. A. Petersson, H. Nakatsuji, X. Li, M. Caricato, A. V. Marenich, 
 J. Bloino, B. G. Janesko, R. Gomperts, B. Mennucci, H. P. Hratchian, 
 J. V. Ortiz, A. F. Izmaylov, J. L. Sonnenberg, D. Williams-Young, 
 F. Ding, F. Lipparini, F. Egidi, J. Goings, B. Peng, A. Petrone, 
 T. Henderson, D. Ranasinghe, V. G. Zakrzewski, J. Gao, N. Rega, 
 G. Zheng, W. Liang, M. Hada, M. Ehara, K. Toyota, R. Fukuda, 
 J. Hasegawa, M. Ishida, T. Nakajima, Y. Honda, O. Kitao, H. Nakai, 
 T. Vreven, K. Throssell, J. A. Montgomery, Jr., J. E. Peralta, 
 F. Ogliaro, M. J. Bearpark, J. J. Heyd, E. N. Brothers, K. N. Kudin, 
 V. N. Staroverov, T. A. Keith, R. Kobayashi, J. Normand, 
 K. Raghavachari, A. P. Rendell, J. C. Burant, S. S. Iyengar, 
 J. Tomasi, M. Cossi, J. M. Millam, M. Klene, C. Adamo, R. Cammi, 
 J. W. Ochterski, R. L. Martin, K. Morokuma, O. Farkas, 
 J. B. Foresman, and D. J. Fox, Gaussian, Inc., Wallingford CT, 2019.
 
 ******************************************
 Gaussian 16:  ES64L-G16RevC.01  3-Jul-2019
                24-May-2022 
 ******************************************
 %mem=8gb
 %nproc=4
 Will use up to    4 processors via shared memory.
 %chk=conf-746.chk
 ----------------------------------------------------------------------
 # B3LYP/6-31G* empiricaldispersion=gd3 guess=read geom=check nosymm in
 tegral(ultrafinegrid)
 ----------------------------------------------------------------------
 1/29=2,38=1,172=1/1;
 2/12=2,15=1,40=1/2;
 3/5=1,6=6,7=1,11=2,14=-4,25=1,30=1,74=-5,75=-5,116=-2,124=31/1,2,3;
 4/5=1/1;
 5/5=2,38=6/2;
 6/7=2,8=2,9=2,10=2,28=1/1;
 99/5=1,9=1/99;
 ------------------------------------------------------
 Candidate Structure: Conf:746 Charge calc in gas phase
 ------------------------------------------------------
 Structure from the checkpoint file:  "conf-746.chk"
 Charge =  1 Multiplicity = 1
 Redundant internal coordinates found in file.  (old form).
 N,0,-97.0099247715,-14.4828985424,5.5963564473
 C,0,-96.8690681805,-15.3691953862,4.3824830989
 C,0,-95.3986109516,-15.53419591,3.9366856524
 O,0,-94.8965282287,-16.6466469701,3.9538333801
 C,0,-97.8123470672,-14.840780923,3.2827711437
 C,0,-99.2333643035,-14.7856401803,3.7571057327
 C,0,-99.9867535902,-13.6563278438,3.9926196783
 C,0,-100.0621194287,-15.9161641037,4.1054935125
 C,0,-101.3105225608,-15.3963796014,4.5397369426
 C,0,-99.871749089,-17.3100151258,4.0810147204
 N,0,-101.2303622156,-14.0175736281,4.4633261076
 C,0,-102.361485037,-16.2223567397,4.9518471051
 C,0,-100.9122013816,-18.1333681846,4.4893733374
 C,0,-102.1427355519,-17.594145579,4.9216743938
 H,0,-98.0043204619,-14.4305486894,5.8504208415
 H,0,-97.1835197791,-16.3642244914,4.6989759224
 H,0,-97.4765374685,-13.8505703632,2.9512364777
 H,0,-97.7056117717,-15.5114194725,2.4214438916
 H,0,-99.737551287,-12.6161204105,3.8289697266
 H,0,-101.9911075327,-13.3802266597,4.6438070143
 H,0,-98.9357032932,-17.7389702679,3.7321423004
 H,0,-103.3116999458,-15.809007482,5.2776537513
 H,0,-100.782835345,-19.2112727019,4.4711183433
 H,0,-102.9374788509,-18.2658996037,5.2317910542
 H,0,-96.432099466,-14.8013783781,6.3886291147
 H,0,-96.6265851013,-13.5047828705,5.4432323183
 N,0,-94.7778054902,-14.4158691085,3.4775529169
 C,0,-93.4001326164,-14.4119056271,2.9636439385
 C,0,-92.4005424934,-14.7745396372,4.0934196272
 O,0,-91.6960801498,-15.7670766666,4.0317789636
 C,0,-93.18738913,-15.3030153604,1.7172098805
 C,0,-91.8570771127,-14.9108832276,1.0366184018
 C,0,-94.3691361071,-15.1847210891,0.745639826
 C,0,-91.354350479,-15.9494115713,0.0284569691
 H,0,-95.227927738,-13.5175500133,3.5876882653
 H,0,-93.218217998,-13.3750194419,2.6633403566
 H,0,-93.1097084037,-16.3352103493,2.0684028331
 H,0,-91.9854529098,-13.9371841804,0.5384751209
 H,0,-91.0850813617,-14.7778980163,1.8014985492
 H,0,-94.5502486458,-14.1396198185,0.4599520432
 H,0,-94.1682332438,-15.7470460461,-0.170364122
 H,0,-95.2925558735,-15.5859574292,1.1738242424
 H,0,-92.0567896906,-16.0995153348,-0.7985639287
 H,0,-91.1992585593,-16.916658186,0.5196804019
 H,0,-90.3987023189,-15.6370193975,-0.4061516741
 N,0,-92.2854270846,-13.9414230583,5.1933999953
 C,0,-92.9778401266,-12.7283921687,5.634215426
 C,0,-94.4568906612,-13.0078109963,5.9994378496
 O,0,-95.3758296078,-12.3613332837,5.3902163263
 C,0,-92.7228984309,-11.5097352905,4.7248055265
 C,0,-93.3311816742,-10.1581138494,5.1616799292
 C,0,-93.1790152055,-9.7705718394,6.6402407728
 N,0,-94.1077515356,-10.5587916411,7.4759951045
 C,0,-93.8585212575,-11.0061047127,8.7099471078
 N,0,-92.9925972034,-10.340283533,9.495710951
 N,0,-94.4683354228,-12.1156364908,9.145250387
 O,0,-94.6630989054,-13.8357351549,6.9280826214
 H,0,-91.6763368622,-14.3686441005,5.8799160403
 H,0,-92.5099606686,-12.5139654717,6.6014887455
 H,0,-91.6342034408,-11.4118915821,4.6390983638
 H,0,-93.0950861651,-11.7097155524,3.7169069181
 H,0,-94.3947582919,-10.1356438796,4.9059299016
 H,0,-92.8524623394,-9.3670671121,4.5737536899
 H,0,-92.1573219489,-9.9548962715,6.9933429248
 H,0,-93.3942982806,-8.7028950664,6.7656970983
 H,0,-94.8955953786,-10.9768205537,6.9851014374
 H,0,-92.6532861959,-10.7408654278,10.3582559992
 H,0,-92.7597578321,-9.3756736572,9.3073713678
 H,0,-94.697765826,-12.8518201846,8.4563649887
 H,0,-94.4091475416,-12.3768260918,10.1197653662
 Recover connectivity data from disk.
                           ----------------------------
                           !    Current Parameters    !
                           ! (Angstroms and Degrees)  !
 --------------------------                            --------------------------
 ! Name  Definition              Value                                          !
 --------------------------------------------------------------------------------
 ! R1    R(1,2)                  1.5096                                         !
 ! R2    R(1,15)                 1.0277                                         !
 ! R3    R(1,25)                 1.031                                          !
 ! R4    R(1,26)                 1.0617                                         !
 ! R5    R(2,3)                  1.5454                                         !
 ! R6    R(2,5)                  1.5422                                         !
 ! R7    R(2,16)                 1.0905                                         !
 ! R8    R(3,4)                  1.2206                                         !
 ! R9    R(3,27)                 1.359                                          !
 ! R10   R(5,6)                  1.4991                                         !
 ! R11   R(5,17)                 1.0969                                         !
 ! R12   R(5,18)                 1.0968                                         !
 ! R13   R(6,7)                  1.3778                                         !
 ! R14   R(6,8)                  1.4444                                         !
 ! R15   R(7,11)                 1.3779                                         !
 ! R16   R(7,19)                 1.0821                                         !
 ! R17   R(8,9)                  1.4203                                         !
 ! R18   R(8,10)                 1.407                                          !
 ! R19   R(9,11)                 1.3832                                         !
 ! R20   R(9,12)                 1.3988                                         !
 ! R21   R(10,13)                1.3882                                         !
 ! R22   R(10,21)                1.0872                                         !
 ! R23   R(11,20)                1.0087                                         !
 ! R24   R(12,14)                1.3894                                         !
 ! R25   R(12,22)                1.0862                                         !
 ! R26   R(13,14)                1.4113                                         !
 ! R27   R(13,23)                1.0858                                         !
 ! R28   R(14,24)                1.0858                                         !
 ! R29   R(27,28)                1.4704                                         !
 ! R30   R(27,35)                1.0108                                         !
 ! R31   R(28,29)                1.5515                                         !
 ! R32   R(28,31)                1.5469                                         !
 ! R33   R(28,36)                1.0947                                         !
 ! R34   R(29,30)                1.2187                                         !
 ! R35   R(29,46)                1.3847                                         !
 ! R36   R(31,32)                1.5449                                         !
 ! R37   R(31,33)                1.5344                                         !
 ! R38   R(31,37)                1.0931                                         !
 ! R39   R(32,34)                1.5322                                         !
 ! R40   R(32,38)                1.1012                                         !
 ! R41   R(32,39)                1.0949                                         !
 ! R42   R(33,40)                1.0985                                         !
 ! R43   R(33,41)                1.0935                                         !
 ! R44   R(33,42)                1.0941                                         !
 ! R45   R(34,43)                1.0954                                         !
 ! R46   R(34,44)                1.0959                                         !
 ! R47   R(34,45)                1.0953                                         !
 ! R48   R(46,47)                1.4646                                         !
 ! R49   R(46,58)                1.0123                                         !
 ! R50   R(47,48)                1.5489                                         !
 ! R51   R(47,50)                1.5418                                         !
 ! R52   R(47,59)                1.0957                                         !
 ! R53   R(48,49)                1.2781                                         !
 ! R54   R(48,57)                1.2611                                         !
 ! R55   R(50,51)                1.5452                                         !
 ! R56   R(50,60)                1.0964                                         !
 ! R57   R(50,61)                1.0929                                         !
 ! R58   R(51,52)                1.5361                                         !
 ! R59   R(51,62)                1.0941                                         !
 ! R60   R(51,63)                1.0957                                         !
 ! R61   R(52,53)                1.4773                                         !
 ! R62   R(52,64)                1.0966                                         !
 ! R63   R(52,65)                1.0964                                         !
 ! R64   R(53,54)                1.336                                          !
 ! R65   R(53,66)                1.018                                          !
 ! R66   R(54,55)                1.3456                                         !
 ! R67   R(54,56)                1.3388                                         !
 ! R68   R(55,67)                1.0097                                         !
 ! R69   R(55,68)                1.01                                           !
 ! R70   R(56,69)                1.034                                          !
 ! R71   R(56,70)                1.0106                                         !
 ! A1    A(2,1,15)             108.6018                                         !
 ! A2    A(2,1,25)             112.5975                                         !
 ! A3    A(2,1,26)             113.032                                          !
 ! A4    A(15,1,25)            111.5955                                         !
 ! A5    A(15,1,26)            109.7619                                         !
 ! A6    A(25,1,26)            101.1315                                         !
 ! A7    A(1,2,3)              112.5465                                         !
 ! A8    A(1,2,5)              108.3704                                         !
 ! A9    A(1,2,16)             105.9881                                         !
 ! A10   A(3,2,5)              114.3854                                         !
 ! A11   A(3,2,16)             105.1105                                         !
 ! A12   A(5,2,16)             110.074                                          !
 ! A13   A(2,3,4)              118.9892                                         !
 ! A14   A(2,3,27)             116.3762                                         !
 ! A15   A(4,3,27)             124.5291                                         !
 ! A16   A(2,5,6)              111.516                                          !
 ! A17   A(2,5,17)             109.7298                                         !
 ! A18   A(2,5,18)             106.9151                                         !
 ! A19   A(6,5,17)             110.6479                                         !
 ! A20   A(6,5,18)             111.2973                                         !
 ! A21   A(17,5,18)            106.548                                          !
 ! A22   A(5,6,7)              127.0524                                         !
 ! A23   A(5,6,8)              126.2572                                         !
 ! A24   A(7,6,8)              106.652                                          !
 ! A25   A(6,7,11)             109.6948                                         !
 ! A26   A(6,7,19)             129.5041                                         !
 ! A27   A(11,7,19)            120.7664                                         !
 ! A28   A(6,8,9)              106.9556                                         !
 ! A29   A(6,8,10)             133.9117                                         !
 ! A30   A(9,8,10)             119.13                                           !
 ! A31   A(8,9,11)             107.2755                                         !
 ! A32   A(8,9,12)             122.3019                                         !
 ! A33   A(11,9,12)            130.4224                                         !
 ! A34   A(8,10,13)            118.7523                                         !
 ! A35   A(8,10,21)            120.8611                                         !
 ! A36   A(13,10,21)           120.3769                                         !
 ! A37   A(7,11,9)             109.4207                                         !
 ! A38   A(7,11,20)            125.1792                                         !
 ! A39   A(9,11,20)            125.1851                                         !
 ! A40   A(9,12,14)            117.2778                                         !
 ! A41   A(9,12,22)            121.3939                                         !
 ! A42   A(14,12,22)           121.3276                                         !
 ! A43   A(10,13,14)           121.129                                          !
 ! A44   A(10,13,23)           119.6395                                         !
 ! A45   A(14,13,23)           119.2303                                         !
 ! A46   A(12,14,13)           121.4081                                         !
 ! A47   A(12,14,24)           119.2982                                         !
 ! A48   A(13,14,24)           119.2927                                         !
 ! A49   A(3,27,28)            123.2504                                         !
 ! A50   A(3,27,35)            119.4129                                         !
 ! A51   A(28,27,35)           116.9308                                         !
 ! A52   A(27,28,29)           110.3965                                         !
 ! A53   A(27,28,31)           114.1366                                         !
 ! A54   A(27,28,36)           104.7216                                         !
 ! A55   A(29,28,31)           111.315                                          !
 ! A56   A(29,28,36)           108.3054                                         !
 ! A57   A(31,28,36)           107.5619                                         !
 ! A58   A(28,29,30)           121.7327                                         !
 ! A59   A(28,29,46)           119.4333                                         !
 ! A60   A(30,29,46)           118.8257                                         !
 ! A61   A(28,31,32)           109.0976                                         !
 ! A62   A(28,31,33)           111.0917                                         !
 ! A63   A(28,31,37)           107.1496                                         !
 ! A64   A(32,31,33)           111.3873                                         !
 ! A65   A(32,31,37)           108.6651                                         !
 ! A66   A(33,31,37)           109.3275                                         !
 ! A67   A(31,32,34)           113.6006                                         !
 ! A68   A(31,32,38)           108.8642                                         !
 ! A69   A(31,32,39)           109.2831                                         !
 ! A70   A(34,32,38)           109.8716                                         !
 ! A71   A(34,32,39)           108.0984                                         !
 ! A72   A(38,32,39)           106.907                                          !
 ! A73   A(31,33,40)           111.4077                                         !
 ! A74   A(31,33,41)           110.4432                                         !
 ! A75   A(31,33,42)           111.9589                                         !
 ! A76   A(40,33,41)           107.5597                                         !
 ! A77   A(40,33,42)           108.1519                                         !
 ! A78   A(41,33,42)           107.117                                          !
 ! A79   A(32,34,43)           112.287                                          !
 ! A80   A(32,34,44)           110.4715                                         !
 ! A81   A(32,34,45)           110.734                                          !
 ! A82   A(43,34,44)           107.9527                                         !
 ! A83   A(43,34,45)           107.3974                                         !
 ! A84   A(44,34,45)           107.8252                                         !
 ! A85   A(29,46,47)           134.2747                                         !
 ! A86   A(29,46,58)           109.5623                                         !
 ! A87   A(47,46,58)           115.4583                                         !
 ! A88   A(46,47,48)           111.9004                                         !
 ! A89   A(46,47,50)           113.5113                                         !
 ! A90   A(46,47,59)           103.0561                                         !
 ! A91   A(48,47,50)           116.0764                                         !
 ! A92   A(48,47,59)           103.5864                                         !
 ! A93   A(50,47,59)           107.1826                                         !
 ! A94   A(47,48,49)           118.8768                                         !
 ! A95   A(47,48,57)           116.6291                                         !
 ! A96   A(49,48,57)           124.4378                                         !
 ! A97   A(47,50,51)           117.3564                                         !
 ! A98   A(47,50,60)           106.3096                                         !
 ! A99   A(47,50,61)           110.0614                                         !
 ! A100  A(51,50,60)           109.5674                                         !
 ! A101  A(51,50,61)           106.6627                                         !
 ! A102  A(60,50,61)           106.403                                          !
 ! A103  A(50,51,52)           116.9896                                         !
 ! A104  A(50,51,62)           109.5444                                         !
 ! A105  A(50,51,63)           107.9268                                         !
 ! A106  A(52,51,62)           108.4281                                         !
 ! A107  A(52,51,63)           106.9214                                         !
 ! A108  A(62,51,63)           106.5263                                         !
 ! A109  A(51,52,53)           110.3448                                         !
 ! A110  A(51,52,64)           111.09                                           !
 ! A111  A(51,52,65)           109.6569                                         !
 ! A112  A(53,52,64)           108.2938                                         !
 ! A113  A(53,52,65)           109.3548                                         !
 ! A114  A(64,52,65)           108.0467                                         !
 ! A115  A(52,53,54)           125.7255                                         !
 ! A116  A(52,53,66)           115.6466                                         !
 ! A117  A(54,53,66)           116.8882                                         !
 ! A118  A(53,54,55)           119.5868                                         !
 ! A119  A(53,54,56)           119.5259                                         !
 ! A120  A(55,54,56)           120.8862                                         !
 ! A121  A(54,55,67)           121.2505                                         !
 ! A122  A(54,55,68)           120.7994                                         !
 ! A123  A(67,55,68)           117.4321                                         !
 ! A124  A(54,56,69)           118.3261                                         !
 ! A125  A(54,56,70)           120.0676                                         !
 ! A126  A(69,56,70)           118.1256                                         !
 ! D1    D(15,1,2,3)          -178.8716                                         !
 ! D2    D(15,1,2,5)            53.6174                                         !
 ! D3    D(15,1,2,16)          -64.5056                                         !
 ! D4    D(25,1,2,3)           -54.7663                                         !
 ! D5    D(25,1,2,5)           177.7227                                         !
 ! D6    D(25,1,2,16)           59.5998                                         !
 ! D7    D(26,1,2,3)            59.0731                                         !
 ! D8    D(26,1,2,5)           -68.4379                                         !
 ! D9    D(26,1,2,16)          173.4391                                         !
 ! D10   D(1,2,3,4)            117.765                                          !
 ! D11   D(1,2,3,27)           -65.7989                                         !
 ! D12   D(5,2,3,4)           -117.981                                          !
 ! D13   D(5,2,3,27)            58.4551                                         !
 ! D14   D(16,2,3,4)             2.8663                                         !
 ! D15   D(16,2,3,27)          179.3024                                         !
 ! D16   D(1,2,5,6)            -57.0622                                         !
 ! D17   D(1,2,5,17)            65.8985                                         !
 ! D18   D(1,2,5,18)          -178.9299                                         !
 ! D19   D(3,2,5,6)            176.487                                          !
 ! D20   D(3,2,5,17)           -60.5523                                         !
 ! D21   D(3,2,5,18)            54.6193                                         !
 ! D22   D(16,2,5,6)            58.4278                                         !
 ! D23   D(16,2,5,17)         -178.6114                                         !
 ! D24   D(16,2,5,18)          -63.4398                                         !
 ! D25   D(2,3,27,28)         -177.3999                                         !
 ! D26   D(2,3,27,35)           10.1432                                         !
 ! D27   D(4,3,27,28)           -1.1842                                         !
 ! D28   D(4,3,27,35)         -173.6411                                         !
 ! D29   D(2,5,6,7)            111.5239                                         !
 ! D30   D(2,5,6,8)            -65.9154                                         !
 ! D31   D(17,5,6,7)           -10.9109                                         !
 ! D32   D(17,5,6,8)           171.6498                                         !
 ! D33   D(18,5,6,7)          -129.1778                                         !
 ! D34   D(18,5,6,8)            53.3829                                         !
 ! D35   D(5,6,7,11)          -177.9202                                         !
 ! D36   D(5,6,7,19)             4.2487                                         !
 ! D37   D(8,6,7,11)            -0.0753                                         !
 ! D38   D(8,6,7,19)          -177.9063                                         !
 ! D39   D(5,6,8,9)            178.1394                                         !
 ! D40   D(5,6,8,10)            -2.4876                                         !
 ! D41   D(7,6,8,9)              0.2723                                         !
 ! D42   D(7,6,8,10)           179.6453                                         !
 ! D43   D(6,7,11,9)            -0.1584                                         !
 ! D44   D(6,7,11,20)         -175.0495                                         !
 ! D45   D(19,7,11,9)          177.8941                                         !
 ! D46   D(19,7,11,20)           3.003                                          !
 ! D47   D(6,8,9,11)            -0.3666                                         !
 ! D48   D(6,8,9,12)           179.7756                                         !
 ! D49   D(10,8,9,11)         -179.8495                                         !
 ! D50   D(10,8,9,12)            0.2927                                         !
 ! D51   D(6,8,10,13)         -179.6034                                         !
 ! D52   D(6,8,10,21)           -0.7291                                         !
 ! D53   D(9,8,10,13)           -0.29                                           !
 ! D54   D(9,8,10,21)          178.5843                                         !
 ! D55   D(8,9,11,7)             0.3283                                         !
 ! D56   D(8,9,11,20)          175.219                                          !
 ! D57   D(12,9,11,7)         -179.8296                                         !
 ! D58   D(12,9,11,20)          -4.939                                          !
 ! D59   D(8,9,12,14)           -0.0549                                         !
 ! D60   D(8,9,12,22)         -179.7642                                         !
 ! D61   D(11,9,12,14)        -179.8764                                         !
 ! D62   D(11,9,12,22)           0.4143                                         !
 ! D63   D(8,10,13,14)           0.0644                                         !
 ! D64   D(8,10,13,23)         179.6654                                         !
 ! D65   D(21,10,13,14)       -178.8154                                         !
 ! D66   D(21,10,13,23)          0.7856                                         !
 ! D67   D(9,12,14,13)          -0.1802                                         !
 ! D68   D(9,12,14,24)        -179.8169                                         !
 ! D69   D(22,12,14,13)        179.5293                                         !
 ! D70   D(22,12,14,24)         -0.1074                                         !
 ! D71   D(10,13,14,12)          0.1793                                         !
 ! D72   D(10,13,14,24)        179.816                                          !
 ! D73   D(23,13,14,12)       -179.4233                                         !
 ! D74   D(23,13,14,24)          0.2134                                         !
 ! D75   D(3,27,28,29)         -64.6878                                         !
 ! D76   D(3,27,28,31)          61.5811                                         !
 ! D77   D(3,27,28,36)         178.9425                                         !
 ! D78   D(35,27,28,29)        107.9431                                         !
 ! D79   D(35,27,28,31)       -125.788                                          !
 ! D80   D(35,27,28,36)         -8.4267                                         !
 ! D81   D(27,28,29,30)        117.9606                                         !
 ! D82   D(27,28,29,46)        -63.0952                                         !
 ! D83   D(31,28,29,30)         -9.8739                                         !
 ! D84   D(31,28,29,46)        169.0703                                         !
 ! D85   D(36,28,29,30)       -127.9236                                         !
 ! D86   D(36,28,29,46)         51.0206                                         !
 ! D87   D(27,28,31,32)        163.694                                          !
 ! D88   D(27,28,31,33)         40.5214                                         !
 ! D89   D(27,28,31,37)        -78.8364                                         !
 ! D90   D(29,28,31,32)        -70.5183                                         !
 ! D91   D(29,28,31,33)        166.3091                                         !
 ! D92   D(29,28,31,37)         46.9513                                         !
 ! D93   D(36,28,31,32)         47.9789                                         !
 ! D94   D(36,28,31,33)        -75.1937                                         !
 ! D95   D(36,28,31,37)        165.4485                                         !
 ! D96   D(28,29,46,47)          4.0161                                         !
 ! D97   D(28,29,46,58)        173.6209                                         !
 ! D98   D(30,29,46,47)       -177.0089                                         !
 ! D99   D(30,29,46,58)         -7.4041                                         !
 ! D100  D(28,31,32,34)        164.5808                                         !
 ! D101  D(28,31,32,38)        -72.6489                                         !
 ! D102  D(28,31,32,39)         43.783                                          !
 ! D103  D(33,31,32,34)        -72.423                                          !
 ! D104  D(33,31,32,38)         50.3474                                         !
 ! D105  D(33,31,32,39)        166.7793                                         !
 ! D106  D(37,31,32,34)         48.0728                                         !
 ! D107  D(37,31,32,38)        170.8431                                         !
 ! D108  D(37,31,32,39)        -72.725                                          !
 ! D109  D(28,31,33,40)         55.4573                                         !
 ! D110  D(28,31,33,41)        174.928                                          !
 ! D111  D(28,31,33,42)        -65.7992                                         !
 ! D112  D(32,31,33,40)        -66.3902                                         !
 ! D113  D(32,31,33,41)         53.0804                                         !
 ! D114  D(32,31,33,42)        172.3532                                         !
 ! D115  D(37,31,33,40)        173.5043                                         !
 ! D116  D(37,31,33,41)        -67.0251                                         !
 ! D117  D(37,31,33,42)         52.2478                                         !
 ! D118  D(31,32,34,43)         61.3757                                         !
 ! D119  D(31,32,34,44)        -59.1938                                         !
 ! D120  D(31,32,34,45)       -178.5801                                         !
 ! D121  D(38,32,34,43)        -60.8386                                         !
 ! D122  D(38,32,34,44)        178.5919                                         !
 ! D123  D(38,32,34,45)         59.2056                                         !
 ! D124  D(39,32,34,43)       -177.1629                                         !
 ! D125  D(39,32,34,44)         62.2676                                         !
 ! D126  D(39,32,34,45)        -57.1187                                         !
 ! D127  D(29,46,47,48)         66.8665                                         !
 ! D128  D(29,46,47,50)        -66.8858                                         !
 ! D129  D(29,46,47,59)        177.5451                                         !
 ! D130  D(58,46,47,48)       -102.2795                                         !
 ! D131  D(58,46,47,50)        123.9682                                         !
 ! D132  D(58,46,47,59)          8.3991                                         !
 ! D133  D(46,47,48,49)       -122.3906                                         !
 ! D134  D(46,47,48,57)         60.2175                                         !
 ! D135  D(50,47,48,49)         10.0961                                         !
 ! D136  D(50,47,48,57)       -167.2958                                         !
 ! D137  D(59,47,48,49)        127.2664                                         !
 ! D138  D(59,47,48,57)        -50.1255                                         !
 ! D139  D(46,47,50,51)       -175.8603                                         !
 ! D140  D(46,47,50,60)        -52.8845                                         !
 ! D141  D(46,47,50,61)         61.9558                                         !
 ! D142  D(48,47,50,51)         52.3986                                         !
 ! D143  D(48,47,50,60)        175.3744                                         !
 ! D144  D(48,47,50,61)        -69.7852                                         !
 ! D145  D(59,47,50,51)        -62.757                                          !
 ! D146  D(59,47,50,60)         60.2188                                         !
 ! D147  D(59,47,50,61)        175.0592                                         !
 ! D148  D(47,50,51,52)         44.9104                                         !
 ! D149  D(47,50,51,62)        -78.9544                                         !
 ! D150  D(47,50,51,63)        165.4452                                         !
 ! D151  D(60,50,51,52)        -76.3862                                         !
 ! D152  D(60,50,51,62)        159.749                                          !
 ! D153  D(60,50,51,63)         44.1486                                         !
 ! D154  D(61,50,51,52)        168.8283                                         !
 ! D155  D(61,50,51,62)         44.9635                                         !
 ! D156  D(61,50,51,63)        -70.6369                                         !
 ! D157  D(50,51,52,53)        -74.9419                                         !
 ! D158  D(50,51,52,64)         45.1782                                         !
 ! D159  D(50,51,52,65)        164.5413                                         !
 ! D160  D(62,51,52,53)         49.4893                                         !
 ! D161  D(62,51,52,64)        169.6093                                         !
 ! D162  D(62,51,52,65)        -71.0276                                         !
 ! D163  D(63,51,52,53)        163.994                                          !
 ! D164  D(63,51,52,64)        -75.886                                          !
 ! D165  D(63,51,52,65)         43.4772                                         !
 ! D166  D(51,52,53,54)        144.5479                                         !
 ! D167  D(51,52,53,66)        -19.879                                          !
 ! D168  D(64,52,53,54)         22.759                                          !
 ! D169  D(64,52,53,66)       -141.6678                                         !
 ! D170  D(65,52,53,54)        -94.7544                                         !
 ! D171  D(65,52,53,66)        100.8187                                         !
 ! D172  D(52,53,54,55)         27.443                                          !
 ! D173  D(52,53,54,56)       -152.1777                                         !
 ! D174  D(66,53,54,55)       -168.3019                                         !
 ! D175  D(66,53,54,56)         12.0774                                         !
 ! D176  D(53,54,55,67)       -168.4418                                         !
 ! D177  D(53,54,55,68)         20.0261                                         !
 ! D178  D(56,54,55,67)         11.1736                                         !
 ! D179  D(56,54,55,68)       -160.3585                                         !
 ! D180  D(53,54,56,69)         31.6254                                         !
 ! D181  D(53,54,56,70)       -169.8058                                         !
 ! D182  D(55,54,56,69)       -147.9902                                         !
 ! D183  D(55,54,56,70)         10.5785                                         !
 --------------------------------------------------------------------------------
 Symmetry turned off by external request.
 Stoichiometry    C23H36N7O4(1+)
 Framework group  C1[X(C23H36N7O4)]
 Deg. of freedom   204
 Full point group                 C1      NOp   1
                          Input orientation:                          
 ---------------------------------------------------------------------
 Center     Atomic      Atomic             Coordinates (Angstroms)
 Number     Number       Type             X           Y           Z
 ---------------------------------------------------------------------
      1          7           0      -97.009925  -14.482899    5.596356
      2          6           0      -96.869068  -15.369195    4.382483
      3          6           0      -95.398611  -15.534196    3.936686
      4          8           0      -94.896528  -16.646647    3.953833
      5          6           0      -97.812347  -14.840781    3.282771
      6          6           0      -99.233364  -14.785640    3.757106
      7          6           0      -99.986754  -13.656328    3.992620
      8          6           0     -100.062119  -15.916164    4.105494
      9          6           0     -101.310523  -15.396380    4.539737
     10          6           0      -99.871749  -17.310015    4.081015
     11          7           0     -101.230362  -14.017574    4.463326
     12          6           0     -102.361485  -16.222357    4.951847
     13          6           0     -100.912201  -18.133368    4.489373
     14          6           0     -102.142736  -17.594146    4.921674
     15          1           0      -98.004320  -14.430549    5.850421
     16          1           0      -97.183520  -16.364224    4.698976
     17          1           0      -97.476537  -13.850570    2.951236
     18          1           0      -97.705612  -15.511419    2.421444
     19          1           0      -99.737551  -12.616120    3.828970
     20          1           0     -101.991108  -13.380227    4.643807
     21          1           0      -98.935703  -17.738970    3.732142
     22          1           0     -103.311700  -15.809007    5.277654
     23          1           0     -100.782835  -19.211273    4.471118
     24          1           0     -102.937479  -18.265900    5.231791
     25          1           0      -96.432099  -14.801378    6.388629
     26          1           0      -96.626585  -13.504783    5.443232
     27          7           0      -94.777805  -14.415869    3.477553
     28          6           0      -93.400133  -14.411906    2.963644
     29          6           0      -92.400542  -14.774540    4.093420
     30          8           0      -91.696080  -15.767077    4.031779
     31          6           0      -93.187389  -15.303015    1.717210
     32          6           0      -91.857077  -14.910883    1.036618
     33          6           0      -94.369136  -15.184721    0.745640
     34          6           0      -91.354350  -15.949412    0.028457
     35          1           0      -95.227928  -13.517550    3.587688
     36          1           0      -93.218218  -13.375019    2.663340
     37          1           0      -93.109708  -16.335210    2.068403
     38          1           0      -91.985453  -13.937184    0.538475
     39          1           0      -91.085081  -14.777898    1.801499
     40          1           0      -94.550249  -14.139620    0.459952
     41          1           0      -94.168233  -15.747046   -0.170364
     42          1           0      -95.292556  -15.585957    1.173824
     43          1           0      -92.056790  -16.099515   -0.798564
     44          1           0      -91.199259  -16.916658    0.519680
     45          1           0      -90.398702  -15.637019   -0.406152
     46          7           0      -92.285427  -13.941423    5.193400
     47          6           0      -92.977840  -12.728392    5.634215
     48          6           0      -94.456891  -13.007811    5.999438
     49          8           0      -95.375830  -12.361333    5.390216
     50          6           0      -92.722898  -11.509735    4.724806
     51          6           0      -93.331182  -10.158114    5.161680
     52          6           0      -93.179015   -9.770572    6.640241
     53          7           0      -94.107752  -10.558792    7.475995
     54          6           0      -93.858521  -11.006105    8.709947
     55          7           0      -92.992597  -10.340284    9.495711
     56          7           0      -94.468335  -12.115636    9.145250
     57          8           0      -94.663099  -13.835735    6.928083
     58          1           0      -91.676337  -14.368644    5.879916
     59          1           0      -92.509961  -12.513965    6.601489
     60          1           0      -91.634203  -11.411892    4.639098
     61          1           0      -93.095086  -11.709716    3.716907
     62          1           0      -94.394758  -10.135644    4.905930
     63          1           0      -92.852462   -9.367067    4.573754
     64          1           0      -92.157322   -9.954896    6.993343
     65          1           0      -93.394298   -8.702895    6.765697
     66          1           0      -94.895595  -10.976821    6.985101
     67          1           0      -92.653286  -10.740865   10.358256
     68          1           0      -92.759758   -9.375674    9.307371
     69          1           0      -94.697766  -12.851820    8.456365
     70          1           0      -94.409148  -12.376826   10.119765
 ---------------------------------------------------------------------
 Rotational constants (GHZ):           0.1362956           0.0767969           0.0555552
 Standard basis: 6-31G(d) (6D, 7F)
   582 basis functions,  1096 primitive gaussians,   582 cartesian basis functions
   127 alpha electrons      127 beta electrons
       nuclear repulsion energy      3816.0363262599 Hartrees.
 NAtoms=   70 NActive=   70 NUniq=   70 SFac= 1.00D+00 NAtFMM=   60 NAOKFM=T Big=T
 Integral buffers will be    131072 words long.
 Raffenetti 2 integral format.
 Two-electron integral symmetry is turned off.
 Nuclear repulsion after empirical dispersion term =     3815.9415544871 Hartrees.
 One-electron integrals computed using PRISM.
 NBasis=   582 RedAO= T EigKep=  3.77D-04  NBF=   582
 NBsUse=   582 1.00D-06 EigRej= -1.00D+00 NBFU=   582
 Initial guess from the checkpoint file:  "conf-746.chk"
 B after Tr=     0.000000    0.000000    0.000000
         Rot=    1.000000    0.000000    0.000000    0.000000 Ang=   0.00 deg.
 Requested convergence on RMS density matrix=1.00D-08 within 128 cycles.
 Requested convergence on MAX density matrix=1.00D-06.
 Requested convergence on             energy=1.00D-06.
 No special actions if energy rises.
 SCF Done:  E(RB3LYP) =  -1582.23865192     A.U. after    2 cycles
            NFock=  2  Conv=0.81D-08     -V/T= 2.0095

 **********************************************************************

            Population analysis using the SCF Density.

 **********************************************************************

 Alpha  occ. eigenvalues --  -19.23007 -19.22193 -19.20895 -19.18946 -14.54009
 Alpha  occ. eigenvalues --  -14.52690 -14.51365 -14.50642 -14.47016 -14.45523
 Alpha  occ. eigenvalues --  -14.44160 -10.48091 -10.40193 -10.38580 -10.36630
 Alpha  occ. eigenvalues --  -10.36088 -10.35695 -10.33717 -10.31722 -10.31629
 Alpha  occ. eigenvalues --  -10.30770 -10.30455 -10.30413 -10.29413 -10.28072
 Alpha  occ. eigenvalues --  -10.27118 -10.26873 -10.26728 -10.26256 -10.25887
 Alpha  occ. eigenvalues --  -10.25132 -10.23815 -10.23677 -10.22288  -1.16788
 Alpha  occ. eigenvalues --   -1.15900  -1.13224  -1.11152  -1.09178  -1.06890
 Alpha  occ. eigenvalues --   -1.06796  -1.05819  -1.04492  -1.01953  -1.00094
 Alpha  occ. eigenvalues --   -0.92268  -0.91128  -0.90834  -0.87826  -0.85601
 Alpha  occ. eigenvalues --   -0.85259  -0.81746  -0.81227  -0.80283  -0.79728
 Alpha  occ. eigenvalues --   -0.77981  -0.77313  -0.76288  -0.73954  -0.71876
 Alpha  occ. eigenvalues --   -0.70666  -0.70615  -0.69909  -0.68848  -0.68715
 Alpha  occ. eigenvalues --   -0.68066  -0.66607  -0.66516  -0.65881  -0.65047
 Alpha  occ. eigenvalues --   -0.64859  -0.63092  -0.62494  -0.61763  -0.61694
 Alpha  occ. eigenvalues --   -0.60658  -0.60293  -0.58958  -0.58231  -0.57055
 Alpha  occ. eigenvalues --   -0.56714  -0.55957  -0.55431  -0.54761  -0.54369
 Alpha  occ. eigenvalues --   -0.54014  -0.53503  -0.52727  -0.52089  -0.51910
 Alpha  occ. eigenvalues --   -0.51469  -0.51037  -0.50650  -0.50401  -0.49790
 Alpha  occ. eigenvalues --   -0.49456  -0.48981  -0.48849  -0.47888  -0.47486
 Alpha  occ. eigenvalues --   -0.46997  -0.46674  -0.46429  -0.45878  -0.45600
 Alpha  occ. eigenvalues --   -0.44683  -0.43686  -0.43421  -0.43375  -0.43211
 Alpha  occ. eigenvalues --   -0.41702  -0.41510  -0.41400  -0.40633  -0.39585
 Alpha  occ. eigenvalues --   -0.38966  -0.38545  -0.38119  -0.37891  -0.36298
 Alpha  occ. eigenvalues --   -0.36225  -0.35484  -0.34219  -0.32685  -0.31858
 Alpha  occ. eigenvalues --   -0.30691  -0.29251
 Alpha virt. eigenvalues --   -0.13034  -0.09966  -0.09661  -0.08594  -0.07817
 Alpha virt. eigenvalues --   -0.06215  -0.05637  -0.04306  -0.03476  -0.03012
 Alpha virt. eigenvalues --   -0.02501  -0.01889  -0.01060  -0.00395  -0.00141
 Alpha virt. eigenvalues --    0.00483   0.01050   0.01517   0.02389   0.02971
 Alpha virt. eigenvalues --    0.03197   0.03911   0.04070   0.04095   0.04390
 Alpha virt. eigenvalues --    0.05281   0.05908   0.06203   0.06762   0.07171
 Alpha virt. eigenvalues --    0.07516   0.07874   0.07983   0.08495   0.08798
 Alpha virt. eigenvalues --    0.09690   0.09764   0.10314   0.10709   0.10801
 Alpha virt. eigenvalues --    0.11048   0.11238   0.12062   0.12442   0.12509
 Alpha virt. eigenvalues --    0.13033   0.13130   0.13527   0.14191   0.14715
 Alpha virt. eigenvalues --    0.15139   0.15642   0.15934   0.16407   0.16829
 Alpha virt. eigenvalues --    0.17741   0.18367   0.18502   0.18860   0.19577
 Alpha virt. eigenvalues --    0.20637   0.20768   0.22637   0.22681   0.23668
 Alpha virt. eigenvalues --    0.23942   0.24928   0.25814   0.26781   0.26823
 Alpha virt. eigenvalues --    0.27838   0.29946   0.30207   0.31594   0.31820
 Alpha virt. eigenvalues --    0.33584   0.34783   0.36442   0.37323   0.37893
 Alpha virt. eigenvalues --    0.39847   0.40471   0.40723   0.41356   0.42131
 Alpha virt. eigenvalues --    0.42312   0.43483   0.43654   0.43949   0.45275
 Alpha virt. eigenvalues --    0.45344   0.45964   0.46071   0.46685   0.47245
 Alpha virt. eigenvalues --    0.47551   0.48088   0.48476   0.48574   0.49388
 Alpha virt. eigenvalues --    0.49734   0.49993   0.50116   0.50494   0.50890
 Alpha virt. eigenvalues --    0.51752   0.52180   0.52520   0.53019   0.53426
 Alpha virt. eigenvalues --    0.53554   0.53948   0.54065   0.54590   0.54863
 Alpha virt. eigenvalues --    0.55321   0.55774   0.56483   0.56571   0.57834
 Alpha virt. eigenvalues --    0.58264   0.58414   0.59193   0.59760   0.60387
 Alpha virt. eigenvalues --    0.60968   0.61280   0.61548   0.62700   0.63082
 Alpha virt. eigenvalues --    0.63434   0.64445   0.64687   0.64951   0.66083
 Alpha virt. eigenvalues --    0.67316   0.67599   0.68086   0.68624   0.69928
 Alpha virt. eigenvalues --    0.70615   0.70928   0.71275   0.71708   0.72238
 Alpha virt. eigenvalues --    0.72397   0.73053   0.73714   0.74389   0.74629
 Alpha virt. eigenvalues --    0.74916   0.75434   0.76017   0.76511   0.76843
 Alpha virt. eigenvalues --    0.77294   0.77513   0.78054   0.78195   0.78410
 Alpha virt. eigenvalues --    0.78872   0.79048   0.79495   0.79744   0.80873
 Alpha virt. eigenvalues --    0.81109   0.81303   0.82187   0.82533   0.83019
 Alpha virt. eigenvalues --    0.83879   0.84162   0.84802   0.84887   0.85417
 Alpha virt. eigenvalues --    0.85747   0.86554   0.86624   0.87021   0.87076
 Alpha virt. eigenvalues --    0.87721   0.88476   0.88557   0.89681   0.89925
 Alpha virt. eigenvalues --    0.90228   0.90614   0.91115   0.91377   0.92005
 Alpha virt. eigenvalues --    0.92738   0.93010   0.94218   0.94343   0.95247
 Alpha virt. eigenvalues --    0.95884   0.96292   0.96941   0.98143   0.99323
 Alpha virt. eigenvalues --    0.99467   0.99931   1.01182   1.02246   1.03267
 Alpha virt. eigenvalues --    1.03457   1.04360   1.04869   1.06255   1.07672
 Alpha virt. eigenvalues --    1.08764   1.09982   1.10461   1.11090   1.11578
 Alpha virt. eigenvalues --    1.12352   1.13871   1.14284   1.15407   1.16246
 Alpha virt. eigenvalues --    1.16622   1.17245   1.19344   1.19935   1.20496
 Alpha virt. eigenvalues --    1.21287   1.22299   1.22661   1.24680   1.25077
 Alpha virt. eigenvalues --    1.25263   1.27006   1.27296   1.28713   1.28915
 Alpha virt. eigenvalues --    1.31370   1.32749   1.32840   1.33448   1.34352
 Alpha virt. eigenvalues --    1.35318   1.35437   1.35864   1.37599   1.38386
 Alpha virt. eigenvalues --    1.39013   1.40446   1.41493   1.42062   1.42465
 Alpha virt. eigenvalues --    1.42792   1.43151   1.45172   1.46864   1.47246
 Alpha virt. eigenvalues --    1.48435   1.49137   1.49722   1.50766   1.52295
 Alpha virt. eigenvalues --    1.53144   1.53948   1.54495   1.56728   1.56989
 Alpha virt. eigenvalues --    1.58283   1.59457   1.61061   1.61421   1.61889
 Alpha virt. eigenvalues --    1.64260   1.64949   1.66143   1.67036   1.67397
 Alpha virt. eigenvalues --    1.68345   1.68629   1.69082   1.70103   1.70328
 Alpha virt. eigenvalues --    1.71006   1.71518   1.73021   1.73627   1.74497
 Alpha virt. eigenvalues --    1.75162   1.75742   1.76330   1.76774   1.77754
 Alpha virt. eigenvalues --    1.78637   1.79121   1.79252   1.80896   1.81219
 Alpha virt. eigenvalues --    1.81636   1.82387   1.82510   1.83208   1.84138
 Alpha virt. eigenvalues --    1.84471   1.85411   1.85993   1.86171   1.86677
 Alpha virt. eigenvalues --    1.87310   1.88331   1.88568   1.89503   1.90090
 Alpha virt. eigenvalues --    1.91163   1.91542   1.92122   1.92696   1.92721
 Alpha virt. eigenvalues --    1.93168   1.94310   1.94576   1.94946   1.96067
 Alpha virt. eigenvalues --    1.97068   1.97469   1.98131   1.98488   1.99291
 Alpha virt. eigenvalues --    1.99944   2.00591   2.01638   2.02397   2.04420
 Alpha virt. eigenvalues --    2.05423   2.05973   2.06512   2.06891   2.07843
 Alpha virt. eigenvalues --    2.08377   2.09645   2.10341   2.10777   2.11906
 Alpha virt. eigenvalues --    2.14197   2.15273   2.15290   2.16645   2.17391
 Alpha virt. eigenvalues --    2.18382   2.19069   2.20040   2.20986   2.21758
 Alpha virt. eigenvalues --    2.22475   2.24455   2.24890   2.25523   2.26092
 Alpha virt. eigenvalues --    2.26776   2.27752   2.28890   2.30507   2.30854
 Alpha virt. eigenvalues --    2.31153   2.31717   2.31915   2.32846   2.36131
 Alpha virt. eigenvalues --    2.36614   2.37985   2.38678   2.39829   2.41017
 Alpha virt. eigenvalues --    2.41374   2.41671   2.43198   2.43606   2.44979
 Alpha virt. eigenvalues --    2.45578   2.46963   2.47777   2.49035   2.50100
 Alpha virt. eigenvalues --    2.51092   2.51746   2.52672   2.53485   2.54877
 Alpha virt. eigenvalues --    2.55192   2.56990   2.57801   2.58634   2.59021
 Alpha virt. eigenvalues --    2.59239   2.59862   2.60495   2.60871   2.63496
 Alpha virt. eigenvalues --    2.63792   2.66280   2.66814   2.69568   2.69923
 Alpha virt. eigenvalues --    2.71743   2.74066   2.74171   2.77483   2.78866
 Alpha virt. eigenvalues --    2.83915   2.87042   2.87703   2.90190   2.90947
 Alpha virt. eigenvalues --    2.92735   2.93309   2.95351   2.96427   2.97355
 Alpha virt. eigenvalues --    3.04105   3.04371   3.07273   3.09549   3.15970
 Alpha virt. eigenvalues --    3.36042   3.65811   3.73614   3.77109   3.82538
 Alpha virt. eigenvalues --    3.88109   3.94202   3.97798   4.00371   4.01655
 Alpha virt. eigenvalues --    4.03494   4.05367   4.07858   4.09604   4.10544
 Alpha virt. eigenvalues --    4.12275   4.13433   4.16749   4.20084   4.22075
 Alpha virt. eigenvalues --    4.26126   4.27773   4.31618   4.32387   4.35554
 Alpha virt. eigenvalues --    4.37832   4.37990   4.44809   4.46192   4.49075
 Alpha virt. eigenvalues --    4.53983   4.56778   4.61039   4.66129   4.71083
          Condensed to atoms (all electrons):
 Mulliken charges:
               1
     1  N   -0.764051
     2  C   -0.122012
     3  C    0.624147
     4  O   -0.481863
     5  C   -0.365663
     6  C    0.012820
     7  C   -0.010722
     8  C    0.084980
     9  C    0.310176
    10  C   -0.216902
    11  N   -0.681485
    12  C   -0.157828
    13  C   -0.137268
    14  C   -0.147523
    15  H    0.388586
    16  H    0.218781
    17  H    0.161616
    18  H    0.205374
    19  H    0.163395
    20  H    0.343143
    21  H    0.141247
    22  H    0.143594
    23  H    0.147260
    24  H    0.149418
    25  H    0.414044
    26  H    0.409489
    27  N   -0.633430
    28  C   -0.058751
    29  C    0.623436
    30  O   -0.476359
    31  C   -0.070154
    32  C   -0.267044
    33  C   -0.463580
    34  C   -0.452185
    35  H    0.345694
    36  H    0.156124
    37  H    0.188641
    38  H    0.118510
    39  H    0.153820
    40  H    0.127318
    41  H    0.166787
    42  H    0.141463
    43  H    0.146987
    44  H    0.162785
    45  H    0.150928
    46  N   -0.614840
    47  C   -0.013064
    48  C    0.591729
    49  O   -0.626389
    50  C   -0.268761
    51  C   -0.310287
    52  C   -0.158237
    53  N   -0.603549
    54  C    0.773678
    55  N   -0.749915
    56  N   -0.777035
    57  O   -0.598383
    58  H    0.341489
    59  H    0.138997
    60  H    0.162840
    61  H    0.161500
    62  H    0.183134
    63  H    0.175314
    64  H    0.177593
    65  H    0.183967
    66  H    0.383812
    67  H    0.380421
    68  H    0.386329
    69  H    0.421156
    70  H    0.364762
 Sum of Mulliken charges =   1.00000
 Mulliken charges with hydrogens summed into heavy atoms:
               1
     1  N    0.448069
     2  C    0.096769
     3  C    0.624147
     4  O   -0.481863
     5  C    0.001327
     6  C    0.012820
     7  C    0.152673
     8  C    0.084980
     9  C    0.310176
    10  C   -0.075655
    11  N   -0.338342
    12  C   -0.014234
    13  C    0.009992
    14  C    0.001895
    27  N   -0.287736
    28  C    0.097372
    29  C    0.623436
    30  O   -0.476359
    31  C    0.118486
    32  C    0.005287
    33  C   -0.028012
    34  C    0.008515
    46  N   -0.273352
    47  C    0.125932
    48  C    0.591729
    49  O   -0.626389
    50  C    0.055579
    51  C    0.048160
    52  C    0.203324
    53  N   -0.219737
    54  C    0.773678
    55  N    0.016834
    56  N    0.008883
    57  O   -0.598383
 Electronic spatial extent (au):  <R**2>=        8513487.8272
 Charge=              1.0000 electrons
 Dipole moment (field-independent basis, Debye):
    X=           -460.8917    Y=            -53.5477    Z=             35.7197  Tot=            465.3648
 Quadrupole moment (field-independent basis, Debye-Ang):
   XX=          44086.4210   YY=            401.1017   ZZ=            104.1445
   XY=           5185.7656   XZ=          -3396.4798   YZ=           -396.3687
 Traceless Quadrupole moment (field-independent basis, Debye-Ang):
   XX=          29222.5319   YY=         -14462.7874   ZZ=         -14759.7445
   XY=           5185.7656   XZ=          -3396.4798   YZ=           -396.3687
 Octapole moment (field-independent basis, Debye-Ang**2):
  XXX=       -4204104.9668  YYY=           1718.6409  ZZZ=              6.8765  XYY=         -39808.8988
  XXY=        -500063.7001  XXZ=         322445.6288  XZZ=          -9531.9205  YZZ=           -561.4703
  YYZ=           3533.3697  XYZ=          37961.3334
 Hexadecapole moment (field-independent basis, Debye-Ang**3):
 XXXX=      399672984.5115 YYYY=        -169694.0111 ZZZZ=          -5075.3831 XXXY=       48021767.1170
 XXXZ=      -30562410.0665 YYYX=        -138579.6467 YYYZ=         -13206.5107 ZZZX=           4881.8684
 ZZZY=           6465.9477 XXYY=        3912210.3143 XXZZ=         866088.7729 YYZZ=          -7835.6365
 XXYZ=       -3628278.7475 YYXZ=        -342505.4583 ZZXY=          49642.7464
 N-N= 3.815941554487D+03 E-N=-1.128788347918D+04  KE= 1.567319495190D+03
 Unable to Open any file for archive entry.
 1\1\GINC-QML-002\SP\RB3LYP\6-31G(d)\C23H36N7O4(1+)\KENGMITH\24-May-202
 2\0\\# B3LYP/6-31G* empiricaldispersion=gd3 guess=read geom=check nosy
 mm integral(ultrafinegrid)\\Candidate Structure: Conf:746 Charge calc 
 in gas phase\\1,1\N,0,-97.0099247715,-14.4828985424,5.5963564473\C,0,-
 96.8690681805,-15.3691953862,4.3824830989\C,0,-95.3986109516,-15.53419
 591,3.9366856524\O,0,-94.8965282287,-16.6466469701,3.9538333801\C,0,-9
 7.8123470672,-14.840780923,3.2827711437\C,0,-99.2333643035,-14.7856401
 803,3.7571057327\C,0,-99.9867535902,-13.6563278438,3.9926196783\C,0,-1
 00.0621194287,-15.9161641037,4.1054935125\C,0,-101.3105225608,-15.3963
 796014,4.5397369426\C,0,-99.871749089,-17.3100151258,4.0810147204\N,0,
 -101.2303622156,-14.0175736281,4.4633261076\C,0,-102.361485037,-16.222
 3567397,4.9518471051\C,0,-100.9122013816,-18.1333681846,4.4893733374\C
 ,0,-102.1427355519,-17.594145579,4.9216743938\H,0,-98.0043204619,-14.4
 305486894,5.8504208415\H,0,-97.1835197791,-16.3642244914,4.6989759224\
 H,0,-97.4765374685,-13.8505703632,2.9512364777\H,0,-97.7056117717,-15.
 5114194725,2.4214438916\H,0,-99.737551287,-12.6161204105,3.8289697266\
 H,0,-101.9911075327,-13.3802266597,4.6438070143\H,0,-98.9357032932,-17
 .7389702679,3.7321423004\H,0,-103.3116999458,-15.809007482,5.277653751
 3\H,0,-100.782835345,-19.2112727019,4.4711183433\H,0,-102.9374788509,-
 18.2658996037,5.2317910542\H,0,-96.432099466,-14.8013783781,6.38862911
 47\H,0,-96.6265851013,-13.5047828705,5.4432323183\N,0,-94.7778054902,-
 14.4158691085,3.4775529169\C,0,-93.4001326164,-14.4119056271,2.9636439
 385\C,0,-92.4005424934,-14.7745396372,4.0934196272\O,0,-91.6960801498,
 -15.7670766666,4.0317789636\C,0,-93.18738913,-15.3030153604,1.71720988
 05\C,0,-91.8570771127,-14.9108832276,1.0366184018\C,0,-94.3691361071,-
 15.1847210891,0.745639826\C,0,-91.354350479,-15.9494115713,0.028456969
 1\H,0,-95.227927738,-13.5175500133,3.5876882653\H,0,-93.218217998,-13.
 3750194419,2.6633403566\H,0,-93.1097084037,-16.3352103493,2.0684028331
 \H,0,-91.9854529098,-13.9371841804,0.5384751209\H,0,-91.0850813617,-14
 .7778980163,1.8014985492\H,0,-94.5502486458,-14.1396198185,0.459952043
 2\H,0,-94.1682332438,-15.7470460461,-0.170364122\H,0,-95.2925558735,-1
 5.5859574292,1.1738242424\H,0,-92.0567896906,-16.0995153348,-0.7985639
 287\H,0,-91.1992585593,-16.916658186,0.5196804019\H,0,-90.3987023189,-
 15.6370193975,-0.4061516741\N,0,-92.2854270846,-13.9414230583,5.193399
 9953\C,0,-92.9778401266,-12.7283921687,5.634215426\C,0,-94.4568906612,
 -13.0078109963,5.9994378496\O,0,-95.3758296078,-12.3613332837,5.390216
 3263\C,0,-92.7228984309,-11.5097352905,4.7248055265\C,0,-93.3311816742
 ,-10.1581138494,5.1616799292\C,0,-93.1790152055,-9.7705718394,6.640240
 7728\N,0,-94.1077515356,-10.5587916411,7.4759951045\C,0,-93.8585212575
 ,-11.0061047127,8.7099471078\N,0,-92.9925972034,-10.340283533,9.495710
 951\N,0,-94.4683354228,-12.1156364908,9.145250387\O,0,-94.6630989054,-
 13.8357351549,6.9280826214\H,0,-91.6763368622,-14.3686441005,5.8799160
 403\H,0,-92.5099606686,-12.5139654717,6.6014887455\H,0,-91.6342034408,
 -11.4118915821,4.6390983638\H,0,-93.0950861651,-11.7097155524,3.716906
 9181\H,0,-94.3947582919,-10.1356438796,4.9059299016\H,0,-92.8524623394
 ,-9.3670671121,4.5737536899\H,0,-92.1573219489,-9.9548962715,6.9933429
 248\H,0,-93.3942982806,-8.7028950664,6.7656970983\H,0,-94.8955953786,-
 10.9768205537,6.9851014374\H,0,-92.6532861959,-10.7408654278,10.358255
 9992\H,0,-92.7597578321,-9.3756736572,9.3073713678\H,0,-94.697765826,-
 12.8518201846,8.4563649887\H,0,-94.4091475416,-12.3768260918,10.119765
 3662\\Version=ES64L-G16RevC.01\HF=-1582.2386519\RMSD=8.133e-09\Dipole=
 -0.6261533,5.5732242,5.1942973\Quadrupole=21726.2362727,-10752.7279547
 ,-10973.5083179,3855.4896267,-2525.1995189,-294.6904433\PG=C01 [X(C23H
 36N7O4)]\\@
 The archive entry for this job was punched.


 CHEMISTRY BEGAN BY SAYING IT WOULD CHANGE THE BASER
 METALS INTO GOLD.  BY NOT DOING THAT IT HAS DONE MUCH
 GREATER THINGS.  --  RALPH WALDO EMERSON
 Job cpu time:       0 days  0 hours  4 minutes 10.0 seconds.
 Elapsed time:       0 days  0 hours  1 minutes  3.0 seconds.
 File lengths (MBytes):  RWF=    296 Int=      0 D2E=      0 Chk=     40 Scr=     16
 Normal termination of Gaussian 16 at Tue May 24 23:10:02 2022.
