 Entering Gaussian System, Link 0=/opt/software/Gaussian/g16-AVX2-C.01/g16/g16
 Input=charge-conf-962.com
 Output=charge-conf-962.log
 Initial command:
 /opt/software/Gaussian/g16-AVX2-C.01/g16/l1.exe "/mnt/gs18/scratch/users/kengmith/Gau-4155.inp" -scrdir="/mnt/gs18/scratch/users/kengmith/"
 Entering Link 1 = /opt/software/Gaussian/g16-AVX2-C.01/g16/l1.exe PID=      4204.
  
 Copyright (c) 1988-2019, Gaussian, Inc.  All Rights Reserved.
  
 This is part of the Gaussian(R) 16 program.  It is based on
 the Gaussian(R) 09 system (copyright 2009, Gaussian, Inc.),
 the Gaussian(R) 03 system (copyright 2003, Gaussian, Inc.),
 the Gaussian(R) 98 system (copyright 1998, Gaussian, Inc.),
 the Gaussian(R) 94 system (copyright 1995, Gaussian, Inc.),
 the Gaussian 92(TM) system (copyright 1992, Gaussian, Inc.),
 the Gaussian 90(TM) system (copyright 1990, Gaussian, Inc.),
 the Gaussian 88(TM) system (copyright 1988, Gaussian, Inc.),
 the Gaussian 86(TM) system (copyright 1986, Carnegie Mellon
 University), and the Gaussian 82(TM) system (copyright 1983,
 Carnegie Mellon University). Gaussian is a federally registered
 trademark of Gaussian, Inc.
  
 This software contains proprietary and confidential information,
 including trade secrets, belonging to Gaussian, Inc.
  
 This software is provided under written license and may be
 used, copied, transmitted, or stored only in accord with that
 written license.
  
 The following legend is applicable only to US Government
 contracts under FAR:
  
                    RESTRICTED RIGHTS LEGEND
  
 Use, reproduction and disclosure by the US Government is
 subject to restrictions as set forth in subparagraphs (a)
 and (c) of the Commercial Computer Software - Restricted
 Rights clause in FAR 52.227-19.
  
 Gaussian, Inc.
 340 Quinnipiac St., Bldg. 40, Wallingford CT 06492
  
  
 ---------------------------------------------------------------
 Warning -- This program may not be used in any manner that
 competes with the business of Gaussian, Inc. or will provide
 assistance to any competitor of Gaussian, Inc.  The licensee
 of this program is prohibited from giving any competitor of
 Gaussian, Inc. access to this program.  By using this program,
 the user acknowledges that Gaussian, Inc. is engaged in the
 business of creating and licensing software in the field of
 computational chemistry and represents and warrants to the
 licensee that it is not a competitor of Gaussian, Inc. and that
 it will not use this program in any manner prohibited above.
 ---------------------------------------------------------------
  

 Cite this work as:
 Gaussian 16, Revision C.01,
 M. J. Frisch, G. W. Trucks, H. B. Schlegel, G. E. Scuseria, 
 M. A. Robb, J. R. Cheeseman, G. Scalmani, V. Barone, 
 G. A. Petersson, H. Nakatsuji, X. Li, M. Caricato, A. V. Marenich, 
 J. Bloino, B. G. Janesko, R. Gomperts, B. Mennucci, H. P. Hratchian, 
 J. V. Ortiz, A. F. Izmaylov, J. L. Sonnenberg, D. Williams-Young, 
 F. Ding, F. Lipparini, F. Egidi, J. Goings, B. Peng, A. Petrone, 
 T. Henderson, D. Ranasinghe, V. G. Zakrzewski, J. Gao, N. Rega, 
 G. Zheng, W. Liang, M. Hada, M. Ehara, K. Toyota, R. Fukuda, 
 J. Hasegawa, M. Ishida, T. Nakajima, Y. Honda, O. Kitao, H. Nakai, 
 T. Vreven, K. Throssell, J. A. Montgomery, Jr., J. E. Peralta, 
 F. Ogliaro, M. J. Bearpark, J. J. Heyd, E. N. Brothers, K. N. Kudin, 
 V. N. Staroverov, T. A. Keith, R. Kobayashi, J. Normand, 
 K. Raghavachari, A. P. Rendell, J. C. Burant, S. S. Iyengar, 
 J. Tomasi, M. Cossi, J. M. Millam, M. Klene, C. Adamo, R. Cammi, 
 J. W. Ochterski, R. L. Martin, K. Morokuma, O. Farkas, 
 J. B. Foresman, and D. J. Fox, Gaussian, Inc., Wallingford CT, 2019.
 
 ******************************************
 Gaussian 16:  ES64L-G16RevC.01  3-Jul-2019
                27-May-2022 
 ******************************************
 %mem=8gb
 %nproc=4
 Will use up to    4 processors via shared memory.
 %chk=conf-962.chk
 ----------------------------------------------------------------------
 # B3LYP/6-31G* empiricaldispersion=gd3 guess=read geom=check nosymm in
 tegral(ultrafinegrid)
 ----------------------------------------------------------------------
 1/29=2,38=1,172=1/1;
 2/12=2,15=1,40=1/2;
 3/5=1,6=6,7=1,11=2,14=-4,25=1,30=1,74=-5,75=-5,116=-2,124=31/1,2,3;
 4/5=1/1;
 5/5=2,38=6/2;
 6/7=2,8=2,9=2,10=2,28=1/1;
 99/5=1,9=1/99;
 ------------------------------------------------------
 Candidate Structure: Conf:962 Charge calc in gas phase
 ------------------------------------------------------
 Structure from the checkpoint file:  "conf-962.chk"
 Charge =  1 Multiplicity = 1
 Redundant internal coordinates found in file.  (old form).
 N,0,12.6800798174,31.4844113975,11.8080154374
 C,0,12.8972271003,32.8496491843,12.3956886924
 C,0,12.9503008955,32.8673933971,13.9406311128
 O,0,14.0288143069,33.0860877937,14.4741729507
 C,0,11.9166964702,33.8713961514,11.7962154402
 C,0,12.2081922975,34.2817122037,10.3383384769
 C,0,11.7641708615,33.3010657399,9.2472609263
 O,0,11.3252609977,33.7601722657,8.1842367873
 O,0,11.8603357064,32.0274079357,9.4878825243
 H,0,11.9125856201,30.9771169099,12.2588868601
 H,0,13.9124369427,33.1301970343,12.1075412702
 H,0,10.8845370077,33.5118782723,11.8887515936
 H,0,11.980379084,34.7661294964,12.4238863625
 H,0,13.2857283408,34.4580485818,10.2127350674
 H,0,11.7190726957,35.2345073225,10.1216722933
 H,0,12.3980874123,31.6384386923,10.7134795112
 H,0,13.5017770676,30.8882886756,11.9319956788
 N,0,11.7913638093,32.8069864432,14.6670925628
 C,0,10.5425248443,32.0978835857,14.4374649637
 C,0,9.4443640569,32.8850214925,15.1831147752
 O,0,9.7390005923,33.4831712637,16.2075102902
 C,0,10.617091317,30.6563474196,15.0352739328
 C,0,11.573849197,29.771744935,14.3029737186
 C,0,12.9318746835,29.668236832,14.4927334266
 C,0,11.2480374779,28.927933022,13.1743792211
 C,0,12.4636653213,28.3420161695,12.7227228046
 C,0,10.048369909,28.6084946535,12.5104267452
 N,0,13.4784367293,28.8407351343,13.5249865232
 C,0,12.5110805811,27.4575184393,11.6399033981
 C,0,10.0914326953,27.7243088546,11.4396251097
 C,0,11.3101386323,27.1576853349,11.0072760006
 H,0,11.9264006079,33.046753892,15.6468749778
 H,0,10.3362556709,32.0453225723,13.365735002
 H,0,9.6185567062,30.2074434037,15.0229095903
 H,0,10.8947734371,30.7642366406,16.0892602389
 H,0,13.5642786708,30.1512978613,15.2248882411
 H,0,14.416757333,28.4673268147,13.5621363014
 H,0,9.1006238401,29.0275189154,12.8376546619
 H,0,13.446473815,27.013705228,11.3117410611
 H,0,9.1705587724,27.4483226288,10.9337081073
 H,0,11.3085816551,26.4660128596,10.1705172843
 N,0,8.1609052977,32.8573643956,14.7155070383
 C,0,7.5697371672,32.1775322731,13.5786186859
 C,0,6.478281089,33.1042174751,13.0120579078
 O,0,5.8472029049,33.7896860675,13.8068616127
 C,0,6.9154063365,30.8341418257,14.0238925504
 C,0,5.7319450065,30.964901341,14.9722353012
 O,0,6.5520025742,30.1486425847,12.8079994571
 H,0,6.106316783,29.3173453631,13.0410063242
 H,0,7.5097012119,33.4302805161,15.2463290684
 H,0,8.3352231096,31.9374436282,12.8454330873
 H,0,7.7098960329,30.2606606809,14.5171204398
 H,0,4.9004251307,31.4994778388,14.507153263
 H,0,6.0223722686,31.5019527275,15.879523855
 H,0,5.3894463694,29.9684058502,15.2746910378
 N,0,6.0808902691,33.0491248278,11.6960014346
 C,0,6.7235548991,32.8105939225,10.3904643746
 C,0,6.0403771781,31.6680143501,9.6227634947
 O,0,6.0168832119,31.6763063665,8.4061940171
 C,0,8.2602595378,32.6027843421,10.3582803567
 C,0,8.7935285671,31.1589720682,10.4761678568
 C,0,8.8603971791,30.3624616206,9.1543477783
 N,0,9.6210725715,31.0811644107,8.1405059824
 C,0,9.2251936452,31.50458846,6.9402635212
 N,0,8.0226284615,31.1717321756,6.4220566941
 N,0,10.1093270374,32.2140667384,6.2137746422
 O,0,5.5605479036,30.6497995745,10.3251357243
 H,0,5.733675376,30.7627272124,11.2915187228
 H,0,5.2496901827,33.627524143,11.601203906
 H,0,6.5195457027,33.7059855607,9.7969419465
 H,0,8.6934751058,33.2428279315,11.1344624306
 H,0,8.6184419961,33.0221163155,9.4129962051
 H,0,9.8157228597,31.2088453955,10.8648966951
 H,0,8.2125252145,30.5634687556,11.1833879553
 H,0,9.3697059339,29.4146854772,9.358941527
 H,0,7.8691695001,30.1107921453,8.7824204658
 H,0,10.5670900183,31.3574983856,8.4462220476
 H,0,7.735575274,31.657480907,5.5830316345
 H,0,7.2493401727,30.9886468908,7.0576904764
 H,0,10.7969313351,32.7521033241,6.7672545453
 H,0,9.7891951154,32.6509827506,5.3607637121
 Recover connectivity data from disk.
                           ----------------------------
                           !    Current Parameters    !
                           ! (Angstroms and Degrees)  !
 --------------------------                            --------------------------
 ! Name  Definition              Value                                          !
 --------------------------------------------------------------------------------
 ! R1    R(1,2)                  1.5021                                         !
 ! R2    R(1,10)                 1.0245                                         !
 ! R3    R(1,16)                 1.1407                                         !
 ! R4    R(1,17)                 1.0227                                         !
 ! R5    R(2,3)                  1.546                                          !
 ! R6    R(2,5)                  1.5378                                         !
 ! R7    R(2,11)                 1.092                                          !
 ! R8    R(3,4)                  1.223                                          !
 ! R9    R(3,18)                 1.3691                                         !
 ! R10   R(5,6)                  1.5423                                         !
 ! R11   R(5,12)                 1.0969                                         !
 ! R12   R(5,13)                 1.0948                                         !
 ! R13   R(6,7)                  1.5327                                         !
 ! R14   R(6,14)                 1.0991                                         !
 ! R15   R(6,15)                 1.0927                                         !
 ! R16   R(7,8)                  1.2383                                         !
 ! R17   R(7,9)                  1.2998                                         !
 ! R18   R(18,19)                1.4544                                         !
 ! R19   R(18,32)                1.0177                                         !
 ! R20   R(19,20)                1.5432                                         !
 ! R21   R(19,22)                1.5624                                         !
 ! R22   R(19,33)                1.0927                                         !
 ! R23   R(20,21)                1.2223                                         !
 ! R24   R(20,42)                1.3663                                         !
 ! R25   R(22,23)                1.4947                                         !
 ! R26   R(22,34)                1.0949                                         !
 ! R27   R(22,35)                1.0953                                         !
 ! R28   R(23,24)                1.3751                                         !
 ! R29   R(23,25)                1.4463                                         !
 ! R30   R(24,28)                1.3856                                         !
 ! R31   R(24,36)                1.0814                                         !
 ! R32   R(25,26)                1.423                                          !
 ! R33   R(25,27)                1.4079                                         !
 ! R34   R(26,28)                1.3864                                         !
 ! R35   R(26,29)                1.399                                          !
 ! R36   R(27,30)                1.3893                                         !
 ! R37   R(27,38)                1.0867                                         !
 ! R38   R(28,37)                1.0106                                         !
 ! R39   R(29,31)                1.3901                                         !
 ! R40   R(29,39)                1.0861                                         !
 ! R41   R(30,31)                1.4118                                         !
 ! R42   R(30,40)                1.0863                                         !
 ! R43   R(31,41)                1.0856                                         !
 ! R44   R(42,43)                1.4506                                         !
 ! R45   R(42,50)                1.0169                                         !
 ! R46   R(43,44)                1.5398                                         !
 ! R47   R(43,46)                1.5592                                         !
 ! R48   R(43,51)                1.0868                                         !
 ! R49   R(44,45)                1.2247                                         !
 ! R50   R(44,56)                1.3758                                         !
 ! R51   R(46,47)                1.5222                                         !
 ! R52   R(46,48)                1.4423                                         !
 ! R53   R(46,52)                1.097                                          !
 ! R54   R(47,53)                1.0925                                         !
 ! R55   R(47,54)                1.0936                                         !
 ! R56   R(47,55)                1.0963                                         !
 ! R57   R(48,49)                0.9716                                         !
 ! R58   R(56,57)                1.4746                                         !
 ! R59   R(56,69)                1.0171                                         !
 ! R60   R(57,58)                1.5367                                         !
 ! R61   R(57,60)                1.551                                          !
 ! R62   R(57,70)                1.0934                                         !
 ! R63   R(58,59)                1.2168                                         !
 ! R64   R(58,67)                1.3268                                         !
 ! R65   R(60,61)                1.5437                                         !
 ! R66   R(60,71)                1.0953                                         !
 ! R67   R(60,72)                1.0944                                         !
 ! R68   R(61,62)                1.5447                                         !
 ! R69   R(61,73)                1.0948                                         !
 ! R70   R(61,74)                1.0919                                         !
 ! R71   R(62,63)                1.4571                                         !
 ! R72   R(62,75)                1.0952                                         !
 ! R73   R(62,76)                1.0882                                         !
 ! R74   R(63,64)                1.3329                                         !
 ! R75   R(63,77)                1.0319                                         !
 ! R76   R(64,65)                1.3511                                         !
 ! R77   R(64,66)                1.3464                                         !
 ! R78   R(65,78)                1.0111                                         !
 ! R79   R(65,79)                1.0176                                         !
 ! R80   R(66,80)                1.0337                                         !
 ! R81   R(66,81)                1.0104                                         !
 ! R82   R(67,68)                0.9882                                         !
 ! A1    A(2,1,10)             112.7148                                         !
 ! A2    A(2,1,16)             106.7623                                         !
 ! A3    A(2,1,17)             111.4812                                         !
 ! A4    A(10,1,16)            107.6936                                         !
 ! A5    A(10,1,17)            105.065                                          !
 ! A6    A(16,1,17)            113.1814                                         !
 ! A7    A(1,2,3)              113.9767                                         !
 ! A8    A(1,2,5)              111.0506                                         !
 ! A9    A(1,2,11)             105.3473                                         !
 ! A10   A(3,2,5)              113.8183                                         !
 ! A11   A(3,2,11)             103.2288                                         !
 ! A12   A(5,2,11)             108.6166                                         !
 ! A13   A(2,3,4)              117.9243                                         !
 ! A14   A(2,3,18)             120.0453                                         !
 ! A15   A(4,3,18)             121.5263                                         !
 ! A16   A(2,5,6)              115.1343                                         !
 ! A17   A(2,5,12)             110.4468                                         !
 ! A18   A(2,5,13)             106.4049                                         !
 ! A19   A(6,5,12)             110.1688                                         !
 ! A20   A(6,5,13)             108.2714                                         !
 ! A21   A(12,5,13)            105.9165                                         !
 ! A22   A(5,6,7)              116.61                                           !
 ! A23   A(5,6,14)             109.6336                                         !
 ! A24   A(5,6,15)             109.5606                                         !
 ! A25   A(7,6,14)             107.7772                                         !
 ! A26   A(7,6,15)             106.6821                                         !
 ! A27   A(14,6,15)            106.0392                                         !
 ! A28   A(6,7,8)              118.4605                                         !
 ! A29   A(6,7,9)              118.2774                                         !
 ! A30   A(8,7,9)              123.2609                                         !
 ! A31   A(3,18,19)            131.6511                                         !
 ! A32   A(3,18,32)            112.8376                                         !
 ! A33   A(19,18,32)           112.3844                                         !
 ! A34   A(18,19,20)           106.6225                                         !
 ! A35   A(18,19,22)           110.3938                                         !
 ! A36   A(18,19,33)           109.9024                                         !
 ! A37   A(20,19,22)           108.6448                                         !
 ! A38   A(20,19,33)           111.3536                                         !
 ! A39   A(22,19,33)           109.8725                                         !
 ! A40   A(19,20,21)           118.8831                                         !
 ! A41   A(19,20,42)           119.5234                                         !
 ! A42   A(21,20,42)           121.5465                                         !
 ! A43   A(19,22,23)           112.9011                                         !
 ! A44   A(19,22,34)           109.2962                                         !
 ! A45   A(19,22,35)           106.8233                                         !
 ! A46   A(23,22,34)           109.6085                                         !
 ! A47   A(23,22,35)           111.5598                                         !
 ! A48   A(34,22,35)           106.4079                                         !
 ! A49   A(22,23,24)           127.5228                                         !
 ! A50   A(22,23,25)           125.6885                                         !
 ! A51   A(24,23,25)           106.6324                                         !
 ! A52   A(23,24,28)           109.7622                                         !
 ! A53   A(23,24,36)           129.5953                                         !
 ! A54   A(28,24,36)           120.595                                          !
 ! A55   A(23,25,26)           107.1839                                         !
 ! A56   A(23,25,27)           133.8145                                         !
 ! A57   A(26,25,27)           119.0006                                         !
 ! A58   A(25,26,28)           107.067                                          !
 ! A59   A(25,26,29)           122.3398                                         !
 ! A60   A(28,26,29)           130.5813                                         !
 ! A61   A(25,27,30)           118.7811                                         !
 ! A62   A(25,27,38)           120.9086                                         !
 ! A63   A(30,27,38)           120.2993                                         !
 ! A64   A(24,28,26)           109.2843                                         !
 ! A65   A(24,28,37)           124.1411                                         !
 ! A66   A(26,28,37)           124.6087                                         !
 ! A67   A(26,29,31)           117.3447                                         !
 ! A68   A(26,29,39)           121.4272                                         !
 ! A69   A(31,29,39)           121.2251                                         !
 ! A70   A(27,30,31)           121.2115                                         !
 ! A71   A(27,30,40)           119.6264                                         !
 ! A72   A(31,30,40)           119.154                                          !
 ! A73   A(29,31,30)           121.3203                                         !
 ! A74   A(29,31,41)           119.3032                                         !
 ! A75   A(30,31,41)           119.3735                                         !
 ! A76   A(20,42,43)           131.3431                                         !
 ! A77   A(20,42,50)           114.2998                                         !
 ! A78   A(43,42,50)           114.342                                          !
 ! A79   A(42,43,44)           107.1695                                         !
 ! A80   A(42,43,46)           110.5485                                         !
 ! A81   A(42,43,51)           110.1951                                         !
 ! A82   A(44,43,46)           109.0341                                         !
 ! A83   A(44,43,51)           112.5804                                         !
 ! A84   A(46,43,51)           107.3317                                         !
 ! A85   A(43,44,45)           117.6011                                         !
 ! A86   A(43,44,56)           122.1803                                         !
 ! A87   A(45,44,56)           119.6277                                         !
 ! A88   A(43,46,47)           115.479                                          !
 ! A89   A(43,46,48)           105.9308                                         !
 ! A90   A(43,46,52)           105.9553                                         !
 ! A91   A(47,46,48)           111.7242                                         !
 ! A92   A(47,46,52)           109.1398                                         !
 ! A93   A(48,46,52)           108.243                                          !
 ! A94   A(46,47,53)           111.6276                                         !
 ! A95   A(46,47,54)           110.6458                                         !
 ! A96   A(46,47,55)           109.6763                                         !
 ! A97   A(53,47,54)           108.3622                                         !
 ! A98   A(53,47,55)           108.9324                                         !
 ! A99   A(54,47,55)           107.486                                          !
 ! A100  A(46,48,49)           108.6659                                         !
 ! A101  A(44,56,57)           136.6763                                         !
 ! A102  A(44,56,69)           107.6038                                         !
 ! A103  A(57,56,69)           111.448                                          !
 ! A104  A(56,57,58)           111.6426                                         !
 ! A105  A(56,57,60)           118.1547                                         !
 ! A106  A(56,57,70)           105.474                                          !
 ! A107  A(58,57,60)           109.2976                                         !
 ! A108  A(58,57,70)           104.7576                                         !
 ! A109  A(60,57,70)           106.4575                                         !
 ! A110  A(57,58,59)           120.197                                          !
 ! A111  A(57,58,67)           117.8339                                         !
 ! A112  A(59,58,67)           121.8381                                         !
 ! A113  A(57,60,61)           117.775                                          !
 ! A114  A(57,60,71)           107.3891                                         !
 ! A115  A(57,60,72)           106.909                                          !
 ! A116  A(61,60,71)           110.8417                                         !
 ! A117  A(61,60,72)           108.1364                                         !
 ! A118  A(71,60,72)           104.9948                                         !
 ! A119  A(60,61,62)           115.5878                                         !
 ! A120  A(60,61,73)           107.8828                                         !
 ! A121  A(60,61,74)           112.0698                                         !
 ! A122  A(62,61,73)           106.6737                                         !
 ! A123  A(62,61,74)           107.22                                           !
 ! A124  A(73,61,74)           106.9588                                         !
 ! A125  A(61,62,63)           111.3259                                         !
 ! A126  A(61,62,75)           107.8482                                         !
 ! A127  A(61,62,76)           111.8566                                         !
 ! A128  A(63,62,75)           108.3038                                         !
 ! A129  A(63,62,76)           110.5971                                         !
 ! A130  A(75,62,76)           106.696                                          !
 ! A131  A(62,63,64)           128.9177                                         !
 ! A132  A(62,63,77)           113.8638                                         !
 ! A133  A(64,63,77)           117.0013                                         !
 ! A134  A(63,64,65)           122.1046                                         !
 ! A135  A(63,64,66)           117.2734                                         !
 ! A136  A(65,64,66)           120.4861                                         !
 ! A137  A(64,65,78)           116.911                                          !
 ! A138  A(64,65,79)           118.7581                                         !
 ! A139  A(78,65,79)           112.8941                                         !
 ! A140  A(64,66,80)           114.9701                                         !
 ! A141  A(64,66,81)           118.3792                                         !
 ! A142  A(80,66,81)           115.9557                                         !
 ! A143  A(58,67,68)           111.5074                                         !
 ! D1    D(10,1,2,3)            47.8784                                         !
 ! D2    D(10,1,2,5)           -82.2687                                         !
 ! D3    D(10,1,2,11)          160.3221                                         !
 ! D4    D(16,1,2,3)           165.925                                          !
 ! D5    D(16,1,2,5)            35.7779                                         !
 ! D6    D(16,1,2,11)          -81.6313                                         !
 ! D7    D(17,1,2,3)           -69.9964                                         !
 ! D8    D(17,1,2,5)           159.8566                                         !
 ! D9    D(17,1,2,11)           42.4473                                         !
 ! D10   D(1,2,3,4)            109.5672                                         !
 ! D11   D(1,2,3,18)           -78.4516                                         !
 ! D12   D(5,2,3,4)           -121.6745                                         !
 ! D13   D(5,2,3,18)            50.3067                                         !
 ! D14   D(11,2,3,4)            -4.1429                                         !
 ! D15   D(11,2,3,18)          167.8384                                         !
 ! D16   D(1,2,5,6)            -72.5576                                         !
 ! D17   D(1,2,5,12)            52.9895                                         !
 ! D18   D(1,2,5,13)           167.4999                                         !
 ! D19   D(3,2,5,6)            157.2122                                         !
 ! D20   D(3,2,5,12)           -77.2407                                         !
 ! D21   D(3,2,5,13)            37.2697                                         !
 ! D22   D(11,2,5,6)            42.8403                                         !
 ! D23   D(11,2,5,12)          168.3874                                         !
 ! D24   D(11,2,5,13)          -77.1022                                         !
 ! D25   D(2,3,18,19)           35.6461                                         !
 ! D26   D(2,3,18,32)         -166.2931                                         !
 ! D27   D(4,3,18,19)         -152.6679                                         !
 ! D28   D(4,3,18,32)            5.3929                                         !
 ! D29   D(2,5,6,7)             79.0945                                         !
 ! D30   D(2,5,6,14)           -43.677                                          !
 ! D31   D(2,5,6,15)          -159.6579                                         !
 ! D32   D(12,5,6,7)           -46.5962                                         !
 ! D33   D(12,5,6,14)         -169.3677                                         !
 ! D34   D(12,5,6,15)           74.6514                                         !
 ! D35   D(13,5,6,7)          -161.9961                                         !
 ! D36   D(13,5,6,14)           75.2324                                         !
 ! D37   D(13,5,6,15)          -40.7485                                         !
 ! D38   D(5,6,7,8)            143.229                                          !
 ! D39   D(5,6,7,9)            -36.3821                                         !
 ! D40   D(14,6,7,8)           -93.0407                                         !
 ! D41   D(14,6,7,9)            87.3481                                         !
 ! D42   D(15,6,7,8)            20.4737                                         !
 ! D43   D(15,6,7,9)          -159.1375                                         !
 ! D44   D(3,18,19,20)        -154.4762                                         !
 ! D45   D(3,18,19,22)          87.6877                                         !
 ! D46   D(3,18,19,33)         -33.6642                                         !
 ! D47   D(32,18,19,20)         47.3871                                         !
 ! D48   D(32,18,19,22)        -70.4489                                         !
 ! D49   D(32,18,19,33)        168.1992                                         !
 ! D50   D(18,19,20,21)        -31.4061                                         !
 ! D51   D(18,19,20,42)        151.0474                                         !
 ! D52   D(22,19,20,21)         87.5763                                         !
 ! D53   D(22,19,20,42)        -89.9703                                         !
 ! D54   D(33,19,20,21)       -151.285                                          !
 ! D55   D(33,19,20,42)         31.1685                                         !
 ! D56   D(18,19,22,23)        -68.2941                                         !
 ! D57   D(18,19,22,34)        169.437                                          !
 ! D58   D(18,19,22,35)         54.6951                                         !
 ! D59   D(20,19,22,23)        175.1201                                         !
 ! D60   D(20,19,22,34)         52.8512                                         !
 ! D61   D(20,19,22,35)        -61.8907                                         !
 ! D62   D(33,19,22,23)         53.0755                                         !
 ! D63   D(33,19,22,34)        -69.1934                                         !
 ! D64   D(33,19,22,35)        176.0647                                         !
 ! D65   D(19,20,42,43)          0.6316                                         !
 ! D66   D(19,20,42,50)       -177.8486                                         !
 ! D67   D(21,20,42,43)       -176.8475                                         !
 ! D68   D(21,20,42,50)          4.6723                                         !
 ! D69   D(19,22,23,24)         84.6886                                         !
 ! D70   D(19,22,23,25)        -90.1497                                         !
 ! D71   D(34,22,23,24)       -153.2178                                         !
 ! D72   D(34,22,23,25)         31.9439                                         !
 ! D73   D(35,22,23,24)        -35.6251                                         !
 ! D74   D(35,22,23,25)        149.5366                                         !
 ! D75   D(22,23,24,28)       -173.8774                                         !
 ! D76   D(22,23,24,36)          3.5814                                         !
 ! D77   D(25,23,24,28)          1.7489                                         !
 ! D78   D(25,23,24,36)        179.2076                                         !
 ! D79   D(22,23,25,26)        175.5598                                         !
 ! D80   D(22,23,25,27)         -4.8287                                         !
 ! D81   D(24,23,25,26)         -0.1695                                         !
 ! D82   D(24,23,25,27)        179.4421                                         !
 ! D83   D(23,24,28,26)         -2.7351                                         !
 ! D84   D(23,24,28,37)       -167.3765                                         !
 ! D85   D(36,24,28,26)        179.5397                                         !
 ! D86   D(36,24,28,37)         14.8983                                         !
 ! D87   D(23,25,26,28)         -1.4471                                         !
 ! D88   D(23,25,26,29)        179.681                                          !
 ! D89   D(27,25,26,28)        178.8734                                         !
 ! D90   D(27,25,26,29)          0.0015                                         !
 ! D91   D(23,25,27,30)       -179.2077                                         !
 ! D92   D(23,25,27,38)         -0.41                                           !
 ! D93   D(26,25,27,30)          0.368                                          !
 ! D94   D(26,25,27,38)        179.1657                                         !
 ! D95   D(25,26,28,24)          2.5468                                         !
 ! D96   D(25,26,28,37)        167.1001                                         !
 ! D97   D(29,26,28,24)       -178.7082                                         !
 ! D98   D(29,26,28,37)        -14.1549                                         !
 ! D99   D(25,26,29,31)         -0.2146                                         !
 ! D100  D(25,26,29,39)       -179.5889                                         !
 ! D101  D(28,26,29,31)       -178.7946                                         !
 ! D102  D(28,26,29,39)          1.8311                                         !
 ! D103  D(25,27,30,31)         -0.5273                                         !
 ! D104  D(25,27,30,40)        178.427                                          !
 ! D105  D(38,27,30,31)       -179.3325                                         !
 ! D106  D(38,27,30,40)         -0.3782                                         !
 ! D107  D(26,29,31,30)          0.0597                                         !
 ! D108  D(26,29,31,41)       -179.3049                                         !
 ! D109  D(39,29,31,30)        179.4353                                         !
 ! D110  D(39,29,31,41)          0.0708                                         !
 ! D111  D(27,30,31,29)          0.3162                                         !
 ! D112  D(27,30,31,41)        179.6803                                         !
 ! D113  D(40,30,31,29)       -178.6429                                         !
 ! D114  D(40,30,31,41)          0.7212                                         !
 ! D115  D(20,42,43,44)       -144.5879                                         !
 ! D116  D(20,42,43,46)         96.7036                                         !
 ! D117  D(20,42,43,51)        -21.7773                                         !
 ! D118  D(50,42,43,44)         33.8918                                         !
 ! D119  D(50,42,43,46)        -84.8167                                         !
 ! D120  D(50,42,43,51)        156.7024                                         !
 ! D121  D(42,43,44,45)        -34.5075                                         !
 ! D122  D(42,43,44,56)        154.3467                                         !
 ! D123  D(46,43,44,45)         85.1763                                         !
 ! D124  D(46,43,44,56)        -85.9695                                         !
 ! D125  D(51,43,44,45)       -155.8267                                         !
 ! D126  D(51,43,44,56)         33.0276                                         !
 ! D127  D(42,43,46,47)         64.592                                          !
 ! D128  D(42,43,46,48)       -171.1853                                         !
 ! D129  D(42,43,46,52)        -56.338                                          !
 ! D130  D(44,43,46,47)        -52.9768                                         !
 ! D131  D(44,43,46,48)         71.2459                                         !
 ! D132  D(44,43,46,52)       -173.9068                                         !
 ! D133  D(51,43,46,47)       -175.1968                                         !
 ! D134  D(51,43,46,48)        -50.974                                          !
 ! D135  D(51,43,46,52)         63.8733                                         !
 ! D136  D(43,44,56,57)        -36.308                                          !
 ! D137  D(43,44,56,69)        170.114                                          !
 ! D138  D(45,44,56,57)        152.7202                                         !
 ! D139  D(45,44,56,69)         -0.8578                                         !
 ! D140  D(43,46,47,53)         62.8983                                         !
 ! D141  D(43,46,47,54)        -57.8674                                         !
 ! D142  D(43,46,47,55)       -176.2748                                         !
 ! D143  D(48,46,47,53)        -58.2435                                         !
 ! D144  D(48,46,47,54)       -179.0092                                         !
 ! D145  D(48,46,47,55)         62.5833                                         !
 ! D146  D(52,46,47,53)       -177.912                                          !
 ! D147  D(52,46,47,54)         61.3223                                         !
 ! D148  D(52,46,47,55)        -57.0851                                         !
 ! D149  D(43,46,48,49)       -177.7723                                         !
 ! D150  D(47,46,48,49)        -51.2387                                         !
 ! D151  D(52,46,48,49)         68.9568                                         !
 ! D152  D(44,56,57,58)        125.211                                          !
 ! D153  D(44,56,57,60)         -2.785                                          !
 ! D154  D(44,56,57,70)       -121.5727                                         !
 ! D155  D(69,56,57,58)        -81.8989                                         !
 ! D156  D(69,56,57,60)        150.1051                                         !
 ! D157  D(69,56,57,70)         31.3174                                         !
 ! D158  D(56,57,58,59)        149.214                                          !
 ! D159  D(56,57,58,67)        -34.8699                                         !
 ! D160  D(60,57,58,59)        -78.1922                                         !
 ! D161  D(60,57,58,67)         97.7239                                         !
 ! D162  D(70,57,58,59)         35.5514                                         !
 ! D163  D(70,57,58,67)       -148.5325                                         !
 ! D164  D(56,57,60,61)         91.0551                                         !
 ! D165  D(56,57,60,71)        -34.8411                                         !
 ! D166  D(56,57,60,72)       -147.0866                                         !
 ! D167  D(58,57,60,61)        -38.0397                                         !
 ! D168  D(58,57,60,71)       -163.9359                                         !
 ! D169  D(58,57,60,72)         83.8186                                         !
 ! D170  D(70,57,60,61)       -150.6748                                         !
 ! D171  D(70,57,60,71)         83.429                                          !
 ! D172  D(70,57,60,72)        -28.8164                                         !
 ! D173  D(57,58,67,68)         -1.2464                                         !
 ! D174  D(59,58,67,68)        174.5987                                         !
 ! D175  D(57,60,61,62)         84.8573                                         !
 ! D176  D(57,60,61,73)       -155.8824                                         !
 ! D177  D(57,60,61,74)        -38.3956                                         !
 ! D178  D(71,60,61,62)       -150.9531                                         !
 ! D179  D(71,60,61,73)        -31.6929                                         !
 ! D180  D(71,60,61,74)         85.794                                          !
 ! D181  D(72,60,61,62)        -36.3697                                         !
 ! D182  D(72,60,61,73)         82.8906                                         !
 ! D183  D(72,60,61,74)       -159.6226                                         !
 ! D184  D(60,61,62,63)         54.2215                                         !
 ! D185  D(60,61,62,75)        172.9                                            !
 ! D186  D(60,61,62,76)        -70.0767                                         !
 ! D187  D(73,61,62,63)        -65.7011                                         !
 ! D188  D(73,61,62,75)         52.9774                                         !
 ! D189  D(73,61,62,76)        170.0007                                         !
 ! D190  D(74,61,62,63)        179.9933                                         !
 ! D191  D(74,61,62,75)        -61.3282                                         !
 ! D192  D(74,61,62,76)         55.6951                                         !
 ! D193  D(61,62,63,64)       -120.2782                                         !
 ! D194  D(61,62,63,77)         54.1393                                         !
 ! D195  D(75,62,63,64)        121.3166                                         !
 ! D196  D(75,62,63,77)        -64.2658                                         !
 ! D197  D(76,62,63,64)          4.7278                                         !
 ! D198  D(76,62,63,77)        179.1453                                         !
 ! D199  D(62,63,64,65)         -7.667                                          !
 ! D200  D(62,63,64,66)        176.5542                                         !
 ! D201  D(77,63,64,65)        178.0632                                         !
 ! D202  D(77,63,64,66)          2.2844                                         !
 ! D203  D(63,64,65,78)        169.8938                                         !
 ! D204  D(63,64,65,79)         28.979                                          !
 ! D205  D(66,64,65,78)        -14.4604                                         !
 ! D206  D(66,64,65,79)       -155.3751                                         !
 ! D207  D(63,64,66,80)        -28.547                                          !
 ! D208  D(63,64,66,81)       -171.708                                          !
 ! D209  D(65,64,66,80)        155.6023                                         !
 ! D210  D(65,64,66,81)         12.4413                                         !
 --------------------------------------------------------------------------------
 Symmetry turned off by external request.
 Stoichiometry    C26H39N8O8(1+)
 Framework group  C1[X(C26H39N8O8)]
 Deg. of freedom   237
 Full point group                 C1      NOp   1
                          Input orientation:                          
 ---------------------------------------------------------------------
 Center     Atomic      Atomic             Coordinates (Angstroms)
 Number     Number       Type             X           Y           Z
 ---------------------------------------------------------------------
      1          7           0       12.680080   31.484411   11.808015
      2          6           0       12.897227   32.849649   12.395689
      3          6           0       12.950301   32.867393   13.940631
      4          8           0       14.028814   33.086088   14.474173
      5          6           0       11.916696   33.871396   11.796215
      6          6           0       12.208192   34.281712   10.338338
      7          6           0       11.764171   33.301066    9.247261
      8          8           0       11.325261   33.760172    8.184237
      9          8           0       11.860336   32.027408    9.487883
     10          1           0       11.912586   30.977117   12.258887
     11          1           0       13.912437   33.130197   12.107541
     12          1           0       10.884537   33.511878   11.888752
     13          1           0       11.980379   34.766129   12.423886
     14          1           0       13.285728   34.458049   10.212735
     15          1           0       11.719073   35.234507   10.121672
     16          1           0       12.398087   31.638439   10.713480
     17          1           0       13.501777   30.888289   11.931996
     18          7           0       11.791364   32.806986   14.667093
     19          6           0       10.542525   32.097884   14.437465
     20          6           0        9.444364   32.885021   15.183115
     21          8           0        9.739001   33.483171   16.207510
     22          6           0       10.617091   30.656347   15.035274
     23          6           0       11.573849   29.771745   14.302974
     24          6           0       12.931875   29.668237   14.492733
     25          6           0       11.248037   28.927933   13.174379
     26          6           0       12.463665   28.342016   12.722723
     27          6           0       10.048370   28.608495   12.510427
     28          7           0       13.478437   28.840735   13.524987
     29          6           0       12.511081   27.457518   11.639903
     30          6           0       10.091433   27.724309   11.439625
     31          6           0       11.310139   27.157685   11.007276
     32          1           0       11.926401   33.046754   15.646875
     33          1           0       10.336256   32.045323   13.365735
     34          1           0        9.618557   30.207443   15.022910
     35          1           0       10.894773   30.764237   16.089260
     36          1           0       13.564279   30.151298   15.224888
     37          1           0       14.416757   28.467327   13.562136
     38          1           0        9.100624   29.027519   12.837655
     39          1           0       13.446474   27.013705   11.311741
     40          1           0        9.170559   27.448323   10.933708
     41          1           0       11.308582   26.466013   10.170517
     42          7           0        8.160905   32.857364   14.715507
     43          6           0        7.569737   32.177532   13.578619
     44          6           0        6.478281   33.104217   13.012058
     45          8           0        5.847203   33.789686   13.806862
     46          6           0        6.915406   30.834142   14.023893
     47          6           0        5.731945   30.964901   14.972235
     48          8           0        6.552003   30.148643   12.807999
     49          1           0        6.106317   29.317345   13.041006
     50          1           0        7.509701   33.430281   15.246329
     51          1           0        8.335223   31.937444   12.845433
     52          1           0        7.709896   30.260661   14.517120
     53          1           0        4.900425   31.499478   14.507153
     54          1           0        6.022372   31.501953   15.879524
     55          1           0        5.389446   29.968406   15.274691
     56          7           0        6.080890   33.049125   11.696001
     57          6           0        6.723555   32.810594   10.390464
     58          6           0        6.040377   31.668014    9.622763
     59          8           0        6.016883   31.676306    8.406194
     60          6           0        8.260260   32.602784   10.358280
     61          6           0        8.793529   31.158972   10.476168
     62          6           0        8.860397   30.362462    9.154348
     63          7           0        9.621073   31.081164    8.140506
     64          6           0        9.225194   31.504588    6.940264
     65          7           0        8.022628   31.171732    6.422057
     66          7           0       10.109327   32.214067    6.213775
     67          8           0        5.560548   30.649800   10.325136
     68          1           0        5.733675   30.762727   11.291519
     69          1           0        5.249690   33.627524   11.601204
     70          1           0        6.519546   33.705986    9.796942
     71          1           0        8.693475   33.242828   11.134462
     72          1           0        8.618442   33.022116    9.412996
     73          1           0        9.815723   31.208845   10.864897
     74          1           0        8.212525   30.563469   11.183388
     75          1           0        9.369706   29.414685    9.358942
     76          1           0        7.869170   30.110792    8.782420
     77          1           0       10.567090   31.357498    8.446222
     78          1           0        7.735575   31.657481    5.583032
     79          1           0        7.249340   30.988647    7.057690
     80          1           0       10.796931   32.752103    6.767255
     81          1           0        9.789195   32.650983    5.360764
 ---------------------------------------------------------------------
 Rotational constants (GHZ):           0.0930463           0.0780065           0.0631005
 Standard basis: 6-31G(d) (6D, 7F)
   708 basis functions,  1332 primitive gaussians,   708 cartesian basis functions
   157 alpha electrons      157 beta electrons
       nuclear repulsion energy      5775.7311128008 Hartrees.
 NAtoms=   81 NActive=   81 NUniq=   81 SFac= 1.00D+00 NAtFMM=   60 NAOKFM=T Big=T
 Integral buffers will be    131072 words long.
 Raffenetti 2 integral format.
 Two-electron integral symmetry is turned off.
 Nuclear repulsion after empirical dispersion term =     5775.5966920860 Hartrees.
 One-electron integrals computed using PRISM.
 NBasis=   708 RedAO= T EigKep=  3.53D-04  NBF=   708
 NBsUse=   708 1.00D-06 EigRej= -1.00D+00 NBFU=   708
 Initial guess from the checkpoint file:  "conf-962.chk"
 B after Tr=     0.000000    0.000000    0.000000
         Rot=    1.000000    0.000000    0.000000    0.000000 Ang=   0.00 deg.
 Requested convergence on RMS density matrix=1.00D-08 within 128 cycles.
 Requested convergence on MAX density matrix=1.00D-06.
 Requested convergence on             energy=1.00D-06.
 No special actions if energy rises.
 SCF Done:  E(RB3LYP) =  -2054.06909769     A.U. after    1 cycles
            NFock=  1  Conv=0.63D-08     -V/T= 2.0093

 **********************************************************************

            Population analysis using the SCF Density.

 **********************************************************************

 Alpha  occ. eigenvalues --  -19.29818 -19.29814 -19.24699 -19.23565 -19.23141
 Alpha  occ. eigenvalues --  -19.22149 -19.22031 -19.21055 -14.52777 -14.49693
 Alpha  occ. eigenvalues --  -14.48289 -14.47586 -14.47508 -14.47032 -14.46427
 Alpha  occ. eigenvalues --  -14.46337 -10.44096 -10.43225 -10.41282 -10.40084
 Alpha  occ. eigenvalues --  -10.39927 -10.39536 -10.37288 -10.36557 -10.36437
 Alpha  occ. eigenvalues --  -10.36430 -10.36010 -10.33998 -10.33489 -10.33380
 Alpha  occ. eigenvalues --  -10.31975 -10.31568 -10.31194 -10.30807 -10.30134
 Alpha  occ. eigenvalues --  -10.30054 -10.30023 -10.29983 -10.29516 -10.29428
 Alpha  occ. eigenvalues --  -10.29292 -10.28653  -1.21214  -1.16679  -1.15789
 Alpha  occ. eigenvalues --   -1.15370  -1.14695  -1.14005  -1.12838  -1.12406
 Alpha  occ. eigenvalues --   -1.09598  -1.08667  -1.05936  -1.04210  -1.03673
 Alpha  occ. eigenvalues --   -1.03192  -1.02339  -1.00342  -0.95206  -0.92151
 Alpha  occ. eigenvalues --   -0.91969  -0.91034  -0.89762  -0.87156  -0.86504
 Alpha  occ. eigenvalues --   -0.84795  -0.83436  -0.83272  -0.82717  -0.80108
 Alpha  occ. eigenvalues --   -0.78332  -0.75494  -0.74620  -0.74493  -0.73378
 Alpha  occ. eigenvalues --   -0.72768  -0.72567  -0.71816  -0.70459  -0.70346
 Alpha  occ. eigenvalues --   -0.69349  -0.69042  -0.68110  -0.67463  -0.66492
 Alpha  occ. eigenvalues --   -0.66173  -0.65946  -0.65097  -0.64026  -0.63751
 Alpha  occ. eigenvalues --   -0.62387  -0.61976  -0.61196  -0.60528  -0.60402
 Alpha  occ. eigenvalues --   -0.59867  -0.59691  -0.59384  -0.59013  -0.58678
 Alpha  occ. eigenvalues --   -0.58087  -0.57575  -0.57346  -0.57023  -0.56597
 Alpha  occ. eigenvalues --   -0.55748  -0.55509  -0.55162  -0.54834  -0.54327
 Alpha  occ. eigenvalues --   -0.54136  -0.54004  -0.53465  -0.53339  -0.53150
 Alpha  occ. eigenvalues --   -0.52864  -0.52190  -0.51981  -0.51548  -0.51374
 Alpha  occ. eigenvalues --   -0.51005  -0.50713  -0.50040  -0.49906  -0.49486
 Alpha  occ. eigenvalues --   -0.49120  -0.48820  -0.48769  -0.48607  -0.48097
 Alpha  occ. eigenvalues --   -0.47503  -0.47412  -0.46923  -0.46545  -0.46403
 Alpha  occ. eigenvalues --   -0.45981  -0.45791  -0.45294  -0.44615  -0.44506
 Alpha  occ. eigenvalues --   -0.42284  -0.41747  -0.39955  -0.39260  -0.38936
 Alpha  occ. eigenvalues --   -0.38158  -0.38011  -0.37659  -0.36986  -0.36916
 Alpha  occ. eigenvalues --   -0.36482  -0.36090  -0.35775  -0.35140  -0.34547
 Alpha  occ. eigenvalues --   -0.33852  -0.31847
 Alpha virt. eigenvalues --   -0.12673  -0.11363  -0.10921  -0.10225  -0.09540
 Alpha virt. eigenvalues --   -0.08744  -0.08606  -0.07338  -0.06844  -0.06251
 Alpha virt. eigenvalues --   -0.05269  -0.04415  -0.03846  -0.03103  -0.02228
 Alpha virt. eigenvalues --   -0.01890  -0.00699  -0.00292   0.00108   0.00734
 Alpha virt. eigenvalues --    0.01088   0.01609   0.02125   0.02284   0.02483
 Alpha virt. eigenvalues --    0.02704   0.03185   0.03337   0.03671   0.04233
 Alpha virt. eigenvalues --    0.04331   0.04861   0.05386   0.05416   0.05654
 Alpha virt. eigenvalues --    0.06057   0.06320   0.06576   0.07150   0.07299
 Alpha virt. eigenvalues --    0.07599   0.07710   0.07946   0.08096   0.08462
 Alpha virt. eigenvalues --    0.08941   0.09123   0.09922   0.09982   0.10441
 Alpha virt. eigenvalues --    0.10847   0.11190   0.11451   0.11845   0.11959
 Alpha virt. eigenvalues --    0.12479   0.12944   0.13459   0.13990   0.14157
 Alpha virt. eigenvalues --    0.14613   0.15165   0.15404   0.15720   0.16053
 Alpha virt. eigenvalues --    0.16571   0.16833   0.17029   0.17697   0.17921
 Alpha virt. eigenvalues --    0.19810   0.20078   0.20898   0.21433   0.23083
 Alpha virt. eigenvalues --    0.23506   0.23783   0.24108   0.25827   0.26465
 Alpha virt. eigenvalues --    0.26942   0.27728   0.29198   0.29466   0.29862
 Alpha virt. eigenvalues --    0.30709   0.31135   0.32109   0.32976   0.33190
 Alpha virt. eigenvalues --    0.34655   0.37110   0.37262   0.37653   0.38723
 Alpha virt. eigenvalues --    0.39465   0.39706   0.40199   0.41018   0.41291
 Alpha virt. eigenvalues --    0.42106   0.42309   0.42625   0.43004   0.43746
 Alpha virt. eigenvalues --    0.44033   0.44230   0.45140   0.45236   0.45430
 Alpha virt. eigenvalues --    0.45778   0.46192   0.46456   0.46893   0.47423
 Alpha virt. eigenvalues --    0.47835   0.48675   0.48836   0.48983   0.49272
 Alpha virt. eigenvalues --    0.49571   0.49750   0.50044   0.50644   0.50942
 Alpha virt. eigenvalues --    0.51182   0.51694   0.52000   0.52428   0.52899
 Alpha virt. eigenvalues --    0.53057   0.54091   0.54221   0.54359   0.54701
 Alpha virt. eigenvalues --    0.55667   0.55818   0.55906   0.55991   0.56795
 Alpha virt. eigenvalues --    0.57179   0.57384   0.57792   0.58057   0.58489
 Alpha virt. eigenvalues --    0.59092   0.59162   0.59607   0.60094   0.60861
 Alpha virt. eigenvalues --    0.61284   0.62588   0.62898   0.63801   0.64004
 Alpha virt. eigenvalues --    0.65299   0.65668   0.66105   0.66249   0.66749
 Alpha virt. eigenvalues --    0.67195   0.68204   0.68898   0.69465   0.69958
 Alpha virt. eigenvalues --    0.70487   0.71065   0.71348   0.71676   0.72011
 Alpha virt. eigenvalues --    0.72380   0.72793   0.73217   0.73577   0.74373
 Alpha virt. eigenvalues --    0.74644   0.74929   0.75042   0.75354   0.75704
 Alpha virt. eigenvalues --    0.75775   0.76122   0.76621   0.77190   0.77254
 Alpha virt. eigenvalues --    0.77551   0.77848   0.78148   0.78395   0.78879
 Alpha virt. eigenvalues --    0.78886   0.79761   0.79964   0.80557   0.80813
 Alpha virt. eigenvalues --    0.81334   0.81516   0.82435   0.82737   0.83171
 Alpha virt. eigenvalues --    0.83624   0.84078   0.84608   0.84813   0.85543
 Alpha virt. eigenvalues --    0.85655   0.85875   0.86653   0.86916   0.87401
 Alpha virt. eigenvalues --    0.87599   0.87951   0.88850   0.89300   0.89873
 Alpha virt. eigenvalues --    0.90393   0.90785   0.91806   0.92356   0.93450
 Alpha virt. eigenvalues --    0.93921   0.94083   0.94843   0.95595   0.95717
 Alpha virt. eigenvalues --    0.96485   0.96973   0.97511   0.97706   0.97858
 Alpha virt. eigenvalues --    0.99098   0.99671   1.00363   1.00987   1.01475
 Alpha virt. eigenvalues --    1.01559   1.02273   1.02896   1.03653   1.03711
 Alpha virt. eigenvalues --    1.03959   1.04776   1.05528   1.06139   1.06247
 Alpha virt. eigenvalues --    1.07327   1.07808   1.08228   1.08852   1.09340
 Alpha virt. eigenvalues --    1.10238   1.10881   1.11802   1.12972   1.13519
 Alpha virt. eigenvalues --    1.14010   1.14980   1.16178   1.16980   1.17199
 Alpha virt. eigenvalues --    1.18856   1.19516   1.19765   1.20545   1.21211
 Alpha virt. eigenvalues --    1.21794   1.22062   1.22631   1.23268   1.24069
 Alpha virt. eigenvalues --    1.24877   1.25315   1.26601   1.27134   1.27665
 Alpha virt. eigenvalues --    1.28231   1.29110   1.30240   1.30889   1.31507
 Alpha virt. eigenvalues --    1.31899   1.32861   1.33400   1.34010   1.34806
 Alpha virt. eigenvalues --    1.35490   1.35913   1.36418   1.37784   1.37829
 Alpha virt. eigenvalues --    1.38584   1.38713   1.39438   1.39982   1.40329
 Alpha virt. eigenvalues --    1.41099   1.41840   1.42898   1.42953   1.43946
 Alpha virt. eigenvalues --    1.44313   1.45365   1.46761   1.47776   1.48664
 Alpha virt. eigenvalues --    1.48775   1.50133   1.50929   1.51469   1.52381
 Alpha virt. eigenvalues --    1.52778   1.53948   1.55217   1.55840   1.57599
 Alpha virt. eigenvalues --    1.57905   1.58075   1.58565   1.59639   1.60400
 Alpha virt. eigenvalues --    1.61504   1.62327   1.63556   1.64097   1.64537
 Alpha virt. eigenvalues --    1.65161   1.66090   1.66385   1.66471   1.66998
 Alpha virt. eigenvalues --    1.67643   1.68041   1.68301   1.68973   1.69444
 Alpha virt. eigenvalues --    1.69804   1.69838   1.70644   1.71193   1.71649
 Alpha virt. eigenvalues --    1.71824   1.73168   1.73673   1.73783   1.74003
 Alpha virt. eigenvalues --    1.74806   1.74977   1.75530   1.76113   1.76411
 Alpha virt. eigenvalues --    1.76904   1.77383   1.77981   1.78917   1.79388
 Alpha virt. eigenvalues --    1.79990   1.81055   1.81282   1.81549   1.82287
 Alpha virt. eigenvalues --    1.82727   1.83157   1.83687   1.83901   1.84158
 Alpha virt. eigenvalues --    1.84765   1.85124   1.85405   1.85928   1.86434
 Alpha virt. eigenvalues --    1.87157   1.87349   1.88189   1.88693   1.89646
 Alpha virt. eigenvalues --    1.90116   1.90757   1.91735   1.92100   1.92785
 Alpha virt. eigenvalues --    1.93036   1.93241   1.94211   1.95407   1.95724
 Alpha virt. eigenvalues --    1.96222   1.96618   1.97455   1.97646   1.98672
 Alpha virt. eigenvalues --    1.99113   1.99764   2.00171   2.00762   2.01973
 Alpha virt. eigenvalues --    2.02276   2.03144   2.03498   2.04261   2.04920
 Alpha virt. eigenvalues --    2.05691   2.05964   2.06692   2.07154   2.07687
 Alpha virt. eigenvalues --    2.09448   2.09736   2.11709   2.13072   2.13954
 Alpha virt. eigenvalues --    2.14649   2.15119   2.15638   2.16179   2.16608
 Alpha virt. eigenvalues --    2.17076   2.17896   2.18930   2.19798   2.20281
 Alpha virt. eigenvalues --    2.20606   2.23520   2.24126   2.24339   2.25173
 Alpha virt. eigenvalues --    2.26426   2.27051   2.27135   2.27972   2.28515
 Alpha virt. eigenvalues --    2.29778   2.30340   2.30708   2.31016   2.31974
 Alpha virt. eigenvalues --    2.32713   2.33608   2.35101   2.35694   2.36615
 Alpha virt. eigenvalues --    2.37045   2.37601   2.38418   2.39049   2.39777
 Alpha virt. eigenvalues --    2.40807   2.41551   2.41720   2.43234   2.43674
 Alpha virt. eigenvalues --    2.44598   2.45000   2.45999   2.46325   2.47892
 Alpha virt. eigenvalues --    2.49071   2.49526   2.50084   2.51478   2.51894
 Alpha virt. eigenvalues --    2.52254   2.53222   2.53659   2.54160   2.55696
 Alpha virt. eigenvalues --    2.56436   2.56944   2.57572   2.58150   2.58662
 Alpha virt. eigenvalues --    2.58810   2.59244   2.60153   2.61892   2.62722
 Alpha virt. eigenvalues --    2.63613   2.64679   2.65154   2.65983   2.67142
 Alpha virt. eigenvalues --    2.69357   2.69965   2.70602   2.73286   2.73565
 Alpha virt. eigenvalues --    2.76432   2.78700   2.80687   2.82867   2.83282
 Alpha virt. eigenvalues --    2.85358   2.87109   2.87580   2.88195   2.89855
 Alpha virt. eigenvalues --    2.91412   2.91764   2.92618   2.93605   2.96161
 Alpha virt. eigenvalues --    2.98174   3.00077   3.01714   3.02011   3.02652
 Alpha virt. eigenvalues --    3.03099   3.11256   3.13841   3.32943   3.72225
 Alpha virt. eigenvalues --    3.74975   3.80941   3.82475   3.84206   3.87129
 Alpha virt. eigenvalues --    3.91641   3.94443   3.94526   3.95661   3.99677
 Alpha virt. eigenvalues --    4.01486   4.01993   4.03071   4.03792   4.05844
 Alpha virt. eigenvalues --    4.06877   4.08729   4.11933   4.14319   4.16480
 Alpha virt. eigenvalues --    4.18955   4.21541   4.22307   4.24999   4.25213
 Alpha virt. eigenvalues --    4.25891   4.29204   4.31202   4.32070   4.34488
 Alpha virt. eigenvalues --    4.35368   4.39811   4.46221   4.47217   4.49267
 Alpha virt. eigenvalues --    4.52837   4.55976   4.59182   4.60858   4.67947
 Alpha virt. eigenvalues --    4.70628
          Condensed to atoms (all electrons):
 Mulliken charges:
               1
     1  N   -0.823992
     2  C   -0.089588
     3  C    0.579708
     4  O   -0.477648
     5  C   -0.312310
     6  C   -0.371973
     7  C    0.633695
     8  O   -0.541571
     9  O   -0.661053
    10  H    0.407804
    11  H    0.212419
    12  H    0.152868
    13  H    0.201617
    14  H    0.186556
    15  H    0.192608
    16  H    0.465866
    17  H    0.392815
    18  N   -0.573411
    19  C   -0.088229
    20  C    0.629533
    21  O   -0.489320
    22  C   -0.365619
    23  C    0.042183
    24  C   -0.009360
    25  C    0.030356
    26  C    0.292015
    27  C   -0.216861
    28  N   -0.687466
    29  C   -0.161584
    30  C   -0.150671
    31  C   -0.149616
    32  H    0.366305
    33  H    0.128529
    34  H    0.168275
    35  H    0.191819
    36  H    0.200619
    37  H    0.355013
    38  H    0.136491
    39  H    0.156332
    40  H    0.143775
    41  H    0.157797
    42  N   -0.617589
    43  C   -0.072224
    44  C    0.618323
    45  O   -0.489539
    46  C    0.125948
    47  C   -0.481111
    48  O   -0.652562
    49  H    0.428110
    50  H    0.373337
    51  H    0.165098
    52  H    0.156268
    53  H    0.192201
    54  H    0.186570
    55  H    0.162064
    56  N   -0.645424
    57  C   -0.066194
    58  C    0.624585
    59  O   -0.496907
    60  C   -0.324740
    61  C   -0.323002
    62  C   -0.177362
    63  N   -0.613962
    64  C    0.739234
    65  N   -0.756334
    66  N   -0.761917
    67  O   -0.578205
    68  H    0.461638
    69  H    0.358593
    70  H    0.203711
    71  H    0.168904
    72  H    0.197789
    73  H    0.142539
    74  H    0.186960
    75  H    0.183963
    76  H    0.186738
    77  H    0.415170
    78  H    0.357848
    79  H    0.409373
    80  H    0.407145
    81  H    0.350235
 Sum of Mulliken charges =   1.00000
 Mulliken charges with hydrogens summed into heavy atoms:
               1
     1  N    0.442493
     2  C    0.122831
     3  C    0.579708
     4  O   -0.477648
     5  C    0.042174
     6  C    0.007191
     7  C    0.633695
     8  O   -0.541571
     9  O   -0.661053
    18  N   -0.207106
    19  C    0.040300
    20  C    0.629533
    21  O   -0.489320
    22  C   -0.005525
    23  C    0.042183
    24  C    0.191260
    25  C    0.030356
    26  C    0.292015
    27  C   -0.080370
    28  N   -0.332453
    29  C   -0.005252
    30  C   -0.006896
    31  C    0.008181
    42  N   -0.244252
    43  C    0.092874
    44  C    0.618323
    45  O   -0.489539
    46  C    0.282216
    47  C    0.059724
    48  O   -0.224452
    56  N   -0.286831
    57  C    0.137517
    58  C    0.624585
    59  O   -0.496907
    60  C    0.041953
    61  C    0.006497
    62  C    0.193339
    63  N   -0.198793
    64  C    0.739234
    65  N    0.010887
    66  N   -0.004537
    67  O   -0.116567
 Electronic spatial extent (au):  <R**2>=        1391301.4567
 Charge=              1.0000 electrons
 Dipole moment (field-independent basis, Debye):
    X=             46.9541    Y=            146.3117    Z=             51.6709  Tot=            162.1162
 Quadrupole moment (field-independent basis, Debye-Ang):
   XX=            259.3299   YY=           4224.1097   ZZ=            347.2940
   XY=           1416.1688   XZ=            510.0622   YZ=           1544.5597
 Traceless Quadrupole moment (field-independent basis, Debye-Ang):
   XX=          -1350.9146   YY=           2613.8652   ZZ=          -1262.9506
   XY=           1416.1688   XZ=            510.0622   YZ=           1544.5597
 Octapole moment (field-independent basis, Debye-Ang**2):
  XXX=          -1287.8475  YYY=         113773.4768  ZZZ=          -1745.0295  XYY=          40450.0834
  XXY=           7322.9061  XXZ=           2702.0632  XZZ=           3431.8825  YZZ=           9665.6951
  YYZ=          43308.7510  XYZ=          15104.9196
 Hexadecapole moment (field-independent basis, Debye-Ang**3):
 XXXX=         -76314.8150 YYYY=        2745424.6499 ZZZZ=        -133962.8064 XXXY=         -52016.0561
 XXXZ=         -18536.1616 YYYX=        1074906.2171 YYYZ=        1110071.3778 ZZZX=         -17976.9728
 ZZZY=         -74080.3852 XXYY=         181055.0566 XXZZ=           3434.2151 YYZZ=         228958.6377
 XXYZ=          72776.4249 YYXZ=         419210.9940 ZZXY=          94117.7153
 N-N= 5.775596692086D+03 E-N=-1.630462661917D+04  KE= 2.035198384640D+03
 Unable to Open any file for archive entry.
 1\1\GINC-VIM-002\SP\RB3LYP\6-31G(d)\C26H39N8O8(1+)\KENGMITH\27-May-202
 2\0\\# B3LYP/6-31G* empiricaldispersion=gd3 guess=read geom=check nosy
 mm integral(ultrafinegrid)\\Candidate Structure: Conf:962 Charge calc 
 in gas phase\\1,1\N,0,12.6800798174,31.4844113975,11.8080154374\C,0,12
 .8972271003,32.8496491843,12.3956886924\C,0,12.9503008955,32.867393397
 1,13.9406311128\O,0,14.0288143069,33.0860877937,14.4741729507\C,0,11.9
 166964702,33.8713961514,11.7962154402\C,0,12.2081922975,34.2817122037,
 10.3383384769\C,0,11.7641708615,33.3010657399,9.2472609263\O,0,11.3252
 609977,33.7601722657,8.1842367873\O,0,11.8603357064,32.0274079357,9.48
 78825243\H,0,11.9125856201,30.9771169099,12.2588868601\H,0,13.91243694
 27,33.1301970343,12.1075412702\H,0,10.8845370077,33.5118782723,11.8887
 515936\H,0,11.980379084,34.7661294964,12.4238863625\H,0,13.2857283408,
 34.4580485818,10.2127350674\H,0,11.7190726957,35.2345073225,10.1216722
 933\H,0,12.3980874123,31.6384386923,10.7134795112\H,0,13.5017770676,30
 .8882886756,11.9319956788\N,0,11.7913638093,32.8069864432,14.667092562
 8\C,0,10.5425248443,32.0978835857,14.4374649637\C,0,9.4443640569,32.88
 50214925,15.1831147752\O,0,9.7390005923,33.4831712637,16.2075102902\C,
 0,10.617091317,30.6563474196,15.0352739328\C,0,11.573849197,29.7717449
 35,14.3029737186\C,0,12.9318746835,29.668236832,14.4927334266\C,0,11.2
 480374779,28.927933022,13.1743792211\C,0,12.4636653213,28.3420161695,1
 2.7227228046\C,0,10.048369909,28.6084946535,12.5104267452\N,0,13.47843
 67293,28.8407351343,13.5249865232\C,0,12.5110805811,27.4575184393,11.6
 399033981\C,0,10.0914326953,27.7243088546,11.4396251097\C,0,11.3101386
 323,27.1576853349,11.0072760006\H,0,11.9264006079,33.046753892,15.6468
 749778\H,0,10.3362556709,32.0453225723,13.365735002\H,0,9.6185567062,3
 0.2074434037,15.0229095903\H,0,10.8947734371,30.7642366406,16.08926023
 89\H,0,13.5642786708,30.1512978613,15.2248882411\H,0,14.416757333,28.4
 673268147,13.5621363014\H,0,9.1006238401,29.0275189154,12.8376546619\H
 ,0,13.446473815,27.013705228,11.3117410611\H,0,9.1705587724,27.4483226
 288,10.9337081073\H,0,11.3085816551,26.4660128596,10.1705172843\N,0,8.
 1609052977,32.8573643956,14.7155070383\C,0,7.5697371672,32.1775322731,
 13.5786186859\C,0,6.478281089,33.1042174751,13.0120579078\O,0,5.847202
 9049,33.7896860675,13.8068616127\C,0,6.9154063365,30.8341418257,14.023
 8925504\C,0,5.7319450065,30.964901341,14.9722353012\O,0,6.5520025742,3
 0.1486425847,12.8079994571\H,0,6.106316783,29.3173453631,13.0410063242
 \H,0,7.5097012119,33.4302805161,15.2463290684\H,0,8.3352231096,31.9374
 436282,12.8454330873\H,0,7.7098960329,30.2606606809,14.5171204398\H,0,
 4.9004251307,31.4994778388,14.507153263\H,0,6.0223722686,31.5019527275
 ,15.879523855\H,0,5.3894463694,29.9684058502,15.2746910378\N,0,6.08089
 02691,33.0491248278,11.6960014346\C,0,6.7235548991,32.8105939225,10.39
 04643746\C,0,6.0403771781,31.6680143501,9.6227634947\O,0,6.0168832119,
 31.6763063665,8.4061940171\C,0,8.2602595378,32.6027843421,10.358280356
 7\C,0,8.7935285671,31.1589720682,10.4761678568\C,0,8.8603971791,30.362
 4616206,9.1543477783\N,0,9.6210725715,31.0811644107,8.1405059824\C,0,9
 .2251936452,31.50458846,6.9402635212\N,0,8.0226284615,31.1717321756,6.
 4220566941\N,0,10.1093270374,32.2140667384,6.2137746422\O,0,5.56054790
 36,30.6497995745,10.3251357243\H,0,5.733675376,30.7627272124,11.291518
 7228\H,0,5.2496901827,33.627524143,11.601203906\H,0,6.5195457027,33.70
 59855607,9.7969419465\H,0,8.6934751058,33.2428279315,11.1344624306\H,0
 ,8.6184419961,33.0221163155,9.4129962051\H,0,9.8157228597,31.208845395
 5,10.8648966951\H,0,8.2125252145,30.5634687556,11.1833879553\H,0,9.369
 7059339,29.4146854772,9.358941527\H,0,7.8691695001,30.1107921453,8.782
 4204658\H,0,10.5670900183,31.3574983856,8.4462220476\H,0,7.735575274,3
 1.657480907,5.5830316345\H,0,7.2493401727,30.9886468908,7.0576904764\H
 ,0,10.7969313351,32.7521033241,6.7672545453\H,0,9.7891951154,32.650982
 7506,5.3607637121\\Version=ES64L-G16RevC.01\HF=-2054.0690977\RMSD=6.27
 4e-09\Dipole=0.1318481,-1.8979726,-1.9329917\Quadrupole=-1004.3718992,
 1943.3446825,-938.9727832,1052.8867801,379.2187654,1148.3422442\PG=C01
  [X(C26H39N8O8)]\\@
 The archive entry for this job was punched.


 The lyf so short, the craft so long to lerne.
                             -- Chaucer
 Job cpu time:       0 days  0 hours  3 minutes 32.1 seconds.
 Elapsed time:       0 days  0 hours  0 minutes 54.2 seconds.
 File lengths (MBytes):  RWF=    376 Int=      0 D2E=      0 Chk=     56 Scr=     16
 Normal termination of Gaussian 16 at Fri May 27 05:10:00 2022.
