 Entering Gaussian System, Link 0=/opt/software/Gaussian/g16-AVX2-C.01/g16/g16
 Input=charge-conf-306.com
 Output=charge-conf-306.log
 Initial command:
 /opt/software/Gaussian/g16-AVX2-C.01/g16/l1.exe "/mnt/gs18/scratch/users/kengmith/Gau-21950.inp" -scrdir="/mnt/gs18/scratch/users/kengmith/"
 Entering Link 1 = /opt/software/Gaussian/g16-AVX2-C.01/g16/l1.exe PID=     21973.
  
 Copyright (c) 1988-2019, Gaussian, Inc.  All Rights Reserved.
  
 This is part of the Gaussian(R) 16 program.  It is based on
 the Gaussian(R) 09 system (copyright 2009, Gaussian, Inc.),
 the Gaussian(R) 03 system (copyright 2003, Gaussian, Inc.),
 the Gaussian(R) 98 system (copyright 1998, Gaussian, Inc.),
 the Gaussian(R) 94 system (copyright 1995, Gaussian, Inc.),
 the Gaussian 92(TM) system (copyright 1992, Gaussian, Inc.),
 the Gaussian 90(TM) system (copyright 1990, Gaussian, Inc.),
 the Gaussian 88(TM) system (copyright 1988, Gaussian, Inc.),
 the Gaussian 86(TM) system (copyright 1986, Carnegie Mellon
 University), and the Gaussian 82(TM) system (copyright 1983,
 Carnegie Mellon University). Gaussian is a federally registered
 trademark of Gaussian, Inc.
  
 This software contains proprietary and confidential information,
 including trade secrets, belonging to Gaussian, Inc.
  
 This software is provided under written license and may be
 used, copied, transmitted, or stored only in accord with that
 written license.
  
 The following legend is applicable only to US Government
 contracts under FAR:
  
                    RESTRICTED RIGHTS LEGEND
  
 Use, reproduction and disclosure by the US Government is
 subject to restrictions as set forth in subparagraphs (a)
 and (c) of the Commercial Computer Software - Restricted
 Rights clause in FAR 52.227-19.
  
 Gaussian, Inc.
 340 Quinnipiac St., Bldg. 40, Wallingford CT 06492
  
  
 ---------------------------------------------------------------
 Warning -- This program may not be used in any manner that
 competes with the business of Gaussian, Inc. or will provide
 assistance to any competitor of Gaussian, Inc.  The licensee
 of this program is prohibited from giving any competitor of
 Gaussian, Inc. access to this program.  By using this program,
 the user acknowledges that Gaussian, Inc. is engaged in the
 business of creating and licensing software in the field of
 computational chemistry and represents and warrants to the
 licensee that it is not a competitor of Gaussian, Inc. and that
 it will not use this program in any manner prohibited above.
 ---------------------------------------------------------------
  

 Cite this work as:
 Gaussian 16, Revision C.01,
 M. J. Frisch, G. W. Trucks, H. B. Schlegel, G. E. Scuseria, 
 M. A. Robb, J. R. Cheeseman, G. Scalmani, V. Barone, 
 G. A. Petersson, H. Nakatsuji, X. Li, M. Caricato, A. V. Marenich, 
 J. Bloino, B. G. Janesko, R. Gomperts, B. Mennucci, H. P. Hratchian, 
 J. V. Ortiz, A. F. Izmaylov, J. L. Sonnenberg, D. Williams-Young, 
 F. Ding, F. Lipparini, F. Egidi, J. Goings, B. Peng, A. Petrone, 
 T. Henderson, D. Ranasinghe, V. G. Zakrzewski, J. Gao, N. Rega, 
 G. Zheng, W. Liang, M. Hada, M. Ehara, K. Toyota, R. Fukuda, 
 J. Hasegawa, M. Ishida, T. Nakajima, Y. Honda, O. Kitao, H. Nakai, 
 T. Vreven, K. Throssell, J. A. Montgomery, Jr., J. E. Peralta, 
 F. Ogliaro, M. J. Bearpark, J. J. Heyd, E. N. Brothers, K. N. Kudin, 
 V. N. Staroverov, T. A. Keith, R. Kobayashi, J. Normand, 
 K. Raghavachari, A. P. Rendell, J. C. Burant, S. S. Iyengar, 
 J. Tomasi, M. Cossi, J. M. Millam, M. Klene, C. Adamo, R. Cammi, 
 J. W. Ochterski, R. L. Martin, K. Morokuma, O. Farkas, 
 J. B. Foresman, and D. J. Fox, Gaussian, Inc., Wallingford CT, 2019.
 
 ******************************************
 Gaussian 16:  ES64L-G16RevC.01  3-Jul-2019
                27-May-2022 
 ******************************************
 %mem=8gb
 %nproc=4
 Will use up to    4 processors via shared memory.
 %chk=conf-306.chk
 ----------------------------------------------------------------------
 # B3LYP/6-31G* empiricaldispersion=gd3 guess=read geom=check nosymm in
 tegral(ultrafinegrid)
 ----------------------------------------------------------------------
 1/29=2,38=1,172=1/1;
 2/12=2,15=1,40=1/2;
 3/5=1,6=6,7=1,11=2,14=-4,25=1,30=1,74=-5,75=-5,116=-2,124=31/1,2,3;
 4/5=1/1;
 5/5=2,38=6/2;
 6/7=2,8=2,9=2,10=2,28=1/1;
 99/5=1,9=1/99;
 ------------------------------------------------------
 Candidate Structure: Conf:306 Charge calc in gas phase
 ------------------------------------------------------
 Structure from the checkpoint file:  "conf-306.chk"
 Charge =  1 Multiplicity = 1
 Redundant internal coordinates found in file.  (old form).
 N,0,11.2073524824,29.6264820294,14.0410196838
 C,0,12.418285012,29.1731728079,13.2490762606
 C,0,13.6129538075,30.1134123259,13.5128446028
 O,0,14.6254927948,29.6503756842,14.003477011
 C,0,12.0864367164,28.9403338722,11.7662974898
 C,0,11.1619377186,27.7499332663,11.4444317506
 C,0,9.6675173691,27.9673272385,11.6919424323
 O,0,8.8599564601,27.6169959357,10.8138172978
 O,0,9.2944583576,28.4997269864,12.8174333166
 H,0,11.3235878441,29.398529551,15.0312351936
 H,0,12.7183735215,28.2220400171,13.6932031274
 H,0,11.6734816869,29.8355380262,11.3054644013
 H,0,13.0466736095,28.7742742819,11.2664665862
 H,0,11.4694395032,26.8636688465,12.0171232474
 H,0,11.2733024158,27.5053055571,10.3863191186
 H,0,11.0717878299,30.6433578029,13.9879538801
 H,0,10.3055805627,29.0964977254,13.59967462
 N,0,13.4575516691,31.4689425827,13.2925274107
 C,0,12.6260006461,32.1043402958,12.2723217871
 C,0,13.3102690419,31.9767791885,10.8870728109
 O,0,14.4844651721,31.6532428491,10.8136103863
 C,0,12.3434125536,33.571926683,12.6773696171
 C,0,11.2881845036,33.6819990039,13.7425612028
 C,0,11.3489491027,33.2152581181,15.0375207873
 C,0,9.990581061,34.2973751356,13.5913905318
 C,0,9.3140893488,34.1673318571,14.8353267654
 C,0,9.3329913615,34.9357138983,12.5213398393
 N,0,10.1570283828,33.4858905616,15.6900173003
 C,0,8.0204498829,34.6635663698,15.0417878703
 C,0,8.0438429416,35.4204633522,12.7197178347
 C,0,7.3967710097,35.2913474874,13.9710227706
 H,0,14.3644787666,31.9225876905,13.3849166771
 H,0,11.6635644408,31.5931341801,12.2363423983
 H,0,12.0278673774,34.1340344148,11.7934708745
 H,0,13.2895282694,34.0285264945,12.9938253008
 H,0,12.1703591602,32.7434514227,15.5585740186
 H,0,10.0102219085,33.3830818543,16.6833609027
 H,0,9.80801576,35.0459716923,11.5511192127
 H,0,7.526736404,34.5681111469,16.0047972827
 H,0,7.5337348314,35.9311952951,11.9076150927
 H,0,6.3985581507,35.6993093081,14.0983800523
 N,0,12.553816952,32.2673144634,9.7819572623
 C,0,11.1014973669,32.3410533059,9.7174833873
 C,0,10.5467341776,30.9516660581,9.3274360035
 O,0,11.2754804759,30.1776779384,8.7147013178
 C,0,10.658405811,33.468871591,8.7436005662
 C,0,10.450695312,33.0145515479,7.3032867422
 O,0,9.4651586908,34.0110965038,9.3204466401
 H,0,8.8566454507,34.2840743452,8.6151226828
 H,0,13.004782312,31.965903471,8.9228896022
 H,0,10.7278064988,32.6482910861,10.6898238107
 H,0,11.4497423012,34.229653436,8.7863102902
 H,0,11.3374516496,32.4983219471,6.9221246088
 H,0,10.2599286527,33.8792902421,6.6584401541
 H,0,9.5977173398,32.3315963472,7.2353284559
 N,0,9.2773394434,30.5756467257,9.6667231688
 C,0,8.216339968,31.2089050397,10.4483385473
 C,0,7.4711530075,32.3070240106,9.6551694705
 O,0,7.2173892259,32.1741290553,8.4853814011
 C,0,8.6392110951,31.5169239109,11.8996590865
 C,0,7.5232305815,31.6579630658,12.9630372671
 C,0,6.2700934468,30.8016546606,12.7620197509
 N,0,6.5945611934,29.3824880801,12.5812734677
 C,0,5.7531218673,28.4965787128,12.037552383
 N,0,4.4339926556,28.7747916563,11.9723052934
 N,0,6.2351674936,27.356611264,11.5447170126
 O,0,6.9533702033,33.3400714836,10.3645595018
 H,0,7.5112595386,33.5678781307,11.1305218244
 H,0,9.0767743519,29.6331377465,9.3474689625
 H,0,7.4612327366,30.4189845993,10.5040762188
 H,0,9.2509697458,32.4181613748,11.9469978178
 H,0,9.2774097398,30.6815444816,12.1848766701
 H,0,7.965179086,31.4308621439,13.9405507852
 H,0,7.1803240257,32.6933884244,13.0394536149
 H,0,5.6152013271,30.9371765935,13.6335618254
 H,0,5.7205146492,31.1563924569,11.8810505782
 H,0,7.5658753877,29.0610914011,12.7322920503
 H,0,3.8042034612,28.1775955104,11.4571926056
 H,0,4.0201389207,29.4795923413,12.5636665622
 H,0,7.2413608239,27.3233959877,11.2754174096
 H,0,5.6143316652,26.6151825324,11.2544785032
 Recover connectivity data from disk.
                           ----------------------------
                           !    Current Parameters    !
                           ! (Angstroms and Degrees)  !
 --------------------------                            --------------------------
 ! Name  Definition              Value                                          !
 --------------------------------------------------------------------------------
 ! R1    R(1,2)                  1.5163                                         !
 ! R2    R(1,10)                 1.0227                                         !
 ! R3    R(1,16)                 1.0272                                         !
 ! R4    R(1,17)                 1.1353                                         !
 ! R5    R(2,3)                  1.543                                          !
 ! R6    R(2,5)                  1.5372                                         !
 ! R7    R(2,11)                 1.0918                                         !
 ! R8    R(3,4)                  1.2167                                         !
 ! R9    R(3,18)                 1.3821                                         !
 ! R10   R(5,6)                  1.5412                                         !
 ! R11   R(5,12)                 1.0883                                         !
 ! R12   R(5,13)                 1.0952                                         !
 ! R13   R(6,7)                  1.5303                                         !
 ! R14   R(6,14)                 1.0991                                         !
 ! R15   R(6,15)                 1.0917                                         !
 ! R16   R(7,8)                  1.2434                                         !
 ! R17   R(7,9)                  1.2998                                         !
 ! R18   R(18,19)                1.4615                                         !
 ! R19   R(18,32)                1.0183                                         !
 ! R20   R(19,20)                1.5503                                         !
 ! R21   R(19,22)                1.5485                                         !
 ! R22   R(19,33)                1.0904                                         !
 ! R23   R(20,21)                1.2202                                         !
 ! R24   R(20,42)                1.3704                                         !
 ! R25   R(22,23)                1.5034                                         !
 ! R26   R(22,34)                1.094                                          !
 ! R27   R(22,35)                1.0972                                         !
 ! R28   R(23,24)                1.3778                                         !
 ! R29   R(23,25)                1.4441                                         !
 ! R30   R(24,28)                1.3855                                         !
 ! R31   R(24,36)                1.0811                                         !
 ! R32   R(25,26)                1.4219                                         !
 ! R33   R(25,27)                1.4089                                         !
 ! R34   R(26,28)                1.3804                                         !
 ! R35   R(26,29)                1.4008                                         !
 ! R36   R(27,30)                1.3915                                         !
 ! R37   R(27,38)                1.0859                                         !
 ! R38   R(28,37)                1.0094                                         !
 ! R39   R(29,31)                1.3891                                         !
 ! R40   R(29,39)                1.0864                                         !
 ! R41   R(30,31)                1.4146                                         !
 ! R42   R(30,40)                1.0865                                         !
 ! R43   R(31,41)                1.0859                                         !
 ! R44   R(42,43)                1.4556                                         !
 ! R45   R(42,50)                1.016                                          !
 ! R46   R(43,44)                1.5461                                         !
 ! R47   R(43,46)                1.5546                                         !
 ! R48   R(43,51)                1.086                                          !
 ! R49   R(44,45)                1.227                                          !
 ! R50   R(44,56)                1.3667                                         !
 ! R51   R(46,47)                1.5245                                         !
 ! R52   R(46,48)                1.432                                          !
 ! R53   R(46,52)                1.0986                                         !
 ! R54   R(47,53)                1.0946                                         !
 ! R55   R(47,54)                1.0954                                         !
 ! R56   R(47,55)                1.0948                                         !
 ! R57   R(48,49)                0.9707                                         !
 ! R58   R(56,57)                1.4621                                         !
 ! R59   R(56,69)                1.0151                                         !
 ! R60   R(57,58)                1.5461                                         !
 ! R61   R(57,60)                1.5427                                         !
 ! R62   R(57,70)                1.0942                                         !
 ! R63   R(58,59)                1.2044                                         !
 ! R64   R(58,67)                1.3559                                         !
 ! R65   R(60,61)                1.5479                                         !
 ! R66   R(60,71)                1.0903                                         !
 ! R67   R(60,72)                1.0893                                         !
 ! R68   R(61,62)                1.531                                          !
 ! R69   R(61,73)                1.0966                                         !
 ! R70   R(61,74)                1.0934                                         !
 ! R71   R(62,63)                1.467                                          !
 ! R72   R(62,75)                1.0986                                         !
 ! R73   R(62,76)                1.0973                                         !
 ! R74   R(63,64)                1.3373                                         !
 ! R75   R(63,77)                1.0342                                         !
 ! R76   R(64,65)                1.3497                                         !
 ! R77   R(64,66)                1.3322                                         !
 ! R78   R(65,78)                1.0093                                         !
 ! R79   R(65,79)                1.0088                                         !
 ! R80   R(66,80)                1.0421                                         !
 ! R81   R(66,81)                1.0096                                         !
 ! R82   R(67,68)                0.9746                                         !
 ! A1    A(2,1,10)             110.3829                                         !
 ! A2    A(2,1,16)             111.985                                          !
 ! A3    A(2,1,17)             106.963                                          !
 ! A4    A(10,1,16)            106.5976                                         !
 ! A5    A(10,1,17)            111.261                                          !
 ! A6    A(16,1,17)            109.7071                                         !
 ! A7    A(1,2,3)              110.2966                                         !
 ! A8    A(1,2,5)              112.1288                                         !
 ! A9    A(1,2,11)             105.5157                                         !
 ! A10   A(3,2,5)              115.1087                                         !
 ! A11   A(3,2,11)             104.3894                                         !
 ! A12   A(5,2,11)             108.6493                                         !
 ! A13   A(2,3,4)              118.7744                                         !
 ! A14   A(2,3,18)             118.904                                          !
 ! A15   A(4,3,18)             122.0806                                         !
 ! A16   A(2,5,6)              116.6111                                         !
 ! A17   A(2,5,12)             111.4562                                         !
 ! A18   A(2,5,13)             105.8975                                         !
 ! A19   A(6,5,12)             108.6209                                         !
 ! A20   A(6,5,13)             108.2708                                         !
 ! A21   A(12,5,13)            105.3177                                         !
 ! A22   A(5,6,7)              116.2498                                         !
 ! A23   A(5,6,14)             110.2534                                         !
 ! A24   A(5,6,15)             108.3181                                         !
 ! A25   A(7,6,14)             107.6676                                         !
 ! A26   A(7,6,15)             106.7509                                         !
 ! A27   A(14,6,15)            107.2052                                         !
 ! A28   A(6,7,8)              118.6859                                         !
 ! A29   A(6,7,9)              118.5901                                         !
 ! A30   A(8,7,9)              122.721                                          !
 ! A31   A(3,18,19)            126.9882                                         !
 ! A32   A(3,18,32)            108.8046                                         !
 ! A33   A(19,18,32)           112.1113                                         !
 ! A34   A(18,19,20)           109.6839                                         !
 ! A35   A(18,19,22)           109.4682                                         !
 ! A36   A(18,19,33)           108.7484                                         !
 ! A37   A(20,19,22)           113.0957                                         !
 ! A38   A(20,19,33)           108.7555                                         !
 ! A39   A(22,19,33)           106.9716                                         !
 ! A40   A(19,20,21)           120.0242                                         !
 ! A41   A(19,20,42)           117.3545                                         !
 ! A42   A(21,20,42)           122.6069                                         !
 ! A43   A(19,22,23)           112.5083                                         !
 ! A44   A(19,22,34)           109.1638                                         !
 ! A45   A(19,22,35)           108.2103                                         !
 ! A46   A(23,22,34)           109.4135                                         !
 ! A47   A(23,22,35)           111.7423                                         !
 ! A48   A(34,22,35)           105.5415                                         !
 ! A49   A(22,23,24)           127.5995                                         !
 ! A50   A(22,23,25)           125.9961                                         !
 ! A51   A(24,23,25)           106.4017                                         !
 ! A52   A(23,24,28)           109.7857                                         !
 ! A53   A(23,24,36)           129.3684                                         !
 ! A54   A(28,24,36)           120.7894                                         !
 ! A55   A(23,25,26)           107.2744                                         !
 ! A56   A(23,25,27)           133.7887                                         !
 ! A57   A(26,25,27)           118.9345                                         !
 ! A58   A(25,26,28)           107.2348                                         !
 ! A59   A(25,26,29)           122.4034                                         !
 ! A60   A(28,26,29)           130.3571                                         !
 ! A61   A(25,27,30)           118.815                                          !
 ! A62   A(25,27,38)           121.3616                                         !
 ! A63   A(30,27,38)           119.8209                                         !
 ! A64   A(24,28,26)           109.279                                          !
 ! A65   A(24,28,37)           124.6583                                         !
 ! A66   A(26,28,37)           124.8063                                         !
 ! A67   A(26,29,31)           117.4582                                         !
 ! A68   A(26,29,39)           121.278                                          !
 ! A69   A(31,29,39)           121.2621                                         !
 ! A70   A(27,30,31)           121.2041                                         !
 ! A71   A(27,30,40)           119.4817                                         !
 ! A72   A(31,30,40)           119.2939                                         !
 ! A73   A(29,31,30)           121.1793                                         !
 ! A74   A(29,31,41)           119.4803                                         !
 ! A75   A(30,31,41)           119.3376                                         !
 ! A76   A(20,42,43)           126.6707                                         !
 ! A77   A(20,42,50)           111.9606                                         !
 ! A78   A(43,42,50)           114.8625                                         !
 ! A79   A(42,43,44)           108.8845                                         !
 ! A80   A(42,43,46)           110.4185                                         !
 ! A81   A(42,43,51)           108.5408                                         !
 ! A82   A(44,43,46)           113.0567                                         !
 ! A83   A(44,43,51)           110.8937                                         !
 ! A84   A(46,43,51)           104.9256                                         !
 ! A85   A(43,44,45)           118.6683                                         !
 ! A86   A(43,44,56)           121.1912                                         !
 ! A87   A(45,44,56)           120.1359                                         !
 ! A88   A(43,46,47)           114.4878                                         !
 ! A89   A(43,46,48)           105.0612                                         !
 ! A90   A(43,46,52)           105.8277                                         !
 ! A91   A(47,46,48)           112.3273                                         !
 ! A92   A(47,46,52)           109.9538                                         !
 ! A93   A(48,46,52)           108.8056                                         !
 ! A94   A(46,47,53)           111.0492                                         !
 ! A95   A(46,47,54)           110.1596                                         !
 ! A96   A(46,47,55)           110.5304                                         !
 ! A97   A(53,47,54)           107.9622                                         !
 ! A98   A(53,47,55)           108.3827                                         !
 ! A99   A(54,47,55)           108.6759                                         !
 ! A100  A(46,48,49)           109.6421                                         !
 ! A101  A(44,56,57)           133.4376                                         !
 ! A102  A(44,56,69)           111.1545                                         !
 ! A103  A(57,56,69)           115.2705                                         !
 ! A104  A(56,57,58)           112.5287                                         !
 ! A105  A(56,57,60)           112.9844                                         !
 ! A106  A(56,57,70)           102.4358                                         !
 ! A107  A(58,57,60)           118.2249                                         !
 ! A108  A(58,57,70)           101.9037                                         !
 ! A109  A(60,57,70)           106.5813                                         !
 ! A110  A(57,58,59)           121.4321                                         !
 ! A111  A(57,58,67)           117.1804                                         !
 ! A112  A(59,58,67)           120.782                                          !
 ! A113  A(57,60,61)           117.8293                                         !
 ! A114  A(57,60,71)           111.0809                                         !
 ! A115  A(57,60,72)           104.7027                                         !
 ! A116  A(61,60,71)           107.4205                                         !
 ! A117  A(61,60,72)           108.2041                                         !
 ! A118  A(71,60,72)           107.0871                                         !
 ! A119  A(60,61,62)           116.6757                                         !
 ! A120  A(60,61,73)           107.6352                                         !
 ! A121  A(60,61,74)           111.1245                                         !
 ! A122  A(62,61,73)           109.335                                          !
 ! A123  A(62,61,74)           106.3875                                         !
 ! A124  A(73,61,74)           105.083                                          !
 ! A125  A(61,62,63)           112.0998                                         !
 ! A126  A(61,62,75)           108.3472                                         !
 ! A127  A(61,62,76)           109.5453                                         !
 ! A128  A(63,62,75)           110.423                                          !
 ! A129  A(63,62,76)           108.9425                                         !
 ! A130  A(75,62,76)           107.3674                                         !
 ! A131  A(62,63,64)           123.4895                                         !
 ! A132  A(62,63,77)           119.3661                                         !
 ! A133  A(64,63,77)           116.3872                                         !
 ! A134  A(63,64,65)           119.8699                                         !
 ! A135  A(63,64,66)           119.3135                                         !
 ! A136  A(65,64,66)           120.8061                                         !
 ! A137  A(64,65,78)           120.8349                                         !
 ! A138  A(64,65,79)           121.1047                                         !
 ! A139  A(78,65,79)           117.1669                                         !
 ! A140  A(64,66,80)           118.179                                          !
 ! A141  A(64,66,81)           120.812                                          !
 ! A142  A(80,66,81)           119.736                                          !
 ! A143  A(58,67,68)           111.7572                                         !
 ! D1    D(10,1,2,3)           -74.2597                                         !
 ! D2    D(10,1,2,5)           156.038                                          !
 ! D3    D(10,1,2,11)           37.929                                          !
 ! D4    D(16,1,2,3)            44.3363                                         !
 ! D5    D(16,1,2,5)           -85.366                                          !
 ! D6    D(16,1,2,11)          156.525                                          !
 ! D7    D(17,1,2,3)           164.5576                                         !
 ! D8    D(17,1,2,5)            34.8553                                         !
 ! D9    D(17,1,2,11)          -83.2537                                         !
 ! D10   D(1,2,3,4)            119.1793                                         !
 ! D11   D(1,2,3,18)           -55.2998                                         !
 ! D12   D(5,2,3,4)           -112.7338                                         !
 ! D13   D(5,2,3,18)            72.7871                                         !
 ! D14   D(11,2,3,4)             6.2662                                         !
 ! D15   D(11,2,3,18)         -168.2128                                         !
 ! D16   D(1,2,5,6)            -68.1829                                         !
 ! D17   D(1,2,5,12)            57.3128                                         !
 ! D18   D(1,2,5,13)           171.3336                                         !
 ! D19   D(3,2,5,6)            164.6529                                         !
 ! D20   D(3,2,5,12)           -69.8515                                         !
 ! D21   D(3,2,5,13)            44.1694                                         !
 ! D22   D(11,2,5,6)            48.0497                                         !
 ! D23   D(11,2,5,12)          173.5453                                         !
 ! D24   D(11,2,5,13)          -72.4338                                         !
 ! D25   D(2,3,18,19)          -33.1075                                         !
 ! D26   D(2,3,18,32)         -172.0717                                         !
 ! D27   D(4,3,18,19)          152.6044                                         !
 ! D28   D(4,3,18,32)           13.6403                                         !
 ! D29   D(2,5,6,7)             78.1379                                         !
 ! D30   D(2,5,6,14)           -44.7266                                         !
 ! D31   D(2,5,6,15)          -161.7451                                         !
 ! D32   D(12,5,6,7)           -48.7708                                         !
 ! D33   D(12,5,6,14)         -171.6353                                         !
 ! D34   D(12,5,6,15)           71.3462                                         !
 ! D35   D(13,5,6,7)          -162.6498                                         !
 ! D36   D(13,5,6,14)           74.4856                                         !
 ! D37   D(13,5,6,15)          -42.5329                                         !
 ! D38   D(5,6,7,8)            133.5819                                         !
 ! D39   D(5,6,7,9)            -47.0384                                         !
 ! D40   D(14,6,7,8)          -102.213                                          !
 ! D41   D(14,6,7,9)            77.1668                                         !
 ! D42   D(15,6,7,8)            12.6255                                         !
 ! D43   D(15,6,7,9)          -167.9948                                         !
 ! D44   D(3,18,19,20)         -75.3238                                         !
 ! D45   D(3,18,19,22)         160.0421                                         !
 ! D46   D(3,18,19,33)          43.4952                                         !
 ! D47   D(32,18,19,20)         62.5455                                         !
 ! D48   D(32,18,19,22)        -62.0886                                         !
 ! D49   D(32,18,19,33)       -178.6355                                         !
 ! D50   D(18,19,20,21)        -14.4823                                         !
 ! D51   D(18,19,20,42)        166.8659                                         !
 ! D52   D(22,19,20,21)        108.0222                                         !
 ! D53   D(22,19,20,42)        -70.6297                                         !
 ! D54   D(33,19,20,21)       -133.2968                                         !
 ! D55   D(33,19,20,42)         48.0513                                         !
 ! D56   D(18,19,22,23)        -77.334                                          !
 ! D57   D(18,19,22,34)        161.0039                                         !
 ! D58   D(18,19,22,35)         46.6142                                         !
 ! D59   D(20,19,22,23)        160.0415                                         !
 ! D60   D(20,19,22,34)         38.3794                                         !
 ! D61   D(20,19,22,35)        -76.0104                                         !
 ! D62   D(33,19,22,23)         40.3315                                         !
 ! D63   D(33,19,22,34)        -81.3306                                         !
 ! D64   D(33,19,22,35)        164.2797                                         !
 ! D65   D(19,20,42,43)        -17.5094                                         !
 ! D66   D(19,20,42,50)       -167.4417                                         !
 ! D67   D(21,20,42,43)        163.8763                                         !
 ! D68   D(21,20,42,50)         13.9439                                         !
 ! D69   D(19,22,23,24)         64.3508                                         !
 ! D70   D(19,22,23,25)       -114.9679                                         !
 ! D71   D(34,22,23,24)       -174.1292                                         !
 ! D72   D(34,22,23,25)          6.5521                                         !
 ! D73   D(35,22,23,24)        -57.6167                                         !
 ! D74   D(35,22,23,25)        123.0646                                         !
 ! D75   D(22,23,24,28)       -178.4427                                         !
 ! D76   D(22,23,24,36)          4.3211                                         !
 ! D77   D(25,23,24,28)          0.9826                                         !
 ! D78   D(25,23,24,36)       -176.2535                                         !
 ! D79   D(22,23,25,26)        179.3973                                         !
 ! D80   D(22,23,25,27)         -0.0043                                         !
 ! D81   D(24,23,25,26)         -0.04                                           !
 ! D82   D(24,23,25,27)       -179.4416                                         !
 ! D83   D(23,24,28,26)         -1.5978                                         !
 ! D84   D(23,24,28,37)       -169.2825                                         !
 ! D85   D(36,24,28,26)        175.9151                                         !
 ! D86   D(36,24,28,37)          8.2304                                         !
 ! D87   D(23,25,26,28)         -0.9068                                         !
 ! D88   D(23,25,26,29)        179.81                                           !
 ! D89   D(27,25,26,28)        178.5996                                         !
 ! D90   D(27,25,26,29)         -0.6836                                         !
 ! D91   D(23,25,27,30)        179.5023                                         !
 ! D92   D(23,25,27,38)          0.0816                                         !
 ! D93   D(26,25,27,30)          0.1553                                         !
 ! D94   D(26,25,27,38)       -179.2654                                         !
 ! D95   D(25,26,28,24)          1.5263                                         !
 ! D96   D(25,26,28,37)        169.1886                                         !
 ! D97   D(29,26,28,24)       -179.2678                                         !
 ! D98   D(29,26,28,37)        -11.6055                                         !
 ! D99   D(25,26,29,31)          0.5189                                         !
 ! D100  D(25,26,29,39)       -179.0094                                         !
 ! D101  D(28,26,29,31)       -178.5828                                         !
 ! D102  D(28,26,29,39)          1.8889                                         !
 ! D103  D(25,27,30,31)          0.5047                                         !
 ! D104  D(25,27,30,40)        178.8522                                         !
 ! D105  D(38,27,30,31)        179.9346                                         !
 ! D106  D(38,27,30,40)         -1.718                                          !
 ! D107  D(26,29,31,30)          0.1585                                         !
 ! D108  D(26,29,31,41)       -179.2324                                         !
 ! D109  D(39,29,31,30)        179.6869                                         !
 ! D110  D(39,29,31,41)          0.296                                          !
 ! D111  D(27,30,31,29)         -0.6794                                         !
 ! D112  D(27,30,31,41)        178.7123                                         !
 ! D113  D(40,30,31,29)       -179.0299                                         !
 ! D114  D(40,30,31,41)          0.3618                                         !
 ! D115  D(20,42,43,44)        -91.3366                                         !
 ! D116  D(20,42,43,46)        143.982                                          !
 ! D117  D(20,42,43,51)         29.4796                                         !
 ! D118  D(50,42,43,44)         57.8574                                         !
 ! D119  D(50,42,43,46)        -66.8241                                         !
 ! D120  D(50,42,43,51)        178.6736                                         !
 ! D121  D(42,43,44,45)        -24.1238                                         !
 ! D122  D(42,43,44,56)        155.0969                                         !
 ! D123  D(46,43,44,45)         98.9921                                         !
 ! D124  D(46,43,44,56)        -81.7872                                         !
 ! D125  D(51,43,44,45)       -143.4845                                         !
 ! D126  D(51,43,44,56)         35.7362                                         !
 ! D127  D(42,43,46,47)         91.2149                                         !
 ! D128  D(42,43,46,48)       -145.084                                          !
 ! D129  D(42,43,46,52)        -30.043                                          !
 ! D130  D(44,43,46,47)        -31.0472                                         !
 ! D131  D(44,43,46,48)         92.6538                                         !
 ! D132  D(44,43,46,52)       -152.3052                                         !
 ! D133  D(51,43,46,47)       -152.0173                                         !
 ! D134  D(51,43,46,48)        -28.3162                                         !
 ! D135  D(51,43,46,52)         86.7248                                         !
 ! D136  D(43,44,56,57)         -3.7938                                         !
 ! D137  D(43,44,56,69)       -179.2087                                         !
 ! D138  D(45,44,56,57)        175.4157                                         !
 ! D139  D(45,44,56,69)          0.0007                                         !
 ! D140  D(43,46,47,53)        -53.6187                                         !
 ! D141  D(43,46,47,54)       -173.176                                          !
 ! D142  D(43,46,47,55)         66.7093                                         !
 ! D143  D(48,46,47,53)       -173.3366                                         !
 ! D144  D(48,46,47,54)         67.1061                                         !
 ! D145  D(48,46,47,55)        -53.0087                                         !
 ! D146  D(52,46,47,53)         65.3417                                         !
 ! D147  D(52,46,47,54)        -54.2156                                         !
 ! D148  D(52,46,47,55)       -174.3303                                         !
 ! D149  D(43,46,48,49)       -145.613                                          !
 ! D150  D(47,46,48,49)        -20.5451                                         !
 ! D151  D(52,46,48,49)        101.4318                                         !
 ! D152  D(44,56,57,58)         78.0794                                         !
 ! D153  D(44,56,57,60)        -58.9832                                         !
 ! D154  D(44,56,57,70)       -173.2489                                         !
 ! D155  D(69,56,57,58)       -106.6495                                         !
 ! D156  D(69,56,57,60)        116.2878                                         !
 ! D157  D(69,56,57,70)          2.0222                                         !
 ! D158  D(56,57,58,59)         38.833                                          !
 ! D159  D(56,57,58,67)       -150.0237                                         !
 ! D160  D(60,57,58,59)        173.4558                                         !
 ! D161  D(60,57,58,67)        -15.4009                                         !
 ! D162  D(70,57,58,59)        -70.1751                                         !
 ! D163  D(70,57,58,67)        100.9682                                         !
 ! D164  D(56,57,60,61)       -156.6757                                         !
 ! D165  D(56,57,60,71)         78.8307                                         !
 ! D166  D(56,57,60,72)        -36.4282                                         !
 ! D167  D(58,57,60,61)         68.8958                                         !
 ! D168  D(58,57,60,71)        -55.5977                                         !
 ! D169  D(58,57,60,72)       -170.8567                                         !
 ! D170  D(70,57,60,61)        -44.9378                                         !
 ! D171  D(70,57,60,71)       -169.4314                                         !
 ! D172  D(70,57,60,72)         75.3096                                         !
 ! D173  D(57,58,67,68)         34.314                                          !
 ! D174  D(59,58,67,68)       -154.4817                                         !
 ! D175  D(57,60,61,62)         32.1389                                         !
 ! D176  D(57,60,61,73)        155.4042                                         !
 ! D177  D(57,60,61,74)        -90.0423                                         !
 ! D178  D(71,60,61,62)        158.4321                                         !
 ! D179  D(71,60,61,73)        -78.3026                                         !
 ! D180  D(71,60,61,74)         36.251                                          !
 ! D181  D(72,60,61,62)        -86.2676                                         !
 ! D182  D(72,60,61,73)         36.9978                                         !
 ! D183  D(72,60,61,74)        151.5513                                         !
 ! D184  D(60,61,62,63)         52.7481                                         !
 ! D185  D(60,61,62,75)        174.8516                                         !
 ! D186  D(60,61,62,76)        -68.3119                                         !
 ! D187  D(73,61,62,63)        -69.6362                                         !
 ! D188  D(73,61,62,75)         52.4673                                         !
 ! D189  D(73,61,62,76)        169.3038                                         !
 ! D190  D(74,61,62,63)        177.3697                                         !
 ! D191  D(74,61,62,75)        -60.5269                                         !
 ! D192  D(74,61,62,76)         56.3097                                         !
 ! D193  D(61,62,63,64)       -161.1525                                         !
 ! D194  D(61,62,63,77)          8.5095                                         !
 ! D195  D(75,62,63,64)         77.9357                                         !
 ! D196  D(75,62,63,77)       -112.4024                                         !
 ! D197  D(76,62,63,64)        -39.7455                                         !
 ! D198  D(76,62,63,77)        129.9165                                         !
 ! D199  D(62,63,64,65)        -18.846                                          !
 ! D200  D(62,63,64,66)        159.9863                                         !
 ! D201  D(77,63,64,65)        171.2085                                         !
 ! D202  D(77,63,64,66)         -9.9592                                         !
 ! D203  D(63,64,65,78)        171.72                                           !
 ! D204  D(63,64,65,79)        -19.406                                          !
 ! D205  D(66,64,65,78)         -7.0946                                         !
 ! D206  D(66,64,65,79)        161.7795                                         !
 ! D207  D(63,64,66,80)        -22.0261                                         !
 ! D208  D(63,64,66,81)        170.894                                          !
 ! D209  D(65,64,66,80)        156.7949                                         !
 ! D210  D(65,64,66,81)        -10.2849                                         !
 --------------------------------------------------------------------------------
 Symmetry turned off by external request.
 Stoichiometry    C26H39N8O8(1+)
 Framework group  C1[X(C26H39N8O8)]
 Deg. of freedom   237
 Full point group                 C1      NOp   1
                          Input orientation:                          
 ---------------------------------------------------------------------
 Center     Atomic      Atomic             Coordinates (Angstroms)
 Number     Number       Type             X           Y           Z
 ---------------------------------------------------------------------
      1          7           0       11.207352   29.626482   14.041020
      2          6           0       12.418285   29.173173   13.249076
      3          6           0       13.612954   30.113412   13.512845
      4          8           0       14.625493   29.650376   14.003477
      5          6           0       12.086437   28.940334   11.766297
      6          6           0       11.161938   27.749933   11.444432
      7          6           0        9.667517   27.967327   11.691942
      8          8           0        8.859956   27.616996   10.813817
      9          8           0        9.294458   28.499727   12.817433
     10          1           0       11.323588   29.398530   15.031235
     11          1           0       12.718374   28.222040   13.693203
     12          1           0       11.673482   29.835538   11.305464
     13          1           0       13.046674   28.774274   11.266467
     14          1           0       11.469440   26.863669   12.017123
     15          1           0       11.273302   27.505306   10.386319
     16          1           0       11.071788   30.643358   13.987954
     17          1           0       10.305581   29.096498   13.599675
     18          7           0       13.457552   31.468943   13.292527
     19          6           0       12.626001   32.104340   12.272322
     20          6           0       13.310269   31.976779   10.887073
     21          8           0       14.484465   31.653243   10.813610
     22          6           0       12.343413   33.571927   12.677370
     23          6           0       11.288185   33.681999   13.742561
     24          6           0       11.348949   33.215258   15.037521
     25          6           0        9.990581   34.297375   13.591391
     26          6           0        9.314089   34.167332   14.835327
     27          6           0        9.332991   34.935714   12.521340
     28          7           0       10.157028   33.485891   15.690017
     29          6           0        8.020450   34.663566   15.041788
     30          6           0        8.043843   35.420463   12.719718
     31          6           0        7.396771   35.291347   13.971023
     32          1           0       14.364479   31.922588   13.384917
     33          1           0       11.663564   31.593134   12.236342
     34          1           0       12.027867   34.134034   11.793471
     35          1           0       13.289528   34.028526   12.993825
     36          1           0       12.170359   32.743451   15.558574
     37          1           0       10.010222   33.383082   16.683361
     38          1           0        9.808016   35.045972   11.551119
     39          1           0        7.526736   34.568111   16.004797
     40          1           0        7.533735   35.931195   11.907615
     41          1           0        6.398558   35.699309   14.098380
     42          7           0       12.553817   32.267314    9.781957
     43          6           0       11.101497   32.341053    9.717483
     44          6           0       10.546734   30.951666    9.327436
     45          8           0       11.275480   30.177678    8.714701
     46          6           0       10.658406   33.468872    8.743601
     47          6           0       10.450695   33.014552    7.303287
     48          8           0        9.465159   34.011097    9.320447
     49          1           0        8.856645   34.284074    8.615123
     50          1           0       13.004782   31.965903    8.922890
     51          1           0       10.727806   32.648291   10.689824
     52          1           0       11.449742   34.229653    8.786310
     53          1           0       11.337452   32.498322    6.922125
     54          1           0       10.259929   33.879290    6.658440
     55          1           0        9.597717   32.331596    7.235328
     56          7           0        9.277339   30.575647    9.666723
     57          6           0        8.216340   31.208905   10.448339
     58          6           0        7.471153   32.307024    9.655169
     59          8           0        7.217389   32.174129    8.485381
     60          6           0        8.639211   31.516924   11.899659
     61          6           0        7.523231   31.657963   12.963037
     62          6           0        6.270093   30.801655   12.762020
     63          7           0        6.594561   29.382488   12.581273
     64          6           0        5.753122   28.496579   12.037552
     65          7           0        4.433993   28.774792   11.972305
     66          7           0        6.235167   27.356611   11.544717
     67          8           0        6.953370   33.340071   10.364560
     68          1           0        7.511260   33.567878   11.130522
     69          1           0        9.076774   29.633138    9.347469
     70          1           0        7.461233   30.418985   10.504076
     71          1           0        9.250970   32.418161   11.946998
     72          1           0        9.277410   30.681544   12.184877
     73          1           0        7.965179   31.430862   13.940551
     74          1           0        7.180324   32.693388   13.039454
     75          1           0        5.615201   30.937177   13.633562
     76          1           0        5.720515   31.156392   11.881051
     77          1           0        7.565875   29.061091   12.732292
     78          1           0        3.804203   28.177596   11.457193
     79          1           0        4.020139   29.479592   12.563667
     80          1           0        7.241361   27.323396   11.275417
     81          1           0        5.614332   26.615183   11.254479
 ---------------------------------------------------------------------
 Rotational constants (GHZ):           0.0934679           0.0817004           0.0731995
 Standard basis: 6-31G(d) (6D, 7F)
   708 basis functions,  1332 primitive gaussians,   708 cartesian basis functions
   157 alpha electrons      157 beta electrons
       nuclear repulsion energy      5903.4591749050 Hartrees.
 NAtoms=   81 NActive=   81 NUniq=   81 SFac= 1.00D+00 NAtFMM=   60 NAOKFM=T Big=T
 Integral buffers will be    131072 words long.
 Raffenetti 2 integral format.
 Two-electron integral symmetry is turned off.
 Nuclear repulsion after empirical dispersion term =     5903.3171454653 Hartrees.
 One-electron integrals computed using PRISM.
 NBasis=   708 RedAO= T EigKep=  3.67D-04  NBF=   708
 NBsUse=   708 1.00D-06 EigRej= -1.00D+00 NBFU=   708
 Initial guess from the checkpoint file:  "conf-306.chk"
 B after Tr=     0.000000    0.000000    0.000000
         Rot=    1.000000    0.000000    0.000000    0.000000 Ang=   0.00 deg.
 Requested convergence on RMS density matrix=1.00D-08 within 128 cycles.
 Requested convergence on MAX density matrix=1.00D-06.
 Requested convergence on             energy=1.00D-06.
 No special actions if energy rises.
 SCF Done:  E(RB3LYP) =  -2054.05727902     A.U. after    1 cycles
            NFock=  1  Conv=0.67D-08     -V/T= 2.0093

 **********************************************************************

            Population analysis using the SCF Density.

 **********************************************************************

 Alpha  occ. eigenvalues --  -19.28068 -19.25192 -19.24505 -19.22743 -19.22491
 Alpha  occ. eigenvalues --  -19.22467 -19.21189 -19.21160 -14.54558 -14.50871
 Alpha  occ. eigenvalues --  -14.49059 -14.48809 -14.48172 -14.46709 -14.46079
 Alpha  occ. eigenvalues --  -14.45443 -10.46019 -10.41309 -10.40788 -10.40286
 Alpha  occ. eigenvalues --  -10.38774 -10.38552 -10.37058 -10.35466 -10.35102
 Alpha  occ. eigenvalues --  -10.35101 -10.34200 -10.33749 -10.32772 -10.32570
 Alpha  occ. eigenvalues --  -10.31278 -10.31210 -10.30725 -10.30578 -10.29662
 Alpha  occ. eigenvalues --  -10.29483 -10.29314 -10.29073 -10.28839 -10.28767
 Alpha  occ. eigenvalues --  -10.28402 -10.26509  -1.18849  -1.16631  -1.15036
 Alpha  occ. eigenvalues --   -1.14552  -1.13805  -1.12984  -1.12284  -1.10833
 Alpha  occ. eigenvalues --   -1.09996  -1.08590  -1.07202  -1.04026  -1.03240
 Alpha  occ. eigenvalues --   -1.02579  -1.02395  -1.02119  -0.94341  -0.91798
 Alpha  occ. eigenvalues --   -0.91662  -0.91175  -0.87472  -0.86445  -0.85721
 Alpha  occ. eigenvalues --   -0.83945  -0.83541  -0.82235  -0.81040  -0.79889
 Alpha  occ. eigenvalues --   -0.77520  -0.76999  -0.74880  -0.73243  -0.72648
 Alpha  occ. eigenvalues --   -0.72384  -0.72163  -0.71388  -0.70848  -0.69944
 Alpha  occ. eigenvalues --   -0.69460  -0.68975  -0.68338  -0.67675  -0.66924
 Alpha  occ. eigenvalues --   -0.66235  -0.64334  -0.64286  -0.64179  -0.63322
 Alpha  occ. eigenvalues --   -0.63030  -0.62575  -0.61434  -0.60764  -0.59636
 Alpha  occ. eigenvalues --   -0.59555  -0.58912  -0.58571  -0.58416  -0.57801
 Alpha  occ. eigenvalues --   -0.57747  -0.57339  -0.56766  -0.55827  -0.55294
 Alpha  occ. eigenvalues --   -0.54998  -0.54871  -0.54732  -0.54124  -0.54052
 Alpha  occ. eigenvalues --   -0.53731  -0.53403  -0.53101  -0.52629  -0.52403
 Alpha  occ. eigenvalues --   -0.52072  -0.51872  -0.51661  -0.51193  -0.50751
 Alpha  occ. eigenvalues --   -0.50325  -0.50109  -0.49774  -0.49254  -0.48837
 Alpha  occ. eigenvalues --   -0.48333  -0.48114  -0.47633  -0.47007  -0.46718
 Alpha  occ. eigenvalues --   -0.46389  -0.46227  -0.46075  -0.45993  -0.45724
 Alpha  occ. eigenvalues --   -0.45463  -0.44965  -0.43941  -0.43593  -0.42632
 Alpha  occ. eigenvalues --   -0.41419  -0.40465  -0.39297  -0.39220  -0.38583
 Alpha  occ. eigenvalues --   -0.38003  -0.37778  -0.37588  -0.36753  -0.36619
 Alpha  occ. eigenvalues --   -0.35825  -0.35439  -0.34989  -0.34873  -0.34107
 Alpha  occ. eigenvalues --   -0.33014  -0.31035
 Alpha virt. eigenvalues --   -0.12095  -0.10792  -0.10504  -0.09415  -0.08760
 Alpha virt. eigenvalues --   -0.08472  -0.08358  -0.07982  -0.06824  -0.06521
 Alpha virt. eigenvalues --   -0.05294  -0.03666  -0.03091  -0.02580  -0.02172
 Alpha virt. eigenvalues --   -0.01599  -0.01266  -0.00667  -0.00005   0.00199
 Alpha virt. eigenvalues --    0.00814   0.01369   0.01536   0.01721   0.01892
 Alpha virt. eigenvalues --    0.02603   0.02749   0.03026   0.04012   0.04073
 Alpha virt. eigenvalues --    0.04613   0.04905   0.05211   0.05708   0.05820
 Alpha virt. eigenvalues --    0.06392   0.06590   0.06815   0.07494   0.08049
 Alpha virt. eigenvalues --    0.08345   0.08521   0.08647   0.08725   0.09366
 Alpha virt. eigenvalues --    0.09429   0.09781   0.10444   0.10597   0.10967
 Alpha virt. eigenvalues --    0.11099   0.11605   0.11798   0.12504   0.12666
 Alpha virt. eigenvalues --    0.13023   0.13236   0.13718   0.14111   0.14730
 Alpha virt. eigenvalues --    0.14771   0.15028   0.15843   0.16258   0.16644
 Alpha virt. eigenvalues --    0.17153   0.17484   0.17508   0.17936   0.19503
 Alpha virt. eigenvalues --    0.19755   0.20520   0.21528   0.22164   0.23448
 Alpha virt. eigenvalues --    0.23957   0.24089   0.25615   0.26233   0.26598
 Alpha virt. eigenvalues --    0.27004   0.27488   0.28268   0.28914   0.29394
 Alpha virt. eigenvalues --    0.30046   0.31148   0.32931   0.33979   0.34283
 Alpha virt. eigenvalues --    0.36321   0.36911   0.37289   0.39078   0.39295
 Alpha virt. eigenvalues --    0.40335   0.40947   0.41544   0.41805   0.42296
 Alpha virt. eigenvalues --    0.42397   0.43290   0.43571   0.43954   0.44298
 Alpha virt. eigenvalues --    0.44653   0.44997   0.45086   0.45786   0.46182
 Alpha virt. eigenvalues --    0.46255   0.47373   0.47834   0.47862   0.48365
 Alpha virt. eigenvalues --    0.48836   0.49091   0.49395   0.49571   0.49978
 Alpha virt. eigenvalues --    0.50586   0.50719   0.51225   0.51372   0.51845
 Alpha virt. eigenvalues --    0.52126   0.52432   0.52599   0.53092   0.53538
 Alpha virt. eigenvalues --    0.54051   0.54818   0.54975   0.55487   0.55624
 Alpha virt. eigenvalues --    0.56140   0.56260   0.56604   0.56797   0.57266
 Alpha virt. eigenvalues --    0.57521   0.58456   0.58711   0.59125   0.59878
 Alpha virt. eigenvalues --    0.59985   0.60638   0.60869   0.61565   0.62077
 Alpha virt. eigenvalues --    0.62744   0.63193   0.63689   0.64239   0.64446
 Alpha virt. eigenvalues --    0.64781   0.65068   0.66472   0.66932   0.67593
 Alpha virt. eigenvalues --    0.68292   0.68930   0.69854   0.70283   0.71005
 Alpha virt. eigenvalues --    0.71266   0.71743   0.72007   0.72211   0.72568
 Alpha virt. eigenvalues --    0.72864   0.73223   0.73692   0.74116   0.74263
 Alpha virt. eigenvalues --    0.74656   0.74873   0.74978   0.75372   0.75775
 Alpha virt. eigenvalues --    0.76094   0.76471   0.76656   0.76788   0.77590
 Alpha virt. eigenvalues --    0.77741   0.78124   0.78800   0.79182   0.79439
 Alpha virt. eigenvalues --    0.79742   0.79990   0.80227   0.80913   0.81510
 Alpha virt. eigenvalues --    0.81885   0.82050   0.82656   0.82870   0.82988
 Alpha virt. eigenvalues --    0.83279   0.83482   0.84454   0.84551   0.85204
 Alpha virt. eigenvalues --    0.85262   0.86031   0.86662   0.86827   0.87436
 Alpha virt. eigenvalues --    0.88012   0.88926   0.89062   0.89075   0.89633
 Alpha virt. eigenvalues --    0.90034   0.90660   0.91494   0.92015   0.93202
 Alpha virt. eigenvalues --    0.93548   0.94159   0.94481   0.95120   0.96071
 Alpha virt. eigenvalues --    0.96839   0.97381   0.97918   0.98589   0.99661
 Alpha virt. eigenvalues --    1.00324   1.00576   1.01471   1.01807   1.02338
 Alpha virt. eigenvalues --    1.02888   1.03086   1.03511   1.03830   1.04264
 Alpha virt. eigenvalues --    1.04650   1.05588   1.06469   1.07023   1.07652
 Alpha virt. eigenvalues --    1.07769   1.08215   1.09034   1.09732   1.10931
 Alpha virt. eigenvalues --    1.10987   1.12419   1.12465   1.13310   1.14225
 Alpha virt. eigenvalues --    1.14854   1.16268   1.17059   1.17393   1.17786
 Alpha virt. eigenvalues --    1.18422   1.19875   1.21131   1.21691   1.22830
 Alpha virt. eigenvalues --    1.23058   1.23612   1.23857   1.24423   1.25440
 Alpha virt. eigenvalues --    1.26252   1.26647   1.27608   1.28526   1.29215
 Alpha virt. eigenvalues --    1.29660   1.30054   1.31179   1.31995   1.32467
 Alpha virt. eigenvalues --    1.33247   1.33779   1.34204   1.35061   1.36221
 Alpha virt. eigenvalues --    1.36445   1.36857   1.37806   1.38875   1.39554
 Alpha virt. eigenvalues --    1.40131   1.40418   1.41681   1.42215   1.42802
 Alpha virt. eigenvalues --    1.43724   1.44013   1.44686   1.44958   1.45727
 Alpha virt. eigenvalues --    1.47266   1.47935   1.48264   1.50028   1.50190
 Alpha virt. eigenvalues --    1.50344   1.52040   1.52298   1.52782   1.54773
 Alpha virt. eigenvalues --    1.54996   1.55636   1.56603   1.56949   1.58044
 Alpha virt. eigenvalues --    1.59027   1.59393   1.60437   1.60526   1.61557
 Alpha virt. eigenvalues --    1.62561   1.62834   1.63521   1.64029   1.64410
 Alpha virt. eigenvalues --    1.64880   1.65886   1.66713   1.67085   1.67537
 Alpha virt. eigenvalues --    1.68402   1.68940   1.69606   1.69940   1.70226
 Alpha virt. eigenvalues --    1.70469   1.71272   1.71393   1.71771   1.73196
 Alpha virt. eigenvalues --    1.73568   1.73913   1.74316   1.74603   1.74866
 Alpha virt. eigenvalues --    1.75802   1.76155   1.76489   1.77117   1.77628
 Alpha virt. eigenvalues --    1.78013   1.78411   1.78766   1.79621   1.80552
 Alpha virt. eigenvalues --    1.80634   1.81152   1.81596   1.81885   1.82611
 Alpha virt. eigenvalues --    1.83163   1.83595   1.84410   1.84854   1.85138
 Alpha virt. eigenvalues --    1.85837   1.86710   1.87466   1.87915   1.88276
 Alpha virt. eigenvalues --    1.88802   1.89363   1.89703   1.90530   1.90834
 Alpha virt. eigenvalues --    1.91783   1.92002   1.92377   1.93237   1.93397
 Alpha virt. eigenvalues --    1.94078   1.94792   1.94943   1.95217   1.96301
 Alpha virt. eigenvalues --    1.96735   1.96859   1.97905   1.98964   1.99238
 Alpha virt. eigenvalues --    1.99306   1.99888   2.00756   2.01807   2.01906
 Alpha virt. eigenvalues --    2.03539   2.04485   2.04821   2.05183   2.05898
 Alpha virt. eigenvalues --    2.06955   2.08222   2.08595   2.09197   2.10296
 Alpha virt. eigenvalues --    2.11275   2.11493   2.12552   2.13724   2.14615
 Alpha virt. eigenvalues --    2.15273   2.15560   2.16748   2.16961   2.18389
 Alpha virt. eigenvalues --    2.18458   2.19790   2.19879   2.20242   2.20926
 Alpha virt. eigenvalues --    2.21998   2.23273   2.23610   2.25095   2.26267
 Alpha virt. eigenvalues --    2.26558   2.27761   2.29056   2.29862   2.30295
 Alpha virt. eigenvalues --    2.30674   2.31287   2.32149   2.33209   2.33961
 Alpha virt. eigenvalues --    2.34866   2.36099   2.36814   2.36906   2.38328
 Alpha virt. eigenvalues --    2.39188   2.40196   2.40777   2.41004   2.41927
 Alpha virt. eigenvalues --    2.42327   2.43107   2.43998   2.44591   2.45214
 Alpha virt. eigenvalues --    2.45480   2.45978   2.47056   2.48071   2.48220
 Alpha virt. eigenvalues --    2.49254   2.50730   2.51490   2.51939   2.53041
 Alpha virt. eigenvalues --    2.53736   2.54286   2.55115   2.55602   2.55943
 Alpha virt. eigenvalues --    2.56906   2.57045   2.57945   2.58764   2.59677
 Alpha virt. eigenvalues --    2.60088   2.60828   2.61875   2.62509   2.62936
 Alpha virt. eigenvalues --    2.64533   2.66061   2.66617   2.67535   2.68417
 Alpha virt. eigenvalues --    2.68980   2.69452   2.72324   2.72995   2.74170
 Alpha virt. eigenvalues --    2.76643   2.81281   2.83044   2.83395   2.83941
 Alpha virt. eigenvalues --    2.85378   2.89177   2.89626   2.89927   2.91349
 Alpha virt. eigenvalues --    2.92121   2.92551   2.92841   2.93827   2.96137
 Alpha virt. eigenvalues --    2.99222   3.00058   3.00949   3.01643   3.01890
 Alpha virt. eigenvalues --    3.06059   3.11458   3.14180   3.33608   3.68401
 Alpha virt. eigenvalues --    3.75902   3.78413   3.79831   3.82696   3.87515
 Alpha virt. eigenvalues --    3.92508   3.92740   3.95946   3.96961   4.02436
 Alpha virt. eigenvalues --    4.03319   4.05223   4.06792   4.06963   4.08778
 Alpha virt. eigenvalues --    4.09587   4.11498   4.13914   4.15726   4.17300
 Alpha virt. eigenvalues --    4.19323   4.21649   4.23925   4.24930   4.26806
 Alpha virt. eigenvalues --    4.29300   4.30757   4.32386   4.35291   4.37844
 Alpha virt. eigenvalues --    4.39739   4.43340   4.46714   4.48439   4.52628
 Alpha virt. eigenvalues --    4.56179   4.59064   4.62580   4.64803   4.70244
 Alpha virt. eigenvalues --    4.73914
          Condensed to atoms (all electrons):
 Mulliken charges:
               1
     1  N   -0.812204
     2  C   -0.096831
     3  C    0.590592
     4  O   -0.452230
     5  C   -0.324010
     6  C   -0.366430
     7  C    0.636205
     8  O   -0.552853
     9  O   -0.647838
    10  H    0.390850
    11  H    0.214583
    12  H    0.173453
    13  H    0.221189
    14  H    0.180928
    15  H    0.214146
    16  H    0.396346
    17  H    0.464157
    18  N   -0.586561
    19  C   -0.096792
    20  C    0.608191
    21  O   -0.482412
    22  C   -0.370868
    23  C    0.066221
    24  C   -0.029346
    25  C    0.066252
    26  C    0.317243
    27  C   -0.244630
    28  N   -0.688504
    29  C   -0.165571
    30  C   -0.185397
    31  C   -0.151520
    32  H    0.359509
    33  H    0.128936
    34  H    0.185935
    35  H    0.186483
    36  H    0.175482
    37  H    0.344639
    38  H    0.176860
    39  H    0.146996
    40  H    0.163216
    41  H    0.153946
    42  N   -0.582605
    43  C   -0.112511
    44  C    0.616683
    45  O   -0.517682
    46  C    0.154239
    47  C   -0.517102
    48  O   -0.653225
    49  H    0.425506
    50  H    0.358297
    51  H    0.162483
    52  H    0.158972
    53  H    0.178443
    54  H    0.171112
    55  H    0.199653
    56  N   -0.606306
    57  C   -0.049408
    58  C    0.619933
    59  O   -0.445025
    60  C   -0.373380
    61  C   -0.311525
    62  C   -0.160953
    63  N   -0.639120
    64  C    0.781632
    65  N   -0.758274
    66  N   -0.787253
    67  O   -0.606007
    68  H    0.439451
    69  H    0.364383
    70  H    0.183979
    71  H    0.191777
    72  H    0.151058
    73  H    0.153505
    74  H    0.182236
    75  H    0.170151
    76  H    0.183704
    77  H    0.421261
    78  H    0.375834
    79  H    0.378754
    80  H    0.430571
    81  H    0.358401
 Sum of Mulliken charges =   1.00000
 Mulliken charges with hydrogens summed into heavy atoms:
               1
     1  N    0.439149
     2  C    0.117752
     3  C    0.590592
     4  O   -0.452230
     5  C    0.070632
     6  C    0.028644
     7  C    0.636205
     8  O   -0.552853
     9  O   -0.647838
    18  N   -0.227052
    19  C    0.032145
    20  C    0.608191
    21  O   -0.482412
    22  C    0.001550
    23  C    0.066221
    24  C    0.146136
    25  C    0.066252
    26  C    0.317243
    27  C   -0.067769
    28  N   -0.343865
    29  C   -0.018575
    30  C   -0.022182
    31  C    0.002425
    42  N   -0.224308
    43  C    0.049973
    44  C    0.616683
    45  O   -0.517682
    46  C    0.313210
    47  C    0.032107
    48  O   -0.227719
    56  N   -0.241924
    57  C    0.134570
    58  C    0.619933
    59  O   -0.445025
    60  C   -0.030545
    61  C    0.024216
    62  C    0.192902
    63  N   -0.217859
    64  C    0.781632
    65  N   -0.003687
    66  N    0.001720
    67  O   -0.166557
 Electronic spatial extent (au):  <R**2>=        1390717.3499
 Charge=              1.0000 electrons
 Dipole moment (field-independent basis, Debye):
    X=             35.8724    Y=            147.2418    Z=             65.5614  Tot=            165.1220
 Quadrupole moment (field-independent basis, Debye-Ang):
   XX=             45.9685   YY=           4307.7116   ZZ=            668.6669
   XY=           1128.5182   XZ=            502.7265   YZ=           2012.0138
 Traceless Quadrupole moment (field-independent basis, Debye-Ang):
   XX=          -1628.1472   YY=           2633.5959   ZZ=          -1005.4487
   XY=           1128.5182   XZ=            502.7265   YZ=           2012.0138
 Octapole moment (field-independent basis, Debye-Ang**2):
  XXX=          -5032.4043  YYY=         118786.0563  ZZZ=           4295.4814  XYY=          33373.8293
  XXY=           1654.1298  XXZ=           1274.7569  XZZ=           4832.2845  YZZ=          20448.9428
  YYZ=          59293.3661  XYZ=          15730.4165
 Hexadecapole moment (field-independent basis, Debye-Ang**3):
 XXXX=        -141003.6084 YYYY=        2993579.4400 ZZZZ=         -23456.9693 XXXY=        -154552.7238
 XXXZ=         -52794.1290 YYYX=         914801.0056 YYYZ=        1661352.8203 ZZZX=          20863.7112
 ZZZY=         128759.7938 XXYY=          34355.6106 XXZZ=           1232.7121 YYZZ=         593924.9073
 XXYZ=          41527.5636 YYXZ=         466883.4163 ZZXY=         150655.5311
 N-N= 5.903317145465D+03 E-N=-1.656173019097D+04  KE= 2.035219457498D+03
 Unable to Open any file for archive entry.
 1\1\GINC-LAC-317\SP\RB3LYP\6-31G(d)\C26H39N8O8(1+)\KENGMITH\27-May-202
 2\0\\# B3LYP/6-31G* empiricaldispersion=gd3 guess=read geom=check nosy
 mm integral(ultrafinegrid)\\Candidate Structure: Conf:306 Charge calc 
 in gas phase\\1,1\N,0,11.2073524824,29.6264820294,14.0410196838\C,0,12
 .418285012,29.1731728079,13.2490762606\C,0,13.6129538075,30.1134123259
 ,13.5128446028\O,0,14.6254927948,29.6503756842,14.003477011\C,0,12.086
 4367164,28.9403338722,11.7662974898\C,0,11.1619377186,27.7499332663,11
 .4444317506\C,0,9.6675173691,27.9673272385,11.6919424323\O,0,8.8599564
 601,27.6169959357,10.8138172978\O,0,9.2944583576,28.4997269864,12.8174
 333166\H,0,11.3235878441,29.398529551,15.0312351936\H,0,12.7183735215,
 28.2220400171,13.6932031274\H,0,11.6734816869,29.8355380262,11.3054644
 013\H,0,13.0466736095,28.7742742819,11.2664665862\H,0,11.4694395032,26
 .8636688465,12.0171232474\H,0,11.2733024158,27.5053055571,10.386319118
 6\H,0,11.0717878299,30.6433578029,13.9879538801\H,0,10.3055805627,29.0
 964977254,13.59967462\N,0,13.4575516691,31.4689425827,13.2925274107\C,
 0,12.6260006461,32.1043402958,12.2723217871\C,0,13.3102690419,31.97677
 91885,10.8870728109\O,0,14.4844651721,31.6532428491,10.8136103863\C,0,
 12.3434125536,33.571926683,12.6773696171\C,0,11.2881845036,33.68199900
 39,13.7425612028\C,0,11.3489491027,33.2152581181,15.0375207873\C,0,9.9
 90581061,34.2973751356,13.5913905318\C,0,9.3140893488,34.1673318571,14
 .8353267654\C,0,9.3329913615,34.9357138983,12.5213398393\N,0,10.157028
 3828,33.4858905616,15.6900173003\C,0,8.0204498829,34.6635663698,15.041
 7878703\C,0,8.0438429416,35.4204633522,12.7197178347\C,0,7.3967710097,
 35.2913474874,13.9710227706\H,0,14.3644787666,31.9225876905,13.3849166
 771\H,0,11.6635644408,31.5931341801,12.2363423983\H,0,12.0278673774,34
 .1340344148,11.7934708745\H,0,13.2895282694,34.0285264945,12.993825300
 8\H,0,12.1703591602,32.7434514227,15.5585740186\H,0,10.0102219085,33.3
 830818543,16.6833609027\H,0,9.80801576,35.0459716923,11.5511192127\H,0
 ,7.526736404,34.5681111469,16.0047972827\H,0,7.5337348314,35.931195295
 1,11.9076150927\H,0,6.3985581507,35.6993093081,14.0983800523\N,0,12.55
 3816952,32.2673144634,9.7819572623\C,0,11.1014973669,32.3410533059,9.7
 174833873\C,0,10.5467341776,30.9516660581,9.3274360035\O,0,11.27548047
 59,30.1776779384,8.7147013178\C,0,10.658405811,33.468871591,8.74360056
 62\C,0,10.450695312,33.0145515479,7.3032867422\O,0,9.4651586908,34.011
 0965038,9.3204466401\H,0,8.8566454507,34.2840743452,8.6151226828\H,0,1
 3.004782312,31.965903471,8.9228896022\H,0,10.7278064988,32.6482910861,
 10.6898238107\H,0,11.4497423012,34.229653436,8.7863102902\H,0,11.33745
 16496,32.4983219471,6.9221246088\H,0,10.2599286527,33.8792902421,6.658
 4401541\H,0,9.5977173398,32.3315963472,7.2353284559\N,0,9.2773394434,3
 0.5756467257,9.6667231688\C,0,8.216339968,31.2089050397,10.4483385473\
 C,0,7.4711530075,32.3070240106,9.6551694705\O,0,7.2173892259,32.174129
 0553,8.4853814011\C,0,8.6392110951,31.5169239109,11.8996590865\C,0,7.5
 232305815,31.6579630658,12.9630372671\C,0,6.2700934468,30.8016546606,1
 2.7620197509\N,0,6.5945611934,29.3824880801,12.5812734677\C,0,5.753121
 8673,28.4965787128,12.037552383\N,0,4.4339926556,28.7747916563,11.9723
 052934\N,0,6.2351674936,27.356611264,11.5447170126\O,0,6.9533702033,33
 .3400714836,10.3645595018\H,0,7.5112595386,33.5678781307,11.1305218244
 \H,0,9.0767743519,29.6331377465,9.3474689625\H,0,7.4612327366,30.41898
 45993,10.5040762188\H,0,9.2509697458,32.4181613748,11.9469978178\H,0,9
 .2774097398,30.6815444816,12.1848766701\H,0,7.965179086,31.4308621439,
 13.9405507852\H,0,7.1803240257,32.6933884244,13.0394536149\H,0,5.61520
 13271,30.9371765935,13.6335618254\H,0,5.7205146492,31.1563924569,11.88
 10505782\H,0,7.5658753877,29.0610914011,12.7322920503\H,0,3.8042034612
 ,28.1775955104,11.4571926056\H,0,4.0201389207,29.4795923413,12.5636665
 622\H,0,7.2413608239,27.3233959877,11.2754174096\H,0,5.6143316652,26.6
 151825324,11.2544785032\\Version=ES64L-G16RevC.01\HF=-2054.057279\RMSD
 =6.663e-09\Dipole=-4.4635915,-1.4655334,3.4902751\Quadrupole=-1210.487
 541,1958.0140216,-747.5264806,839.0256038,373.7648523,1495.8829547\PG=
 C01 [X(C26H39N8O8)]\\@
 The archive entry for this job was punched.


 ERWIN WITH HIS PSI CAN DO
 CALCULATIONS QUITE A FEW.
 BUT ONE THING HAS NOT BEEN SEEN
 JUST WHAT DOES PSI REALLY MEAN.
 -- WALTER HUCKEL, TRANS. BY FELIX BLOCH
 Job cpu time:       0 days  0 hours  3 minutes 30.6 seconds.
 Elapsed time:       0 days  0 hours  0 minutes 53.7 seconds.
 File lengths (MBytes):  RWF=    376 Int=      0 D2E=      0 Chk=     56 Scr=     16
 Normal termination of Gaussian 16 at Fri May 27 05:09:55 2022.
