 Entering Gaussian System, Link 0=/opt/software/Gaussian/g16-AVX2-C.01/g16/g16
 Input=charge-conf-234.com
 Output=charge-conf-234.log
 Initial command:
 /opt/software/Gaussian/g16-AVX2-C.01/g16/l1.exe "/mnt/gs18/scratch/users/kengmith/Gau-16193.inp" -scrdir="/mnt/gs18/scratch/users/kengmith/"
 Entering Link 1 = /opt/software/Gaussian/g16-AVX2-C.01/g16/l1.exe PID=     16203.
  
 Copyright (c) 1988-2019, Gaussian, Inc.  All Rights Reserved.
  
 This is part of the Gaussian(R) 16 program.  It is based on
 the Gaussian(R) 09 system (copyright 2009, Gaussian, Inc.),
 the Gaussian(R) 03 system (copyright 2003, Gaussian, Inc.),
 the Gaussian(R) 98 system (copyright 1998, Gaussian, Inc.),
 the Gaussian(R) 94 system (copyright 1995, Gaussian, Inc.),
 the Gaussian 92(TM) system (copyright 1992, Gaussian, Inc.),
 the Gaussian 90(TM) system (copyright 1990, Gaussian, Inc.),
 the Gaussian 88(TM) system (copyright 1988, Gaussian, Inc.),
 the Gaussian 86(TM) system (copyright 1986, Carnegie Mellon
 University), and the Gaussian 82(TM) system (copyright 1983,
 Carnegie Mellon University). Gaussian is a federally registered
 trademark of Gaussian, Inc.
  
 This software contains proprietary and confidential information,
 including trade secrets, belonging to Gaussian, Inc.
  
 This software is provided under written license and may be
 used, copied, transmitted, or stored only in accord with that
 written license.
  
 The following legend is applicable only to US Government
 contracts under FAR:
  
                    RESTRICTED RIGHTS LEGEND
  
 Use, reproduction and disclosure by the US Government is
 subject to restrictions as set forth in subparagraphs (a)
 and (c) of the Commercial Computer Software - Restricted
 Rights clause in FAR 52.227-19.
  
 Gaussian, Inc.
 340 Quinnipiac St., Bldg. 40, Wallingford CT 06492
  
  
 ---------------------------------------------------------------
 Warning -- This program may not be used in any manner that
 competes with the business of Gaussian, Inc. or will provide
 assistance to any competitor of Gaussian, Inc.  The licensee
 of this program is prohibited from giving any competitor of
 Gaussian, Inc. access to this program.  By using this program,
 the user acknowledges that Gaussian, Inc. is engaged in the
 business of creating and licensing software in the field of
 computational chemistry and represents and warrants to the
 licensee that it is not a competitor of Gaussian, Inc. and that
 it will not use this program in any manner prohibited above.
 ---------------------------------------------------------------
  

 Cite this work as:
 Gaussian 16, Revision C.01,
 M. J. Frisch, G. W. Trucks, H. B. Schlegel, G. E. Scuseria, 
 M. A. Robb, J. R. Cheeseman, G. Scalmani, V. Barone, 
 G. A. Petersson, H. Nakatsuji, X. Li, M. Caricato, A. V. Marenich, 
 J. Bloino, B. G. Janesko, R. Gomperts, B. Mennucci, H. P. Hratchian, 
 J. V. Ortiz, A. F. Izmaylov, J. L. Sonnenberg, D. Williams-Young, 
 F. Ding, F. Lipparini, F. Egidi, J. Goings, B. Peng, A. Petrone, 
 T. Henderson, D. Ranasinghe, V. G. Zakrzewski, J. Gao, N. Rega, 
 G. Zheng, W. Liang, M. Hada, M. Ehara, K. Toyota, R. Fukuda, 
 J. Hasegawa, M. Ishida, T. Nakajima, Y. Honda, O. Kitao, H. Nakai, 
 T. Vreven, K. Throssell, J. A. Montgomery, Jr., J. E. Peralta, 
 F. Ogliaro, M. J. Bearpark, J. J. Heyd, E. N. Brothers, K. N. Kudin, 
 V. N. Staroverov, T. A. Keith, R. Kobayashi, J. Normand, 
 K. Raghavachari, A. P. Rendell, J. C. Burant, S. S. Iyengar, 
 J. Tomasi, M. Cossi, J. M. Millam, M. Klene, C. Adamo, R. Cammi, 
 J. W. Ochterski, R. L. Martin, K. Morokuma, O. Farkas, 
 J. B. Foresman, and D. J. Fox, Gaussian, Inc., Wallingford CT, 2019.
 
 ******************************************
 Gaussian 16:  ES64L-G16RevC.01  3-Jul-2019
                27-May-2022 
 ******************************************
 %mem=8gb
 %nproc=4
 Will use up to    4 processors via shared memory.
 %chk=conf-234.chk
 ----------------------------------------------------------------------
 # B3LYP/6-31G* empiricaldispersion=gd3 guess=read geom=check nosymm in
 tegral(ultrafinegrid)
 ----------------------------------------------------------------------
 1/29=2,38=1,172=1/1;
 2/12=2,15=1,40=1/2;
 3/5=1,6=6,7=1,11=2,14=-4,25=1,30=1,74=-5,75=-5,116=-2,124=31/1,2,3;
 4/5=1/1;
 5/5=2,38=6/2;
 6/7=2,8=2,9=2,10=2,28=1/1;
 99/5=1,9=1/99;
 ------------------------------------------------------
 Candidate Structure: Conf:234 Charge calc in gas phase
 ------------------------------------------------------
 Structure from the checkpoint file:  "conf-234.chk"
 Charge =  1 Multiplicity = 1
 Redundant internal coordinates found in file.  (old form).
 N,0,9.0994223042,31.72147208,9.196159015
 C,0,10.0804642709,32.6226633696,8.4839962341
 C,0,11.3835162239,31.950778832,7.9913648455
 O,0,11.6011381545,31.9370445484,6.7881568398
 C,0,10.3791903367,33.8858454104,9.309475474
 C,0,9.218653817,34.8938600459,9.3990640232
 C,0,8.1432990525,34.594581483,10.4471713521
 O,0,7.5881598905,35.5506538824,11.0016330637
 O,0,7.8674565629,33.3495837337,10.7061391352
 H,0,9.5570235118,31.0284155884,9.795087711
 H,0,9.5818779316,32.9184967557,7.5593194118
 H,0,10.731003664,33.6156375631,10.312690283
 H,0,11.224661771,34.3766328738,8.8165111606
 H,0,8.723745243,34.9848920281,8.4217807209
 H,0,9.6110206287,35.887425056,9.6289871885
 H,0,8.4448456477,32.3902420831,9.848024124
 H,0,8.5560808249,31.1678828025,8.5297926569
 N,0,12.3359818449,31.5741927285,8.8986534511
 C,0,12.1988038369,31.0527584987,10.2446559717
 C,0,13.4351791193,31.502577849,11.0518390646
 O,0,14.4710301964,31.7880374877,10.4733543045
 C,0,12.1016812676,29.4944522753,10.2183789379
 C,0,10.8387539688,29.0101487679,9.575980934
 C,0,10.5367767419,28.9824745337,8.2327216759
 C,0,9.6490749142,28.5780198457,10.2758813695
 C,0,8.6533076169,28.3219088849,9.2929570138
 C,0,9.3466580093,28.3433761874,11.6309949175
 N,0,9.2138773782,28.6126836554,8.0588026999
 C,0,7.3749757897,27.859757331,9.624689895
 C,0,8.0830201911,27.8715556412,11.9615782156
 C,0,7.1052369078,27.6394542768,10.970442044
 H,0,13.2422701729,31.385249659,8.478090245
 H,0,11.2994037684,31.472960782,10.701176167
 H,0,12.1630375059,29.1059430885,11.2397283678
 H,0,12.9915068736,29.128010529,9.694234837
 H,0,11.1513787018,29.2326420768,7.3792549156
 H,0,8.8132970715,28.3460331442,7.1702112115
 H,0,10.092611214,28.5010980792,12.4056185055
 H,0,6.6285464413,27.6623675594,8.8606622782
 H,0,7.8411388882,27.6681702128,13.0006500385
 H,0,6.1281985068,27.267081785,11.2627848041
 N,0,13.329707184,31.54026985,12.4159902004
 C,0,12.2105398451,31.1771930217,13.2644161591
 C,0,11.9901182852,32.3155255297,14.2778953568
 O,0,12.9779214494,32.930303838,14.6623614444
 C,0,12.515336888,29.842037921,14.0014182904
 C,0,13.5927587849,29.9204596153,15.0737726825
 O,0,11.2526558315,29.3939367317,14.5489224581
 H,0,11.3909106646,28.5315330561,14.9759363053
 H,0,14.1209786121,31.9632084492,12.8917630681
 H,0,11.3339986413,31.0097868729,12.6472141557
 H,0,12.8232489789,29.1302268881,13.2254895549
 H,0,13.7719382801,28.9246745808,15.4949618607
 H,0,13.3069790525,30.5998740556,15.8807193115
 H,0,14.5368806251,30.2723882784,14.6482129722
 N,0,10.7623102778,32.6077149314,14.8196548785
 C,0,9.3436481852,32.2586003927,14.6317997529
 C,0,8.804637046,31.5241467827,15.8759831397
 O,0,7.7931545376,31.9043436617,16.4421753337
 C,0,8.9731565471,31.5185785556,13.3356654531
 C,0,7.5193821814,31.0109060393,13.2331221796
 C,0,6.374404516,31.9623859086,13.6242098232
 N,0,6.6271392403,33.3520873454,13.2523889101
 C,0,6.479642991,34.413797988,14.0498465797
 N,0,6.3668861991,34.2666596969,15.3854842378
 N,0,6.4180222902,35.633763415,13.4963081715
 O,0,9.4693270739,30.4571643763,16.2926493196
 H,0,10.237743045,30.2531721879,15.7025951426
 H,0,10.8908283418,33.3430269235,15.509865199
 H,0,8.8132597931,33.2114970708,14.6226006003
 H,0,9.5947121435,30.631409324,13.2228705884
 H,0,9.1782348695,32.1991682617,12.5015158249
 H,0,7.3862765754,30.6842961111,12.1974225638
 H,0,7.4063342536,30.1060942694,13.8412404196
 H,0,5.455034527,31.630134231,13.1270564179
 H,0,6.1900301981,31.9036238847,14.6935262746
 H,0,6.8876725475,33.5077326922,12.2682710966
 H,0,6.1628235526,35.0732087749,15.9568813024
 H,0,6.741667253,33.4401464802,15.8560909229
 H,0,6.6615786273,35.7058278125,12.4943821514
 H,0,6.624935451,36.4393329295,14.0705132916
 Recover connectivity data from disk.
                           ----------------------------
                           !    Current Parameters    !
                           ! (Angstroms and Degrees)  !
 --------------------------                            --------------------------
 ! Name  Definition              Value                                          !
 --------------------------------------------------------------------------------
 ! R1    R(1,2)                  1.5106                                         !
 ! R2    R(1,10)                 1.0239                                         !
 ! R3    R(1,16)                 1.1405                                         !
 ! R4    R(1,17)                 1.0226                                         !
 ! R5    R(2,3)                  1.5466                                         !
 ! R6    R(2,5)                  1.5383                                         !
 ! R7    R(2,11)                 1.0914                                         !
 ! R8    R(3,4)                  1.2228                                         !
 ! R9    R(3,18)                 1.3683                                         !
 ! R10   R(5,6)                  1.5398                                         !
 ! R11   R(5,12)                 1.0969                                         !
 ! R12   R(5,13)                 1.0949                                         !
 ! R13   R(6,7)                  1.5312                                         !
 ! R14   R(6,14)                 1.0992                                         !
 ! R15   R(6,15)                 1.0927                                         !
 ! R16   R(7,8)                  1.2368                                         !
 ! R17   R(7,9)                  1.3012                                         !
 ! R18   R(18,19)                1.45                                           !
 ! R19   R(18,32)                1.0168                                         !
 ! R20   R(19,20)                1.5435                                         !
 ! R21   R(19,22)                1.5616                                         !
 ! R22   R(19,33)                1.0927                                         !
 ! R23   R(20,21)                1.2203                                         !
 ! R24   R(20,42)                1.3687                                         !
 ! R25   R(22,23)                1.4974                                         !
 ! R26   R(22,34)                1.0945                                         !
 ! R27   R(22,35)                1.0958                                         !
 ! R28   R(23,24)                1.3771                                         !
 ! R29   R(23,25)                1.4464                                         !
 ! R30   R(24,28)                1.3846                                         !
 ! R31   R(24,36)                1.0811                                         !
 ! R32   R(25,26)                1.4224                                         !
 ! R33   R(25,27)                1.4081                                         !
 ! R34   R(26,28)                1.3863                                         !
 ! R35   R(26,29)                1.3992                                         !
 ! R36   R(27,30)                1.3888                                         !
 ! R37   R(27,38)                1.0869                                         !
 ! R38   R(28,37)                1.0105                                         !
 ! R39   R(29,31)                1.3901                                         !
 ! R40   R(29,39)                1.0862                                         !
 ! R41   R(30,31)                1.4115                                         !
 ! R42   R(30,40)                1.0861                                         !
 ! R43   R(31,41)                1.0857                                         !
 ! R44   R(42,43)                1.4506                                         !
 ! R45   R(42,50)                1.0156                                         !
 ! R46   R(43,44)                1.54                                           !
 ! R47   R(43,46)                1.5552                                         !
 ! R48   R(43,51)                1.085                                          !
 ! R49   R(44,45)                1.2254                                         !
 ! R50   R(44,56)                1.3735                                         !
 ! R51   R(46,47)                1.5221                                         !
 ! R52   R(46,48)                1.4474                                         !
 ! R53   R(46,52)                1.0971                                         !
 ! R54   R(47,53)                1.0959                                         !
 ! R55   R(47,54)                1.0929                                         !
 ! R56   R(47,55)                1.0938                                         !
 ! R57   R(48,49)                0.9722                                         !
 ! R58   R(56,57)                1.473                                          !
 ! R59   R(56,69)                1.0167                                         !
 ! R60   R(57,58)                1.5421                                         !
 ! R61   R(57,60)                1.5378                                         !
 ! R62   R(57,70)                1.0906                                         !
 ! R63   R(58,59)                1.2199                                         !
 ! R64   R(58,67)                1.3243                                         !
 ! R65   R(60,61)                1.5433                                         !
 ! R66   R(60,71)                1.0891                                         !
 ! R67   R(60,72)                1.0959                                         !
 ! R68   R(61,62)                1.5392                                         !
 ! R69   R(61,73)                1.0941                                         !
 ! R70   R(61,74)                1.096                                          !
 ! R71   R(62,63)                1.4606                                         !
 ! R72   R(62,75)                1.0967                                         !
 ! R73   R(62,76)                1.0867                                         !
 ! R74   R(63,64)                1.336                                          !
 ! R75   R(63,77)                1.0298                                         !
 ! R76   R(64,65)                1.3484                                         !
 ! R77   R(64,66)                1.3411                                         !
 ! R78   R(65,78)                1.0093                                         !
 ! R79   R(65,79)                1.0223                                         !
 ! R80   R(66,80)                1.0336                                         !
 ! R81   R(66,81)                1.0107                                         !
 ! R82   R(67,68)                0.9901                                         !
 ! A1    A(2,1,10)             112.9131                                         !
 ! A2    A(2,1,16)             107.0012                                         !
 ! A3    A(2,1,17)             111.151                                          !
 ! A4    A(10,1,16)            108.6074                                         !
 ! A5    A(10,1,17)            104.6076                                         !
 ! A6    A(16,1,17)            112.6407                                         !
 ! A7    A(1,2,3)              115.9874                                         !
 ! A8    A(1,2,5)              111.2865                                         !
 ! A9    A(1,2,11)             105.3349                                         !
 ! A10   A(3,2,5)              111.3489                                         !
 ! A11   A(3,2,11)             103.4607                                         !
 ! A12   A(5,2,11)             108.7104                                         !
 ! A13   A(2,3,4)              117.9198                                         !
 ! A14   A(2,3,18)             119.6588                                         !
 ! A15   A(4,3,18)             121.7008                                         !
 ! A16   A(2,5,6)              114.9881                                         !
 ! A17   A(2,5,12)             110.5356                                         !
 ! A18   A(2,5,13)             106.0482                                         !
 ! A19   A(6,5,12)             110.4739                                         !
 ! A20   A(6,5,13)             108.3465                                         !
 ! A21   A(12,5,13)            105.9347                                         !
 ! A22   A(5,6,7)              116.1804                                         !
 ! A23   A(5,6,14)             109.9881                                         !
 ! A24   A(5,6,15)             109.6855                                         !
 ! A25   A(7,6,14)             107.9725                                         !
 ! A26   A(7,6,15)             106.6113                                         !
 ! A27   A(14,6,15)            105.8693                                         !
 ! A28   A(6,7,8)              118.0998                                         !
 ! A29   A(6,7,9)              118.1723                                         !
 ! A30   A(8,7,9)              123.7278                                         !
 ! A31   A(3,18,19)            130.4406                                         !
 ! A32   A(3,18,32)            113.4107                                         !
 ! A33   A(19,18,32)           113.6686                                         !
 ! A34   A(18,19,20)           107.75                                           !
 ! A35   A(18,19,22)           110.4342                                         !
 ! A36   A(18,19,33)           109.1125                                         !
 ! A37   A(20,19,22)           110.4527                                         !
 ! A38   A(20,19,33)           109.194                                          !
 ! A39   A(22,19,33)           109.8528                                         !
 ! A40   A(19,20,21)           120.0133                                         !
 ! A41   A(19,20,42)           117.8716                                         !
 ! A42   A(21,20,42)           122.1023                                         !
 ! A43   A(19,22,23)           112.4845                                         !
 ! A44   A(19,22,34)           109.5755                                         !
 ! A45   A(19,22,35)           106.9329                                         !
 ! A46   A(23,22,34)           109.4401                                         !
 ! A47   A(23,22,35)           111.8091                                         !
 ! A48   A(34,22,35)           106.3877                                         !
 ! A49   A(22,23,24)           127.5844                                         !
 ! A50   A(22,23,25)           125.6456                                         !
 ! A51   A(24,23,25)           106.5977                                         !
 ! A52   A(23,24,28)           109.7196                                         !
 ! A53   A(23,24,36)           129.8487                                         !
 ! A54   A(28,24,36)           120.386                                          !
 ! A55   A(23,25,26)           107.1709                                         !
 ! A56   A(23,25,27)           133.7985                                         !
 ! A57   A(26,25,27)           118.9897                                         !
 ! A58   A(25,26,28)           107.1176                                         !
 ! A59   A(25,26,29)           122.3585                                         !
 ! A60   A(28,26,29)           130.5238                                         !
 ! A61   A(25,27,30)           118.7575                                         !
 ! A62   A(25,27,38)           120.9491                                         !
 ! A63   A(30,27,38)           120.2731                                         !
 ! A64   A(24,28,26)           109.3013                                         !
 ! A65   A(24,28,37)           124.0336                                         !
 ! A66   A(26,28,37)           124.5534                                         !
 ! A67   A(26,29,31)           117.3325                                         !
 ! A68   A(26,29,39)           121.4048                                         !
 ! A69   A(31,29,39)           121.2524                                         !
 ! A70   A(27,30,31)           121.2674                                         !
 ! A71   A(27,30,40)           119.6044                                         !
 ! A72   A(31,30,40)           119.1262                                         !
 ! A73   A(29,31,30)           121.2865                                         !
 ! A74   A(29,31,41)           119.3183                                         !
 ! A75   A(30,31,41)           119.3884                                         !
 ! A76   A(20,42,43)           129.456                                          !
 ! A77   A(20,42,50)           114.7301                                         !
 ! A78   A(43,42,50)           115.5544                                         !
 ! A79   A(42,43,44)           108.0795                                         !
 ! A80   A(42,43,46)           109.9283                                         !
 ! A81   A(42,43,51)           109.2199                                         !
 ! A82   A(44,43,46)           110.5345                                         !
 ! A83   A(44,43,51)           111.8869                                         !
 ! A84   A(46,43,51)           107.1836                                         !
 ! A85   A(43,44,45)           117.5138                                         !
 ! A86   A(43,44,56)           123.0111                                         !
 ! A87   A(45,44,56)           119.3502                                         !
 ! A88   A(43,46,47)           115.3628                                         !
 ! A89   A(43,46,48)           105.9067                                         !
 ! A90   A(43,46,52)           106.0727                                         !
 ! A91   A(47,46,48)           111.5283                                         !
 ! A92   A(47,46,52)           109.4534                                         !
 ! A93   A(48,46,52)           108.1509                                         !
 ! A94   A(46,47,53)           109.8565                                         !
 ! A95   A(46,47,54)           111.5375                                         !
 ! A96   A(46,47,55)           110.6991                                         !
 ! A97   A(53,47,54)           108.8951                                         !
 ! A98   A(53,47,55)           107.5031                                         !
 ! A99   A(54,47,55)           108.2379                                         !
 ! A100  A(46,48,49)           108.4641                                         !
 ! A101  A(44,56,57)           139.4855                                         !
 ! A102  A(44,56,69)           107.978                                          !
 ! A103  A(57,56,69)           112.3181                                         !
 ! A104  A(56,57,58)           110.2812                                         !
 ! A105  A(56,57,60)           116.9731                                         !
 ! A106  A(56,57,70)           105.2111                                         !
 ! A107  A(58,57,60)           111.5078                                         !
 ! A108  A(58,57,70)           104.6527                                         !
 ! A109  A(60,57,70)           107.2284                                         !
 ! A110  A(57,58,59)           121.0541                                         !
 ! A111  A(57,58,67)           117.5252                                         !
 ! A112  A(59,58,67)           121.4138                                         !
 ! A113  A(57,60,61)           116.1838                                         !
 ! A114  A(57,60,71)           109.9861                                         !
 ! A115  A(57,60,72)           107.3129                                         !
 ! A116  A(61,60,71)           105.234                                          !
 ! A117  A(61,60,72)           109.2681                                         !
 ! A118  A(71,60,72)           108.6781                                         !
 ! A119  A(60,61,62)           118.7177                                         !
 ! A120  A(60,61,73)           106.0037                                         !
 ! A121  A(60,61,74)           109.3819                                         !
 ! A122  A(62,61,73)           109.5452                                         !
 ! A123  A(62,61,74)           107.0143                                         !
 ! A124  A(73,61,74)           105.4403                                         !
 ! A125  A(61,62,63)           113.2503                                         !
 ! A126  A(61,62,75)           108.7311                                         !
 ! A127  A(61,62,76)           110.0476                                         !
 ! A128  A(63,62,75)           108.5358                                         !
 ! A129  A(63,62,76)           109.3479                                         !
 ! A130  A(75,62,76)           106.7055                                         !
 ! A131  A(62,63,64)           125.8068                                         !
 ! A132  A(62,63,77)           115.5203                                         !
 ! A133  A(64,63,77)           118.5688                                         !
 ! A134  A(63,64,65)           120.9136                                         !
 ! A135  A(63,64,66)           118.791                                          !
 ! A136  A(65,64,66)           120.2819                                         !
 ! A137  A(64,65,78)           119.3717                                         !
 ! A138  A(64,65,79)           120.9002                                         !
 ! A139  A(78,65,79)           117.3611                                         !
 ! A140  A(64,66,80)           116.9166                                         !
 ! A141  A(64,66,81)           118.7614                                         !
 ! A142  A(80,66,81)           116.5454                                         !
 ! A143  A(58,67,68)           111.5943                                         !
 ! D1    D(10,1,2,3)            37.7294                                         !
 ! D2    D(10,1,2,5)           -90.9211                                         !
 ! D3    D(10,1,2,11)          151.4449                                         !
 ! D4    D(16,1,2,3)           157.1675                                         !
 ! D5    D(16,1,2,5)            28.517                                          !
 ! D6    D(16,1,2,11)          -89.117                                          !
 ! D7    D(17,1,2,3)           -79.4715                                         !
 ! D8    D(17,1,2,5)           151.878                                          !
 ! D9    D(17,1,2,11)           34.244                                          !
 ! D10   D(1,2,3,4)            117.5706                                         !
 ! D11   D(1,2,3,18)           -71.9871                                         !
 ! D12   D(5,2,3,4)           -113.8094                                         !
 ! D13   D(5,2,3,18)            56.633                                          !
 ! D14   D(11,2,3,4)             2.787                                          !
 ! D15   D(11,2,3,18)          173.2293                                         !
 ! D16   D(1,2,5,6)            -70.658                                          !
 ! D17   D(1,2,5,12)            55.2632                                         !
 ! D18   D(1,2,5,13)           169.6449                                         !
 ! D19   D(3,2,5,6)            158.2563                                         !
 ! D20   D(3,2,5,12)           -75.8226                                         !
 ! D21   D(3,2,5,13)            38.5592                                         !
 ! D22   D(11,2,5,6)            44.9121                                         !
 ! D23   D(11,2,5,12)          170.8332                                         !
 ! D24   D(11,2,5,13)          -74.785                                          !
 ! D25   D(2,3,18,19)           35.2438                                         !
 ! D26   D(2,3,18,32)         -164.0575                                         !
 ! D27   D(4,3,18,19)         -154.6859                                         !
 ! D28   D(4,3,18,32)            6.0128                                         !
 ! D29   D(2,5,6,7)             81.8057                                         !
 ! D30   D(2,5,6,14)           -41.1984                                         !
 ! D31   D(2,5,6,15)          -157.2489                                         !
 ! D32   D(12,5,6,7)           -44.1473                                         !
 ! D33   D(12,5,6,14)         -167.1514                                         !
 ! D34   D(12,5,6,15)           76.7981                                         !
 ! D35   D(13,5,6,7)          -159.7776                                         !
 ! D36   D(13,5,6,14)           77.2183                                         !
 ! D37   D(13,5,6,15)          -38.8322                                         !
 ! D38   D(5,6,7,8)            146.8284                                         !
 ! D39   D(5,6,7,9)            -33.0217                                         !
 ! D40   D(14,6,7,8)           -89.1212                                         !
 ! D41   D(14,6,7,9)            91.0287                                         !
 ! D42   D(15,6,7,8)            24.2548                                         !
 ! D43   D(15,6,7,9)          -155.5952                                         !
 ! D44   D(3,18,19,20)        -149.7862                                         !
 ! D45   D(3,18,19,22)          89.4966                                         !
 ! D46   D(3,18,19,33)         -31.3445                                         !
 ! D47   D(32,18,19,20)         49.5545                                         !
 ! D48   D(32,18,19,22)        -71.1627                                         !
 ! D49   D(32,18,19,33)        167.9961                                         !
 ! D50   D(18,19,20,21)        -23.3785                                         !
 ! D51   D(18,19,20,42)        157.8974                                         !
 ! D52   D(22,19,20,21)         97.3271                                         !
 ! D53   D(22,19,20,42)        -81.397                                          !
 ! D54   D(33,19,20,21)       -141.7678                                         !
 ! D55   D(33,19,20,42)         39.5081                                         !
 ! D56   D(18,19,22,23)        -67.1903                                         !
 ! D57   D(18,19,22,34)        170.8394                                         !
 ! D58   D(18,19,22,35)         55.9242                                         !
 ! D59   D(20,19,22,23)        173.7201                                         !
 ! D60   D(20,19,22,34)         51.7498                                         !
 ! D61   D(20,19,22,35)        -63.1654                                         !
 ! D62   D(33,19,22,23)         53.2084                                         !
 ! D63   D(33,19,22,34)        -68.762                                          !
 ! D64   D(33,19,22,35)        176.3228                                         !
 ! D65   D(19,20,42,43)          1.9279                                         !
 ! D66   D(19,20,42,50)       -171.8869                                         !
 ! D67   D(21,20,42,43)       -176.7678                                         !
 ! D68   D(21,20,42,50)          9.4174                                         !
 ! D69   D(19,22,23,24)         75.5148                                         !
 ! D70   D(19,22,23,25)        -99.0645                                         !
 ! D71   D(34,22,23,24)       -162.4381                                         !
 ! D72   D(34,22,23,25)         22.9826                                         !
 ! D73   D(35,22,23,24)        -44.8257                                         !
 ! D74   D(35,22,23,25)        140.595                                          !
 ! D75   D(22,23,24,28)       -172.93                                           !
 ! D76   D(22,23,24,36)          4.5685                                         !
 ! D77   D(25,23,24,28)          2.4753                                         !
 ! D78   D(25,23,24,36)        179.9738                                         !
 ! D79   D(22,23,25,26)        174.6807                                         !
 ! D80   D(22,23,25,27)         -7.7589                                         !
 ! D81   D(24,23,25,26)         -0.8389                                         !
 ! D82   D(24,23,25,27)        176.7214                                         !
 ! D83   D(23,24,28,26)         -3.2479                                         !
 ! D84   D(23,24,28,37)       -167.3376                                         !
 ! D85   D(36,24,28,26)        178.9783                                         !
 ! D86   D(36,24,28,37)         14.8886                                         !
 ! D87   D(23,25,26,28)         -1.0795                                         !
 ! D88   D(23,25,26,29)        178.7981                                         !
 ! D89   D(27,25,26,28)       -179.0666                                         !
 ! D90   D(27,25,26,29)          0.811                                          !
 ! D91   D(23,25,27,30)       -177.4619                                         !
 ! D92   D(23,25,27,38)          0.9024                                         !
 ! D93   D(26,25,27,30)         -0.1268                                         !
 ! D94   D(26,25,27,38)        178.2375                                         !
 ! D95   D(25,26,28,24)          2.6218                                         !
 ! D96   D(25,26,28,37)        166.6101                                         !
 ! D97   D(29,26,28,24)       -177.2423                                         !
 ! D98   D(29,26,28,37)        -13.254                                          !
 ! D99   D(25,26,29,31)         -0.7015                                         !
 ! D100  D(25,26,29,39)       -179.5516                                         !
 ! D101  D(28,26,29,31)        179.1447                                         !
 ! D102  D(28,26,29,39)          0.2946                                         !
 ! D103  D(25,27,30,31)         -0.6268                                         !
 ! D104  D(25,27,30,40)        178.8595                                         !
 ! D105  D(38,27,30,31)       -179.0025                                         !
 ! D106  D(38,27,30,40)          0.4838                                         !
 ! D107  D(26,29,31,30)         -0.0709                                         !
 ! D108  D(26,29,31,41)       -179.1195                                         !
 ! D109  D(39,29,31,30)        178.7811                                         !
 ! D110  D(39,29,31,41)         -0.2675                                         !
 ! D111  D(27,30,31,29)          0.7444                                         !
 ! D112  D(27,30,31,41)        179.7924                                         !
 ! D113  D(40,30,31,29)       -178.7443                                         !
 ! D114  D(40,30,31,41)          0.3037                                         !
 ! D115  D(20,42,43,44)       -131.8889                                         !
 ! D116  D(20,42,43,46)        107.3907                                         !
 ! D117  D(20,42,43,51)         -9.9446                                         !
 ! D118  D(50,42,43,44)         41.8838                                         !
 ! D119  D(50,42,43,46)        -78.8366                                         !
 ! D120  D(50,42,43,51)        163.8281                                         !
 ! D121  D(42,43,44,45)        -32.9639                                         !
 ! D122  D(42,43,44,56)        151.1316                                         !
 ! D123  D(46,43,44,45)         87.3777                                         !
 ! D124  D(46,43,44,56)        -88.5268                                         !
 ! D125  D(51,43,44,45)       -153.2514                                         !
 ! D126  D(51,43,44,56)         30.8441                                         !
 ! D127  D(42,43,46,47)         69.8272                                         !
 ! D128  D(42,43,46,48)       -166.299                                          !
 ! D129  D(42,43,46,52)        -51.5143                                         !
 ! D130  D(44,43,46,47)        -49.4019                                         !
 ! D131  D(44,43,46,48)         74.4719                                         !
 ! D132  D(44,43,46,52)       -170.7434                                         !
 ! D133  D(51,43,46,47)       -171.5763                                         !
 ! D134  D(51,43,46,48)        -47.7025                                         !
 ! D135  D(51,43,46,52)         67.0823                                         !
 ! D136  D(43,44,56,57)        -10.6103                                         !
 ! D137  D(43,44,56,69)        175.5111                                         !
 ! D138  D(45,44,56,57)        173.557                                          !
 ! D139  D(45,44,56,69)         -0.3216                                         !
 ! D140  D(43,46,47,53)       -176.9796                                         !
 ! D141  D(43,46,47,54)         62.1779                                         !
 ! D142  D(43,46,47,55)        -58.4059                                         !
 ! D143  D(48,46,47,53)         62.1531                                         !
 ! D144  D(48,46,47,54)        -58.6895                                         !
 ! D145  D(48,46,47,55)       -179.2732                                         !
 ! D146  D(52,46,47,53)        -57.4831                                         !
 ! D147  D(52,46,47,54)       -178.3256                                         !
 ! D148  D(52,46,47,55)         61.0906                                         !
 ! D149  D(43,46,48,49)        176.7594                                         !
 ! D150  D(47,46,48,49)        -56.9965                                         !
 ! D151  D(52,46,48,49)         63.4072                                         !
 ! D152  D(44,56,57,58)        115.8697                                         !
 ! D153  D(44,56,57,60)        -12.9328                                         !
 ! D154  D(44,56,57,70)       -131.7999                                         !
 ! D155  D(69,56,57,58)        -70.4249                                         !
 ! D156  D(69,56,57,60)        160.7726                                         !
 ! D157  D(69,56,57,70)         41.9055                                         !
 ! D158  D(56,57,58,59)        127.2754                                         !
 ! D159  D(56,57,58,67)        -53.6748                                         !
 ! D160  D(60,57,58,59)       -101.0143                                         !
 ! D161  D(60,57,58,67)         78.0355                                         !
 ! D162  D(70,57,58,59)         14.5856                                         !
 ! D163  D(70,57,58,67)       -166.3646                                         !
 ! D164  D(56,57,60,61)        172.8491                                         !
 ! D165  D(56,57,60,71)         53.4817                                         !
 ! D166  D(56,57,60,72)        -64.573                                          !
 ! D167  D(58,57,60,61)         44.6351                                         !
 ! D168  D(58,57,60,71)        -74.7323                                         !
 ! D169  D(58,57,60,72)        167.213                                          !
 ! D170  D(70,57,60,61)        -69.3728                                         !
 ! D171  D(70,57,60,71)        171.2599                                         !
 ! D172  D(70,57,60,72)         53.2051                                         !
 ! D173  D(57,58,67,68)         -1.9586                                         !
 ! D174  D(59,58,67,68)        177.0875                                         !
 ! D175  D(57,60,61,62)         46.23                                           !
 ! D176  D(57,60,61,73)        169.8714                                         !
 ! D177  D(57,60,61,74)        -76.8932                                         !
 ! D178  D(71,60,61,62)        168.1447                                         !
 ! D179  D(71,60,61,73)        -68.2139                                         !
 ! D180  D(71,60,61,74)         45.0216                                         !
 ! D181  D(72,60,61,62)        -75.3161                                         !
 ! D182  D(72,60,61,73)         48.3253                                         !
 ! D183  D(72,60,61,74)        161.5607                                         !
 ! D184  D(60,61,62,63)         36.3785                                         !
 ! D185  D(60,61,62,75)        157.1111                                         !
 ! D186  D(60,61,62,76)        -86.3476                                         !
 ! D187  D(73,61,62,63)        -85.4981                                         !
 ! D188  D(73,61,62,75)         35.2345                                         !
 ! D189  D(73,61,62,76)        151.7758                                         !
 ! D190  D(74,61,62,63)        160.6686                                         !
 ! D191  D(74,61,62,75)        -78.5989                                         !
 ! D192  D(74,61,62,76)         37.9424                                         !
 ! D193  D(61,62,63,64)       -131.5339                                         !
 ! D194  D(61,62,63,77)         52.2492                                         !
 ! D195  D(75,62,63,64)        107.623                                          !
 ! D196  D(75,62,63,77)        -68.5938                                         !
 ! D197  D(76,62,63,64)         -8.4208                                         !
 ! D198  D(76,62,63,77)        175.3623                                         !
 ! D199  D(62,63,64,65)         15.3379                                         !
 ! D200  D(62,63,64,66)       -163.3293                                         !
 ! D201  D(77,63,64,65)       -168.5496                                         !
 ! D202  D(77,63,64,66)         12.7832                                         !
 ! D203  D(63,64,65,78)       -173.8286                                         !
 ! D204  D(63,64,65,79)         24.0944                                         !
 ! D205  D(66,64,65,78)          4.8187                                         !
 ! D206  D(66,64,65,79)       -157.2583                                         !
 ! D207  D(63,64,66,80)        -10.9451                                         !
 ! D208  D(63,64,66,81)       -159.2004                                         !
 ! D209  D(65,64,66,80)        170.3791                                         !
 ! D210  D(65,64,66,81)         22.1238                                         !
 --------------------------------------------------------------------------------
 Symmetry turned off by external request.
 Stoichiometry    C26H39N8O8(1+)
 Framework group  C1[X(C26H39N8O8)]
 Deg. of freedom   237
 Full point group                 C1      NOp   1
                          Input orientation:                          
 ---------------------------------------------------------------------
 Center     Atomic      Atomic             Coordinates (Angstroms)
 Number     Number       Type             X           Y           Z
 ---------------------------------------------------------------------
      1          7           0        9.099422   31.721472    9.196159
      2          6           0       10.080464   32.622663    8.483996
      3          6           0       11.383516   31.950779    7.991365
      4          8           0       11.601138   31.937045    6.788157
      5          6           0       10.379190   33.885845    9.309475
      6          6           0        9.218654   34.893860    9.399064
      7          6           0        8.143299   34.594581   10.447171
      8          8           0        7.588160   35.550654   11.001633
      9          8           0        7.867457   33.349584   10.706139
     10          1           0        9.557024   31.028416    9.795088
     11          1           0        9.581878   32.918497    7.559319
     12          1           0       10.731004   33.615638   10.312690
     13          1           0       11.224662   34.376633    8.816511
     14          1           0        8.723745   34.984892    8.421781
     15          1           0        9.611021   35.887425    9.628987
     16          1           0        8.444846   32.390242    9.848024
     17          1           0        8.556081   31.167883    8.529793
     18          7           0       12.335982   31.574193    8.898653
     19          6           0       12.198804   31.052758   10.244656
     20          6           0       13.435179   31.502578   11.051839
     21          8           0       14.471030   31.788037   10.473354
     22          6           0       12.101681   29.494452   10.218379
     23          6           0       10.838754   29.010149    9.575981
     24          6           0       10.536777   28.982475    8.232722
     25          6           0        9.649075   28.578020   10.275881
     26          6           0        8.653308   28.321909    9.292957
     27          6           0        9.346658   28.343376   11.630995
     28          7           0        9.213877   28.612684    8.058803
     29          6           0        7.374976   27.859757    9.624690
     30          6           0        8.083020   27.871556   11.961578
     31          6           0        7.105237   27.639454   10.970442
     32          1           0       13.242270   31.385250    8.478090
     33          1           0       11.299404   31.472961   10.701176
     34          1           0       12.163038   29.105943   11.239728
     35          1           0       12.991507   29.128011    9.694235
     36          1           0       11.151379   29.232642    7.379255
     37          1           0        8.813297   28.346033    7.170211
     38          1           0       10.092611   28.501098   12.405619
     39          1           0        6.628546   27.662368    8.860662
     40          1           0        7.841139   27.668170   13.000650
     41          1           0        6.128199   27.267082   11.262785
     42          7           0       13.329707   31.540270   12.415990
     43          6           0       12.210540   31.177193   13.264416
     44          6           0       11.990118   32.315526   14.277895
     45          8           0       12.977921   32.930304   14.662361
     46          6           0       12.515337   29.842038   14.001418
     47          6           0       13.592759   29.920460   15.073773
     48          8           0       11.252656   29.393937   14.548922
     49          1           0       11.390911   28.531533   14.975936
     50          1           0       14.120979   31.963208   12.891763
     51          1           0       11.333999   31.009787   12.647214
     52          1           0       12.823249   29.130227   13.225490
     53          1           0       13.771938   28.924675   15.494962
     54          1           0       13.306979   30.599874   15.880719
     55          1           0       14.536881   30.272388   14.648213
     56          7           0       10.762310   32.607715   14.819655
     57          6           0        9.343648   32.258600   14.631800
     58          6           0        8.804637   31.524147   15.875983
     59          8           0        7.793155   31.904344   16.442175
     60          6           0        8.973157   31.518579   13.335665
     61          6           0        7.519382   31.010906   13.233122
     62          6           0        6.374405   31.962386   13.624210
     63          7           0        6.627139   33.352087   13.252389
     64          6           0        6.479643   34.413798   14.049847
     65          7           0        6.366886   34.266660   15.385484
     66          7           0        6.418022   35.633763   13.496308
     67          8           0        9.469327   30.457164   16.292649
     68          1           0       10.237743   30.253172   15.702595
     69          1           0       10.890828   33.343027   15.509865
     70          1           0        8.813260   33.211497   14.622601
     71          1           0        9.594712   30.631409   13.222871
     72          1           0        9.178235   32.199168   12.501516
     73          1           0        7.386277   30.684296   12.197423
     74          1           0        7.406334   30.106094   13.841240
     75          1           0        5.455035   31.630134   13.127056
     76          1           0        6.190030   31.903624   14.693526
     77          1           0        6.887673   33.507733   12.268271
     78          1           0        6.162824   35.073209   15.956881
     79          1           0        6.741667   33.440146   15.856091
     80          1           0        6.661579   35.705828   12.494382
     81          1           0        6.624935   36.439333   14.070513
 ---------------------------------------------------------------------
 Rotational constants (GHZ):           0.0936727           0.0730592           0.0654658
 Standard basis: 6-31G(d) (6D, 7F)
   708 basis functions,  1332 primitive gaussians,   708 cartesian basis functions
   157 alpha electrons      157 beta electrons
       nuclear repulsion energy      5753.3702280671 Hartrees.
 NAtoms=   81 NActive=   81 NUniq=   81 SFac= 1.00D+00 NAtFMM=   60 NAOKFM=T Big=T
 Integral buffers will be    131072 words long.
 Raffenetti 2 integral format.
 Two-electron integral symmetry is turned off.
 Nuclear repulsion after empirical dispersion term =     5753.2380565705 Hartrees.
 One-electron integrals computed using PRISM.
 NBasis=   708 RedAO= T EigKep=  3.56D-04  NBF=   708
 NBsUse=   708 1.00D-06 EigRej= -1.00D+00 NBFU=   708
 Initial guess from the checkpoint file:  "conf-234.chk"
 B after Tr=     0.000000    0.000000    0.000000
         Rot=    1.000000    0.000000    0.000000    0.000000 Ang=   0.00 deg.
 Requested convergence on RMS density matrix=1.00D-08 within 128 cycles.
 Requested convergence on MAX density matrix=1.00D-06.
 Requested convergence on             energy=1.00D-06.
 No special actions if energy rises.
 SCF Done:  E(RB3LYP) =  -2054.06929128     A.U. after    3 cycles
            NFock=  3  Conv=0.12D-08     -V/T= 2.0093

 **********************************************************************

            Population analysis using the SCF Density.

 **********************************************************************

 Alpha  occ. eigenvalues --  -19.30308 -19.29426 -19.24996 -19.23142 -19.22995
 Alpha  occ. eigenvalues --  -19.22242 -19.22066 -19.20974 -14.53283 -14.49532
 Alpha  occ. eigenvalues --  -14.48373 -14.47842 -14.47575 -14.46959 -14.46754
 Alpha  occ. eigenvalues --  -14.46599 -10.44336 -10.43128 -10.41027 -10.40235
 Alpha  occ. eigenvalues --  -10.39879 -10.39476 -10.37396 -10.36591 -10.36394
 Alpha  occ. eigenvalues --  -10.36257 -10.36046 -10.33381 -10.33258 -10.33207
 Alpha  occ. eigenvalues --  -10.31380 -10.31369 -10.31209 -10.30328 -10.29988
 Alpha  occ. eigenvalues --  -10.29943 -10.29800 -10.29631 -10.29267 -10.29169
 Alpha  occ. eigenvalues --  -10.28972 -10.28792  -1.21016  -1.16872  -1.15496
 Alpha  occ. eigenvalues --   -1.15221  -1.14724  -1.14031  -1.12841  -1.12473
 Alpha  occ. eigenvalues --   -1.09466  -1.08789  -1.05949  -1.04116  -1.03666
 Alpha  occ. eigenvalues --   -1.03463  -1.02212  -1.00593  -0.94957  -0.92110
 Alpha  occ. eigenvalues --   -0.91795  -0.90975  -0.89847  -0.87124  -0.86009
 Alpha  occ. eigenvalues --   -0.84552  -0.83295  -0.83251  -0.82696  -0.80016
 Alpha  occ. eigenvalues --   -0.78378  -0.75602  -0.74577  -0.74281  -0.73173
 Alpha  occ. eigenvalues --   -0.72830  -0.72458  -0.71850  -0.70278  -0.70221
 Alpha  occ. eigenvalues --   -0.69742  -0.69210  -0.68211  -0.67308  -0.66681
 Alpha  occ. eigenvalues --   -0.66132  -0.65765  -0.64835  -0.64567  -0.63724
 Alpha  occ. eigenvalues --   -0.62923  -0.62293  -0.61365  -0.61228  -0.60362
 Alpha  occ. eigenvalues --   -0.59748  -0.59613  -0.59208  -0.58812  -0.58239
 Alpha  occ. eigenvalues --   -0.57735  -0.57440  -0.57156  -0.56984  -0.56698
 Alpha  occ. eigenvalues --   -0.55812  -0.55484  -0.55047  -0.54674  -0.54184
 Alpha  occ. eigenvalues --   -0.54068  -0.53873  -0.53681  -0.53318  -0.52820
 Alpha  occ. eigenvalues --   -0.52657  -0.52404  -0.52033  -0.51642  -0.51205
 Alpha  occ. eigenvalues --   -0.51143  -0.50935  -0.50005  -0.49776  -0.49312
 Alpha  occ. eigenvalues --   -0.48976  -0.48775  -0.48574  -0.48408  -0.47954
 Alpha  occ. eigenvalues --   -0.47405  -0.47030  -0.46741  -0.46466  -0.46192
 Alpha  occ. eigenvalues --   -0.45609  -0.45489  -0.45164  -0.44374  -0.44114
 Alpha  occ. eigenvalues --   -0.42110  -0.41992  -0.40037  -0.39160  -0.39073
 Alpha  occ. eigenvalues --   -0.38219  -0.37793  -0.37435  -0.37014  -0.36760
 Alpha  occ. eigenvalues --   -0.36334  -0.36120  -0.35781  -0.35174  -0.34578
 Alpha  occ. eigenvalues --   -0.33597  -0.31657
 Alpha virt. eigenvalues --   -0.12566  -0.11425  -0.10292  -0.09718  -0.09225
 Alpha virt. eigenvalues --   -0.08929  -0.08612  -0.07025  -0.06528  -0.06228
 Alpha virt. eigenvalues --   -0.05200  -0.04153  -0.04009  -0.02610  -0.01800
 Alpha virt. eigenvalues --   -0.01672  -0.01210  -0.00466   0.00343   0.00375
 Alpha virt. eigenvalues --    0.00456   0.01087   0.01393   0.02132   0.02336
 Alpha virt. eigenvalues --    0.02549   0.03060   0.03499   0.04216   0.04377
 Alpha virt. eigenvalues --    0.04706   0.04915   0.05062   0.05341   0.05951
 Alpha virt. eigenvalues --    0.06063   0.06547   0.06743   0.07087   0.07392
 Alpha virt. eigenvalues --    0.07946   0.08066   0.08235   0.08436   0.08607
 Alpha virt. eigenvalues --    0.08680   0.08965   0.09211   0.09695   0.10306
 Alpha virt. eigenvalues --    0.10498   0.11189   0.11472   0.11766   0.12047
 Alpha virt. eigenvalues --    0.12344   0.13406   0.13662   0.13909   0.14213
 Alpha virt. eigenvalues --    0.14455   0.14848   0.15121   0.15401   0.15888
 Alpha virt. eigenvalues --    0.16458   0.16835   0.17044   0.17627   0.17815
 Alpha virt. eigenvalues --    0.18146   0.19622   0.20254   0.21620   0.23249
 Alpha virt. eigenvalues --    0.23713   0.24287   0.24907   0.25767   0.26488
 Alpha virt. eigenvalues --    0.27374   0.28344   0.28710   0.29458   0.30013
 Alpha virt. eigenvalues --    0.30335   0.31302   0.31688   0.32893   0.33721
 Alpha virt. eigenvalues --    0.35567   0.37146   0.37763   0.38644   0.38716
 Alpha virt. eigenvalues --    0.39757   0.40126   0.40395   0.40701   0.41188
 Alpha virt. eigenvalues --    0.41870   0.42456   0.42874   0.43349   0.43918
 Alpha virt. eigenvalues --    0.44268   0.44439   0.44908   0.45212   0.45534
 Alpha virt. eigenvalues --    0.45929   0.46220   0.46744   0.47217   0.47635
 Alpha virt. eigenvalues --    0.47845   0.47975   0.48622   0.49041   0.49246
 Alpha virt. eigenvalues --    0.49293   0.49414   0.49887   0.50216   0.50711
 Alpha virt. eigenvalues --    0.51208   0.51425   0.52020   0.52208   0.52940
 Alpha virt. eigenvalues --    0.53109   0.53728   0.54083   0.54389   0.55037
 Alpha virt. eigenvalues --    0.55275   0.55579   0.56041   0.56390   0.56524
 Alpha virt. eigenvalues --    0.57144   0.57514   0.57568   0.57908   0.58309
 Alpha virt. eigenvalues --    0.58564   0.59291   0.59949   0.60193   0.61268
 Alpha virt. eigenvalues --    0.61836   0.61971   0.63263   0.63527   0.64450
 Alpha virt. eigenvalues --    0.64798   0.65200   0.65590   0.66176   0.66701
 Alpha virt. eigenvalues --    0.67519   0.68504   0.69098   0.69517   0.69710
 Alpha virt. eigenvalues --    0.70563   0.71047   0.71552   0.72180   0.72585
 Alpha virt. eigenvalues --    0.72726   0.72890   0.73244   0.73765   0.73973
 Alpha virt. eigenvalues --    0.74150   0.74571   0.75069   0.75144   0.75669
 Alpha virt. eigenvalues --    0.75941   0.76356   0.76394   0.76682   0.76842
 Alpha virt. eigenvalues --    0.77392   0.77619   0.78211   0.78270   0.78619
 Alpha virt. eigenvalues --    0.78829   0.79937   0.80269   0.80849   0.81038
 Alpha virt. eigenvalues --    0.81291   0.81685   0.82443   0.82757   0.82910
 Alpha virt. eigenvalues --    0.83379   0.83809   0.84198   0.84527   0.84701
 Alpha virt. eigenvalues --    0.85226   0.85662   0.86081   0.86639   0.86885
 Alpha virt. eigenvalues --    0.87222   0.88031   0.88059   0.88570   0.89268
 Alpha virt. eigenvalues --    0.89898   0.90267   0.91779   0.91932   0.92626
 Alpha virt. eigenvalues --    0.92894   0.93583   0.94390   0.94424   0.94860
 Alpha virt. eigenvalues --    0.96346   0.96641   0.96990   0.97936   0.98346
 Alpha virt. eigenvalues --    0.99321   0.99525   1.00026   1.00629   1.00890
 Alpha virt. eigenvalues --    1.01579   1.01914   1.02564   1.03068   1.03516
 Alpha virt. eigenvalues --    1.03952   1.04039   1.05377   1.05655   1.06288
 Alpha virt. eigenvalues --    1.07085   1.08097   1.08231   1.09007   1.09686
 Alpha virt. eigenvalues --    1.09849   1.10369   1.12468   1.12771   1.13238
 Alpha virt. eigenvalues --    1.14700   1.15773   1.15887   1.16255   1.17742
 Alpha virt. eigenvalues --    1.18819   1.19729   1.20133   1.20489   1.21047
 Alpha virt. eigenvalues --    1.21809   1.22722   1.23733   1.24229   1.24646
 Alpha virt. eigenvalues --    1.25779   1.26407   1.27046   1.27899   1.28375
 Alpha virt. eigenvalues --    1.28511   1.29272   1.29931   1.30594   1.31581
 Alpha virt. eigenvalues --    1.32129   1.32777   1.33585   1.33691   1.33957
 Alpha virt. eigenvalues --    1.34810   1.35864   1.36493   1.37177   1.37519
 Alpha virt. eigenvalues --    1.38535   1.39352   1.39487   1.40355   1.40626
 Alpha virt. eigenvalues --    1.42247   1.42911   1.43277   1.44781   1.45506
 Alpha virt. eigenvalues --    1.46054   1.46337   1.47056   1.47956   1.48611
 Alpha virt. eigenvalues --    1.49472   1.50595   1.51353   1.51735   1.52408
 Alpha virt. eigenvalues --    1.53132   1.54106   1.54534   1.55435   1.56309
 Alpha virt. eigenvalues --    1.57084   1.58299   1.58662   1.59616   1.60495
 Alpha virt. eigenvalues --    1.60707   1.61890   1.63174   1.63407   1.63665
 Alpha virt. eigenvalues --    1.65555   1.65614   1.66446   1.66774   1.67004
 Alpha virt. eigenvalues --    1.67558   1.68056   1.68384   1.68903   1.69256
 Alpha virt. eigenvalues --    1.69737   1.70420   1.70891   1.70938   1.71436
 Alpha virt. eigenvalues --    1.71747   1.71978   1.72953   1.73233   1.73669
 Alpha virt. eigenvalues --    1.73989   1.74907   1.75449   1.75888   1.76433
 Alpha virt. eigenvalues --    1.76744   1.77032   1.77516   1.78451   1.78962
 Alpha virt. eigenvalues --    1.79859   1.80310   1.80498   1.81241   1.81644
 Alpha virt. eigenvalues --    1.82399   1.83219   1.83261   1.83852   1.84457
 Alpha virt. eigenvalues --    1.84926   1.85252   1.85508   1.86200   1.86519
 Alpha virt. eigenvalues --    1.86950   1.87569   1.88878   1.89539   1.90047
 Alpha virt. eigenvalues --    1.91217   1.91620   1.91810   1.92334   1.92512
 Alpha virt. eigenvalues --    1.93160   1.93708   1.94245   1.94983   1.95199
 Alpha virt. eigenvalues --    1.96007   1.96389   1.96971   1.97509   1.98030
 Alpha virt. eigenvalues --    1.98233   1.99112   1.99591   2.00577   2.00968
 Alpha virt. eigenvalues --    2.02233   2.03179   2.03773   2.04207   2.04621
 Alpha virt. eigenvalues --    2.05215   2.05577   2.06609   2.07185   2.08102
 Alpha virt. eigenvalues --    2.08996   2.09505   2.11803   2.14026   2.14307
 Alpha virt. eigenvalues --    2.14631   2.15164   2.15591   2.16183   2.16613
 Alpha virt. eigenvalues --    2.17254   2.17923   2.18891   2.19434   2.20828
 Alpha virt. eigenvalues --    2.21466   2.22507   2.24025   2.24257   2.24707
 Alpha virt. eigenvalues --    2.26387   2.27467   2.27830   2.27905   2.28612
 Alpha virt. eigenvalues --    2.28860   2.29765   2.30454   2.31012   2.31707
 Alpha virt. eigenvalues --    2.31910   2.34360   2.34859   2.35633   2.36366
 Alpha virt. eigenvalues --    2.36624   2.38095   2.38782   2.39192   2.40188
 Alpha virt. eigenvalues --    2.41635   2.42159   2.43296   2.43507   2.44104
 Alpha virt. eigenvalues --    2.45128   2.45835   2.46144   2.46832   2.48574
 Alpha virt. eigenvalues --    2.49228   2.49372   2.50072   2.51409   2.51476
 Alpha virt. eigenvalues --    2.52573   2.52967   2.54472   2.55215   2.55562
 Alpha virt. eigenvalues --    2.56129   2.56693   2.57451   2.58230   2.58647
 Alpha virt. eigenvalues --    2.59175   2.60276   2.60576   2.62409   2.63652
 Alpha virt. eigenvalues --    2.63953   2.65369   2.65627   2.66486   2.66610
 Alpha virt. eigenvalues --    2.67789   2.69783   2.70847   2.73002   2.73986
 Alpha virt. eigenvalues --    2.76754   2.77349   2.79898   2.81746   2.82889
 Alpha virt. eigenvalues --    2.85819   2.87598   2.88643   2.90096   2.90469
 Alpha virt. eigenvalues --    2.91984   2.92584   2.93876   2.94947   2.96697
 Alpha virt. eigenvalues --    2.98016   2.99762   3.00920   3.01390   3.02911
 Alpha virt. eigenvalues --    3.05973   3.10770   3.13705   3.33247   3.73705
 Alpha virt. eigenvalues --    3.77608   3.80487   3.81850   3.84556   3.87779
 Alpha virt. eigenvalues --    3.91087   3.93810   3.94207   3.97093   3.98991
 Alpha virt. eigenvalues --    4.00622   4.01995   4.02957   4.03966   4.05480
 Alpha virt. eigenvalues --    4.06822   4.07175   4.12784   4.14844   4.17300
 Alpha virt. eigenvalues --    4.18371   4.20744   4.22450   4.24403   4.24566
 Alpha virt. eigenvalues --    4.26945   4.28648   4.30824   4.32371   4.34450
 Alpha virt. eigenvalues --    4.39590   4.39975   4.45119   4.47397   4.48682
 Alpha virt. eigenvalues --    4.49124   4.55741   4.59004   4.61475   4.65418
 Alpha virt. eigenvalues --    4.70408
          Condensed to atoms (all electrons):
 Mulliken charges:
               1
     1  N   -0.821943
     2  C   -0.085527
     3  C    0.578516
     4  O   -0.481575
     5  C   -0.306864
     6  C   -0.375971
     7  C    0.634822
     8  O   -0.541406
     9  O   -0.661625
    10  H    0.400130
    11  H    0.210487
    12  H    0.160745
    13  H    0.203759
    14  H    0.183108
    15  H    0.196816
    16  H    0.462333
    17  H    0.392300
    18  N   -0.565278
    19  C   -0.098310
    20  C    0.626586
    21  O   -0.482036
    22  C   -0.361009
    23  C    0.029023
    24  C   -0.013450
    25  C    0.049143
    26  C    0.287374
    27  C   -0.224455
    28  N   -0.688249
    29  C   -0.163338
    30  C   -0.147502
    31  C   -0.151407
    32  H    0.364282
    33  H    0.133962
    34  H    0.163944
    35  H    0.190080
    36  H    0.204230
    37  H    0.354198
    38  H    0.141666
    39  H    0.154244
    40  H    0.143379
    41  H    0.155801
    42  N   -0.609122
    43  C   -0.080097
    44  C    0.621423
    45  O   -0.494762
    46  C    0.119790
    47  C   -0.478514
    48  O   -0.651878
    49  H    0.431127
    50  H    0.369904
    51  H    0.158487
    52  H    0.166047
    53  H    0.164735
    54  H    0.190406
    55  H    0.186389
    56  N   -0.638891
    57  C   -0.062595
    58  C    0.624481
    59  O   -0.477377
    60  C   -0.334415
    61  C   -0.292145
    62  C   -0.163982
    63  N   -0.628740
    64  C    0.750027
    65  N   -0.788288
    66  N   -0.773411
    67  O   -0.575739
    68  H    0.457043
    69  H    0.354415
    70  H    0.175853
    71  H    0.183923
    72  H    0.164342
    73  H    0.167831
    74  H    0.169474
    75  H    0.184231
    76  H    0.195262
    77  H    0.413250
    78  H    0.362425
    79  H    0.415330
    80  H    0.421949
    81  H    0.350831
 Sum of Mulliken charges =   1.00000
 Mulliken charges with hydrogens summed into heavy atoms:
               1
     1  N    0.432820
     2  C    0.124960
     3  C    0.578516
     4  O   -0.481575
     5  C    0.057639
     6  C    0.003953
     7  C    0.634822
     8  O   -0.541406
     9  O   -0.661625
    18  N   -0.200996
    19  C    0.035652
    20  C    0.626586
    21  O   -0.482036
    22  C   -0.006985
    23  C    0.029023
    24  C    0.190780
    25  C    0.049143
    26  C    0.287374
    27  C   -0.082788
    28  N   -0.334051
    29  C   -0.009094
    30  C   -0.004124
    31  C    0.004393
    42  N   -0.239218
    43  C    0.078390
    44  C    0.621423
    45  O   -0.494762
    46  C    0.285838
    47  C    0.063016
    48  O   -0.220750
    56  N   -0.284476
    57  C    0.113258
    58  C    0.624481
    59  O   -0.477377
    60  C    0.013850
    61  C    0.045160
    62  C    0.215511
    63  N   -0.215491
    64  C    0.750027
    65  N   -0.010533
    66  N   -0.000630
    67  O   -0.118696
 Electronic spatial extent (au):  <R**2>=        1397427.7273
 Charge=              1.0000 electrons
 Dipole moment (field-independent basis, Debye):
    X=             41.6687    Y=            149.2945    Z=             58.4316  Tot=            165.6484
 Quadrupole moment (field-independent basis, Debye-Ang):
   XX=            127.6259   YY=           4439.3257   ZZ=            505.7469
   XY=           1270.7663   XZ=            517.9024   YZ=           1842.2432
 Traceless Quadrupole moment (field-independent basis, Debye-Ang):
   XX=          -1563.2736   YY=           2748.4262   ZZ=          -1185.1526
   XY=           1270.7663   XZ=            517.9024   YZ=           1842.2432
 Octapole moment (field-independent basis, Debye-Ang**2):
  XXX=          -3870.9328  YYY=         125356.5456  ZZZ=           1324.4183  XYY=          36674.5640
  XXY=           3363.6595  XXZ=           1917.2203  XZZ=           4321.6350  YZZ=          16262.5626
  YYZ=          55789.4249  XYZ=          15943.1115
 Hexadecapole moment (field-independent basis, Debye-Ang**3):
 XXXX=        -120733.3184 YYYY=        3295082.7962 ZZZZ=         -79216.8893 XXXY=        -130560.8994
 XXXZ=         -38887.0531 YYYX=         987087.5871 YYYZ=        1615747.0207 ZZZX=           5476.7327
 ZZZY=          49501.2880 XXYY=          62407.8281 XXZZ=           3195.2146 YYZZ=         494398.0952
 XXYZ=          52613.1992 YYXZ=         467119.5881 ZZXY=         133209.5381
 N-N= 5.753238056570D+03 E-N=-1.626005331601D+04  KE= 2.035168194150D+03
 Unable to Open any file for archive entry.
 1\1\GINC-LAC-307\SP\RB3LYP\6-31G(d)\C26H39N8O8(1+)\KENGMITH\27-May-202
 2\0\\# B3LYP/6-31G* empiricaldispersion=gd3 guess=read geom=check nosy
 mm integral(ultrafinegrid)\\Candidate Structure: Conf:234 Charge calc 
 in gas phase\\1,1\N,0,9.0994223042,31.72147208,9.196159015\C,0,10.0804
 642709,32.6226633696,8.4839962341\C,0,11.3835162239,31.950778832,7.991
 3648455\O,0,11.6011381545,31.9370445484,6.7881568398\C,0,10.3791903367
 ,33.8858454104,9.309475474\C,0,9.218653817,34.8938600459,9.3990640232\
 C,0,8.1432990525,34.594581483,10.4471713521\O,0,7.5881598905,35.550653
 8824,11.0016330637\O,0,7.8674565629,33.3495837337,10.7061391352\H,0,9.
 5570235118,31.0284155884,9.795087711\H,0,9.5818779316,32.9184967557,7.
 5593194118\H,0,10.731003664,33.6156375631,10.312690283\H,0,11.22466177
 1,34.3766328738,8.8165111606\H,0,8.723745243,34.9848920281,8.421780720
 9\H,0,9.6110206287,35.887425056,9.6289871885\H,0,8.4448456477,32.39024
 20831,9.848024124\H,0,8.5560808249,31.1678828025,8.5297926569\N,0,12.3
 359818449,31.5741927285,8.8986534511\C,0,12.1988038369,31.0527584987,1
 0.2446559717\C,0,13.4351791193,31.502577849,11.0518390646\O,0,14.47103
 01964,31.7880374877,10.4733543045\C,0,12.1016812676,29.4944522753,10.2
 183789379\C,0,10.8387539688,29.0101487679,9.575980934\C,0,10.536776741
 9,28.9824745337,8.2327216759\C,0,9.6490749142,28.5780198457,10.2758813
 695\C,0,8.6533076169,28.3219088849,9.2929570138\C,0,9.3466580093,28.34
 33761874,11.6309949175\N,0,9.2138773782,28.6126836554,8.0588026999\C,0
 ,7.3749757897,27.859757331,9.624689895\C,0,8.0830201911,27.8715556412,
 11.9615782156\C,0,7.1052369078,27.6394542768,10.970442044\H,0,13.24227
 01729,31.385249659,8.478090245\H,0,11.2994037684,31.472960782,10.70117
 6167\H,0,12.1630375059,29.1059430885,11.2397283678\H,0,12.9915068736,2
 9.128010529,9.694234837\H,0,11.1513787018,29.2326420768,7.3792549156\H
 ,0,8.8132970715,28.3460331442,7.1702112115\H,0,10.092611214,28.5010980
 792,12.4056185055\H,0,6.6285464413,27.6623675594,8.8606622782\H,0,7.84
 11388882,27.6681702128,13.0006500385\H,0,6.1281985068,27.267081785,11.
 2627848041\N,0,13.329707184,31.54026985,12.4159902004\C,0,12.210539845
 1,31.1771930217,13.2644161591\C,0,11.9901182852,32.3155255297,14.27789
 53568\O,0,12.9779214494,32.930303838,14.6623614444\C,0,12.515336888,29
 .842037921,14.0014182904\C,0,13.5927587849,29.9204596153,15.0737726825
 \O,0,11.2526558315,29.3939367317,14.5489224581\H,0,11.3909106646,28.53
 15330561,14.9759363053\H,0,14.1209786121,31.9632084492,12.8917630681\H
 ,0,11.3339986413,31.0097868729,12.6472141557\H,0,12.8232489789,29.1302
 268881,13.2254895549\H,0,13.7719382801,28.9246745808,15.4949618607\H,0
 ,13.3069790525,30.5998740556,15.8807193115\H,0,14.5368806251,30.272388
 2784,14.6482129722\N,0,10.7623102778,32.6077149314,14.8196548785\C,0,9
 .3436481852,32.2586003927,14.6317997529\C,0,8.804637046,31.5241467827,
 15.8759831397\O,0,7.7931545376,31.9043436617,16.4421753337\C,0,8.97315
 65471,31.5185785556,13.3356654531\C,0,7.5193821814,31.0109060393,13.23
 31221796\C,0,6.374404516,31.9623859086,13.6242098232\N,0,6.6271392403,
 33.3520873454,13.2523889101\C,0,6.479642991,34.413797988,14.0498465797
 \N,0,6.3668861991,34.2666596969,15.3854842378\N,0,6.4180222902,35.6337
 63415,13.4963081715\O,0,9.4693270739,30.4571643763,16.2926493196\H,0,1
 0.237743045,30.2531721879,15.7025951426\H,0,10.8908283418,33.343026923
 5,15.509865199\H,0,8.8132597931,33.2114970708,14.6226006003\H,0,9.5947
 121435,30.631409324,13.2228705884\H,0,9.1782348695,32.1991682617,12.50
 15158249\H,0,7.3862765754,30.6842961111,12.1974225638\H,0,7.4063342536
 ,30.1060942694,13.8412404196\H,0,5.455034527,31.630134231,13.127056417
 9\H,0,6.1900301981,31.9036238847,14.6935262746\H,0,6.8876725475,33.507
 7326922,12.2682710966\H,0,6.1628235526,35.0732087749,15.9568813024\H,0
 ,6.741667253,33.4401464802,15.8560909229\H,0,6.6615786273,35.705827812
 5,12.4943821514\H,0,6.624935451,36.4393329295,14.0705132916\\Version=E
 S64L-G16RevC.01\HF=-2054.0692913\RMSD=1.156e-09\Dipole=-2.1887496,-0.7
 362071,0.5196195\Quadrupole=-1162.2555859,2043.3875232,-881.1319373,94
 4.7835772,385.0477494,1369.6626893\PG=C01 [X(C26H39N8O8)]\\@
 The archive entry for this job was punched.


 SI MONUMENTUM REQUIRIS, CIRCUMSPICE
     -- FROM SIR CHRISTOPHER WREN'S TOMBSTONE
 Job cpu time:       0 days  0 hours  7 minutes 27.3 seconds.
 Elapsed time:       0 days  0 hours  1 minutes 52.9 seconds.
 File lengths (MBytes):  RWF=    376 Int=      0 D2E=      0 Chk=     56 Scr=     16
 Normal termination of Gaussian 16 at Fri May 27 05:10:55 2022.
