 Entering Gaussian System, Link 0=/opt/software/Gaussian/g16-AVX2-C.01/g16/g16
 Input=charge-conf-123.com
 Output=charge-conf-123.log
 Initial command:
 /opt/software/Gaussian/g16-AVX2-C.01/g16/l1.exe "/mnt/gs18/scratch/users/kengmith/Gau-16079.inp" -scrdir="/mnt/gs18/scratch/users/kengmith/"
 Entering Link 1 = /opt/software/Gaussian/g16-AVX2-C.01/g16/l1.exe PID=     16129.
  
 Copyright (c) 1988-2019, Gaussian, Inc.  All Rights Reserved.
  
 This is part of the Gaussian(R) 16 program.  It is based on
 the Gaussian(R) 09 system (copyright 2009, Gaussian, Inc.),
 the Gaussian(R) 03 system (copyright 2003, Gaussian, Inc.),
 the Gaussian(R) 98 system (copyright 1998, Gaussian, Inc.),
 the Gaussian(R) 94 system (copyright 1995, Gaussian, Inc.),
 the Gaussian 92(TM) system (copyright 1992, Gaussian, Inc.),
 the Gaussian 90(TM) system (copyright 1990, Gaussian, Inc.),
 the Gaussian 88(TM) system (copyright 1988, Gaussian, Inc.),
 the Gaussian 86(TM) system (copyright 1986, Carnegie Mellon
 University), and the Gaussian 82(TM) system (copyright 1983,
 Carnegie Mellon University). Gaussian is a federally registered
 trademark of Gaussian, Inc.
  
 This software contains proprietary and confidential information,
 including trade secrets, belonging to Gaussian, Inc.
  
 This software is provided under written license and may be
 used, copied, transmitted, or stored only in accord with that
 written license.
  
 The following legend is applicable only to US Government
 contracts under FAR:
  
                    RESTRICTED RIGHTS LEGEND
  
 Use, reproduction and disclosure by the US Government is
 subject to restrictions as set forth in subparagraphs (a)
 and (c) of the Commercial Computer Software - Restricted
 Rights clause in FAR 52.227-19.
  
 Gaussian, Inc.
 340 Quinnipiac St., Bldg. 40, Wallingford CT 06492
  
  
 ---------------------------------------------------------------
 Warning -- This program may not be used in any manner that
 competes with the business of Gaussian, Inc. or will provide
 assistance to any competitor of Gaussian, Inc.  The licensee
 of this program is prohibited from giving any competitor of
 Gaussian, Inc. access to this program.  By using this program,
 the user acknowledges that Gaussian, Inc. is engaged in the
 business of creating and licensing software in the field of
 computational chemistry and represents and warrants to the
 licensee that it is not a competitor of Gaussian, Inc. and that
 it will not use this program in any manner prohibited above.
 ---------------------------------------------------------------
  

 Cite this work as:
 Gaussian 16, Revision C.01,
 M. J. Frisch, G. W. Trucks, H. B. Schlegel, G. E. Scuseria, 
 M. A. Robb, J. R. Cheeseman, G. Scalmani, V. Barone, 
 G. A. Petersson, H. Nakatsuji, X. Li, M. Caricato, A. V. Marenich, 
 J. Bloino, B. G. Janesko, R. Gomperts, B. Mennucci, H. P. Hratchian, 
 J. V. Ortiz, A. F. Izmaylov, J. L. Sonnenberg, D. Williams-Young, 
 F. Ding, F. Lipparini, F. Egidi, J. Goings, B. Peng, A. Petrone, 
 T. Henderson, D. Ranasinghe, V. G. Zakrzewski, J. Gao, N. Rega, 
 G. Zheng, W. Liang, M. Hada, M. Ehara, K. Toyota, R. Fukuda, 
 J. Hasegawa, M. Ishida, T. Nakajima, Y. Honda, O. Kitao, H. Nakai, 
 T. Vreven, K. Throssell, J. A. Montgomery, Jr., J. E. Peralta, 
 F. Ogliaro, M. J. Bearpark, J. J. Heyd, E. N. Brothers, K. N. Kudin, 
 V. N. Staroverov, T. A. Keith, R. Kobayashi, J. Normand, 
 K. Raghavachari, A. P. Rendell, J. C. Burant, S. S. Iyengar, 
 J. Tomasi, M. Cossi, J. M. Millam, M. Klene, C. Adamo, R. Cammi, 
 J. W. Ochterski, R. L. Martin, K. Morokuma, O. Farkas, 
 J. B. Foresman, and D. J. Fox, Gaussian, Inc., Wallingford CT, 2019.
 
 ******************************************
 Gaussian 16:  ES64L-G16RevC.01  3-Jul-2019
                27-May-2022 
 ******************************************
 %mem=8gb
 %nproc=4
 Will use up to    4 processors via shared memory.
 %chk=conf-123.chk
 ----------------------------------------------------------------------
 # B3LYP/6-31G* empiricaldispersion=gd3 guess=read geom=check nosymm in
 tegral(ultrafinegrid)
 ----------------------------------------------------------------------
 1/29=2,38=1,172=1/1;
 2/12=2,15=1,40=1/2;
 3/5=1,6=6,7=1,11=2,14=-4,25=1,30=1,74=-5,75=-5,116=-2,124=31/1,2,3;
 4/5=1/1;
 5/5=2,38=6/2;
 6/7=2,8=2,9=2,10=2,28=1/1;
 99/5=1,9=1/99;
 ------------------------------------------------------
 Candidate Structure: Conf:123 Charge calc in gas phase
 ------------------------------------------------------
 Structure from the checkpoint file:  "conf-123.chk"
 Charge =  1 Multiplicity = 1
 Redundant internal coordinates found in file.  (old form).
 N,0,10.1077151088,33.871691706,13.1276363162
 C,0,8.9363288793,34.7532218768,12.7625073797
 C,0,7.6430158171,34.5348280702,13.5821984408
 O,0,7.229972897,35.4658912886,14.2587963073
 C,0,8.6551600382,34.710982409,11.250810776
 C,0,9.7086527296,35.4117298799,10.3733209004
 C,0,10.9668342124,34.6007710106,10.0508979444
 O,0,11.509814001,34.7798819371,8.9541133687
 O,0,11.4019265997,33.7608080875,10.9442126909
 H,0,9.8276620788,32.9179008665,13.3738704909
 H,0,9.2410856303,35.7654531923,13.033828437
 H,0,8.5036020768,33.6773445818,10.9165775371
 H,0,7.6950611369,35.2173139127,11.1073948528
 H,0,10.0236245552,36.3537809852,10.8440832081
 H,0,9.2630538442,35.6909474101,9.4154615261
 H,0,10.7892346915,33.827649385,12.2154633477
 H,0,10.5876434083,34.222212633,13.9597787077
 N,0,6.8981049603,33.4044350902,13.3835991696
 C,0,7.3093322032,32.0496230453,13.0707990727
 C,0,6.1849919002,31.3974245259,12.2381558552
 O,0,5.0441689599,31.8241032845,12.3131079777
 C,0,7.5579789764,31.2387792911,14.3820485343
 C,0,8.7366604717,31.7454408271,15.1541619598
 C,0,8.8086275144,32.8829979707,15.926962132
 C,0,10.064802922,31.1730059523,15.1369250552
 C,0,10.9007715897,32.028477753,15.9068295496
 C,0,10.6139069908,30.0011548228,14.5818778345
 N,0,10.1133354618,33.0818009163,16.345225732
 C,0,12.2566268297,31.7567356761,16.1202572777
 C,0,11.9561765717,29.7222336972,14.8037814674
 C,0,12.7706721545,30.5939697722,15.5581044775
 H,0,5.9578026794,33.4678546486,13.7653580027
 H,0,8.2250144026,32.0821751884,12.4754754759
 H,0,7.7097860186,30.1829509719,14.1370126612
 H,0,6.6341704058,31.2904111247,14.9691682774
 H,0,8.0367420871,33.5939215154,16.1867729909
 H,0,10.3830915789,33.7388716089,17.0639974853
 H,0,9.9974058316,29.310242691,14.0126172817
 H,0,12.8791687072,32.4171759333,16.7170126551
 H,0,12.3894704895,28.812865479,14.3977821506
 H,0,13.8154618724,30.3442195068,15.7154788749
 N,0,6.5105647878,30.3261021679,11.4509593142
 C,0,7.7860810095,29.6543776503,11.2900945273
 C,0,8.0549738291,29.4930584033,9.7823906202
 O,0,7.087378783,29.3271562956,9.0491100694
 C,0,7.7449889373,28.265347753,11.9885154625
 C,0,6.8601958629,27.2243556007,11.3173583054
 O,0,9.1199559066,27.8204751628,12.070019429
 H,0,9.1420760625,26.9759310827,12.5511320567
 H,0,5.7707187812,30.0161835091,10.8280888576
 H,0,8.5603156149,30.2365174603,11.7788390742
 H,0,7.3842433851,28.4489267145,13.0081505927
 H,0,7.2081740004,26.9931018157,10.3074376917
 H,0,5.8277636746,27.5792818907,11.2508139323
 H,0,6.8543679993,26.3026638702,11.9102508337
 N,0,9.3199624922,29.4431707846,9.2496722089
 C,0,10.7157939573,29.6814965375,9.6556323882
 C,0,11.5249379374,28.3710520834,9.5804293015
 O,0,12.5724704277,28.3130232832,8.9579154184
 C,0,10.9395245971,30.4052878744,10.9939934696
 C,0,12.3998529157,30.4910042026,11.4856413291
 C,0,13.4924781821,30.9149604227,10.4878079506
 N,0,13.0429538855,31.9287431142,9.537249389
 C,0,13.2126768299,31.8880263406,8.2126759812
 N,0,13.5594530378,30.741341722,7.5936622689
 N,0,13.0585279953,33.0177535963,7.5067463781
 O,0,11.0499621635,27.3204361876,10.2320184274
 H,0,10.219207277,27.5415430447,10.7232052884
 H,0,9.2340620386,29.2567903485,8.2539438962
 H,0,11.138300379,30.3121718561,8.8725817475
 H,0,10.3997004677,29.89266065,11.788834402
 H,0,10.533059663,31.4176452058,10.8897562568
 H,0,12.392157285,31.1808993957,12.3347367973
 H,0,12.7016565998,29.522004076,11.899528622
 H,0,14.3450741064,31.3166073332,11.0486511969
 H,0,13.857119076,30.0478128798,9.9437430491
 H,0,12.6080782038,32.7648099852,9.9525570339
 H,0,13.7727620726,30.7562994052,6.6072924916
 H,0,13.3522441877,29.8336161202,8.0157471566
 H,0,12.6476420111,33.8266530233,8.0019418965
 H,0,12.8694344519,32.9504890754,6.5162092244
 Recover connectivity data from disk.
                           ----------------------------
                           !    Current Parameters    !
                           ! (Angstroms and Degrees)  !
 --------------------------                            --------------------------
 ! Name  Definition              Value                                          !
 --------------------------------------------------------------------------------
 ! R1    R(1,2)                  1.5108                                         !
 ! R2    R(1,10)                 1.0241                                         !
 ! R3    R(1,16)                 1.1395                                         !
 ! R4    R(1,17)                 1.0226                                         !
 ! R5    R(2,3)                  1.5467                                         !
 ! R6    R(2,5)                  1.5382                                         !
 ! R7    R(2,11)                 1.0914                                         !
 ! R8    R(3,4)                  1.2228                                         !
 ! R9    R(3,18)                 1.3683                                         !
 ! R10   R(5,6)                  1.5398                                         !
 ! R11   R(5,12)                 1.0969                                         !
 ! R12   R(5,13)                 1.0949                                         !
 ! R13   R(6,7)                  1.5312                                         !
 ! R14   R(6,14)                 1.0992                                         !
 ! R15   R(6,15)                 1.0927                                         !
 ! R16   R(7,8)                  1.2369                                         !
 ! R17   R(7,9)                  1.3011                                         !
 ! R18   R(18,19)                1.45                                           !
 ! R19   R(18,32)                1.0168                                         !
 ! R20   R(19,20)                1.5436                                         !
 ! R21   R(19,22)                1.5616                                         !
 ! R22   R(19,33)                1.0927                                         !
 ! R23   R(20,21)                1.2203                                         !
 ! R24   R(20,42)                1.3687                                         !
 ! R25   R(22,23)                1.4974                                         !
 ! R26   R(22,34)                1.0945                                         !
 ! R27   R(22,35)                1.0958                                         !
 ! R28   R(23,24)                1.3771                                         !
 ! R29   R(23,25)                1.4464                                         !
 ! R30   R(24,28)                1.3845                                         !
 ! R31   R(24,36)                1.0811                                         !
 ! R32   R(25,26)                1.4225                                         !
 ! R33   R(25,27)                1.4081                                         !
 ! R34   R(26,28)                1.3863                                         !
 ! R35   R(26,29)                1.3992                                         !
 ! R36   R(27,30)                1.3888                                         !
 ! R37   R(27,38)                1.087                                          !
 ! R38   R(28,37)                1.0105                                         !
 ! R39   R(29,31)                1.3901                                         !
 ! R40   R(29,39)                1.0862                                         !
 ! R41   R(30,31)                1.4115                                         !
 ! R42   R(30,40)                1.0861                                         !
 ! R43   R(31,41)                1.0857                                         !
 ! R44   R(42,43)                1.4505                                         !
 ! R45   R(42,50)                1.0156                                         !
 ! R46   R(43,44)                1.54                                           !
 ! R47   R(43,46)                1.5553                                         !
 ! R48   R(43,51)                1.085                                          !
 ! R49   R(44,45)                1.2253                                         !
 ! R50   R(44,56)                1.3735                                         !
 ! R51   R(46,47)                1.5222                                         !
 ! R52   R(46,48)                1.4474                                         !
 ! R53   R(46,52)                1.097                                          !
 ! R54   R(47,53)                1.0929                                         !
 ! R55   R(47,54)                1.0938                                         !
 ! R56   R(47,55)                1.0959                                         !
 ! R57   R(48,49)                0.9722                                         !
 ! R58   R(56,57)                1.4731                                         !
 ! R59   R(56,69)                1.0167                                         !
 ! R60   R(57,58)                1.542                                          !
 ! R61   R(57,60)                1.5379                                         !
 ! R62   R(57,70)                1.0906                                         !
 ! R63   R(58,59)                1.2199                                         !
 ! R64   R(58,67)                1.3244                                         !
 ! R65   R(60,61)                1.5433                                         !
 ! R66   R(60,71)                1.089                                          !
 ! R67   R(60,72)                1.0959                                         !
 ! R68   R(61,62)                1.5392                                         !
 ! R69   R(61,73)                1.0941                                         !
 ! R70   R(61,74)                1.0961                                         !
 ! R71   R(62,63)                1.4606                                         !
 ! R72   R(62,75)                1.0967                                         !
 ! R73   R(62,76)                1.0867                                         !
 ! R74   R(63,64)                1.336                                          !
 ! R75   R(63,77)                1.0299                                         !
 ! R76   R(64,65)                1.3484                                         !
 ! R77   R(64,66)                1.341                                          !
 ! R78   R(65,78)                1.0093                                         !
 ! R79   R(65,79)                1.0223                                         !
 ! R80   R(66,80)                1.0336                                         !
 ! R81   R(66,81)                1.0107                                         !
 ! R82   R(67,68)                0.9901                                         !
 ! A1    A(2,1,10)             112.9238                                         !
 ! A2    A(2,1,16)             107.026                                          !
 ! A3    A(2,1,17)             111.1342                                         !
 ! A4    A(10,1,16)            108.6647                                         !
 ! A5    A(10,1,17)            104.5919                                         !
 ! A6    A(16,1,17)            112.58                                           !
 ! A7    A(1,2,3)              115.9669                                         !
 ! A8    A(1,2,5)              111.2977                                         !
 ! A9    A(1,2,11)             105.342                                          !
 ! A10   A(3,2,5)              111.3528                                         !
 ! A11   A(3,2,11)             103.4564                                         !
 ! A12   A(5,2,11)             108.7132                                         !
 ! A13   A(2,3,4)              117.9156                                         !
 ! A14   A(2,3,18)             119.6676                                         !
 ! A15   A(4,3,18)             121.6993                                         !
 ! A16   A(2,5,6)              114.9928                                         !
 ! A17   A(2,5,12)             110.5242                                         !
 ! A18   A(2,5,13)             106.0409                                         !
 ! A19   A(6,5,12)             110.4722                                         !
 ! A20   A(6,5,13)             108.3523                                         !
 ! A21   A(12,5,13)            105.9456                                         !
 ! A22   A(5,6,7)              116.1779                                         !
 ! A23   A(5,6,14)             109.9996                                         !
 ! A24   A(5,6,15)             109.6844                                         !
 ! A25   A(7,6,14)             107.9763                                         !
 ! A26   A(7,6,15)             106.6084                                         !
 ! A27   A(14,6,15)            105.8592                                         !
 ! A28   A(6,7,8)              118.0824                                         !
 ! A29   A(6,7,9)              118.1716                                         !
 ! A30   A(8,7,9)              123.7458                                         !
 ! A31   A(3,18,19)            130.454                                          !
 ! A32   A(3,18,32)            113.4177                                         !
 ! A33   A(19,18,32)           113.6741                                         !
 ! A34   A(18,19,20)           107.7321                                         !
 ! A35   A(18,19,22)           110.4364                                         !
 ! A36   A(18,19,33)           109.109                                          !
 ! A37   A(20,19,22)           110.4578                                         !
 ! A38   A(20,19,33)           109.2137                                         !
 ! A39   A(22,19,33)           109.8473                                         !
 ! A40   A(19,20,21)           120.0047                                         !
 ! A41   A(19,20,42)           117.8837                                         !
 ! A42   A(21,20,42)           122.0983                                         !
 ! A43   A(19,22,23)           112.4957                                         !
 ! A44   A(19,22,34)           109.5722                                         !
 ! A45   A(19,22,35)           106.9291                                         !
 ! A46   A(23,22,34)           109.4316                                         !
 ! A47   A(23,22,35)           111.8013                                         !
 ! A48   A(34,22,35)           106.4                                            !
 ! A49   A(22,23,24)           127.59                                           !
 ! A50   A(22,23,25)           125.6451                                         !
 ! A51   A(24,23,25)           106.5965                                         !
 ! A52   A(23,24,28)           109.7188                                         !
 ! A53   A(23,24,36)           129.849                                          !
 ! A54   A(28,24,36)           120.3867                                         !
 ! A55   A(23,25,26)           107.1686                                         !
 ! A56   A(23,25,27)           133.8003                                         !
 ! A57   A(26,25,27)           118.9902                                         !
 ! A58   A(25,26,28)           107.1156                                         !
 ! A59   A(25,26,29)           122.3605                                         !
 ! A60   A(28,26,29)           130.5237                                         !
 ! A61   A(25,27,30)           118.7539                                         !
 ! A62   A(25,27,38)           120.9467                                         !
 ! A63   A(30,27,38)           120.2783                                         !
 ! A64   A(24,28,26)           109.3086                                         !
 ! A65   A(24,28,37)           124.0442                                         !
 ! A66   A(26,28,37)           124.5671                                         !
 ! A67   A(26,29,31)           117.33                                           !
 ! A68   A(26,29,39)           121.4058                                         !
 ! A69   A(31,29,39)           121.2541                                         !
 ! A70   A(27,30,31)           121.2698                                         !
 ! A71   A(27,30,40)           119.6057                                         !
 ! A72   A(31,30,40)           119.1226                                         !
 ! A73   A(29,31,30)           121.2879                                         !
 ! A74   A(29,31,41)           119.3189                                         !
 ! A75   A(30,31,41)           119.3864                                         !
 ! A76   A(20,42,43)           129.4509                                         !
 ! A77   A(20,42,50)           114.7281                                         !
 ! A78   A(43,42,50)           115.548                                          !
 ! A79   A(42,43,44)           108.0972                                         !
 ! A80   A(42,43,46)           109.9106                                         !
 ! A81   A(42,43,51)           109.2122                                         !
 ! A82   A(44,43,46)           110.5309                                         !
 ! A83   A(44,43,51)           111.8779                                         !
 ! A84   A(46,43,51)           107.2029                                         !
 ! A85   A(43,44,45)           117.5288                                         !
 ! A86   A(43,44,56)           122.9804                                         !
 ! A87   A(45,44,56)           119.357                                          !
 ! A88   A(43,46,47)           115.3497                                         !
 ! A89   A(43,46,48)           105.9433                                         !
 ! A90   A(43,46,52)           106.0583                                         !
 ! A91   A(47,46,48)           111.5186                                         !
 ! A92   A(47,46,52)           109.4578                                         !
 ! A93   A(48,46,52)           108.1476                                         !
 ! A94   A(46,47,53)           111.5348                                         !
 ! A95   A(46,47,54)           110.7066                                         !
 ! A96   A(46,47,55)           109.8594                                         !
 ! A97   A(53,47,54)           108.2388                                         !
 ! A98   A(53,47,55)           108.8835                                         !
 ! A99   A(54,47,55)           107.5058                                         !
 ! A100  A(46,48,49)           108.4493                                         !
 ! A101  A(44,56,57)           139.4593                                         !
 ! A102  A(44,56,69)           107.9817                                         !
 ! A103  A(57,56,69)           112.3112                                         !
 ! A104  A(56,57,58)           110.261                                          !
 ! A105  A(56,57,60)           116.9892                                         !
 ! A106  A(56,57,70)           105.235                                          !
 ! A107  A(58,57,60)           111.4739                                         !
 ! A108  A(58,57,70)           104.6637                                         !
 ! A109  A(60,57,70)           107.2366                                         !
 ! A110  A(57,58,59)           121.0583                                         !
 ! A111  A(57,58,67)           117.5158                                         !
 ! A112  A(59,58,67)           121.4186                                         !
 ! A113  A(57,60,61)           116.1706                                         !
 ! A114  A(57,60,71)           109.9693                                         !
 ! A115  A(57,60,72)           107.3395                                         !
 ! A116  A(61,60,71)           105.2295                                         !
 ! A117  A(61,60,72)           109.2668                                         !
 ! A118  A(71,60,72)           108.688                                          !
 ! A119  A(60,61,62)           118.7169                                         !
 ! A120  A(60,61,73)           105.9987                                         !
 ! A121  A(60,61,74)           109.3752                                         !
 ! A122  A(62,61,73)           109.5376                                         !
 ! A123  A(62,61,74)           107.028                                          !
 ! A124  A(73,61,74)           105.4474                                         !
 ! A125  A(61,62,63)           113.2407                                         !
 ! A126  A(61,62,75)           108.7356                                         !
 ! A127  A(61,62,76)           110.0575                                         !
 ! A128  A(63,62,75)           108.5344                                         !
 ! A129  A(63,62,76)           109.3475                                         !
 ! A130  A(75,62,76)           106.7027                                         !
 ! A131  A(62,63,64)           125.8007                                         !
 ! A132  A(62,63,77)           115.5303                                         !
 ! A133  A(64,63,77)           118.5676                                         !
 ! A134  A(63,64,65)           120.9111                                         !
 ! A135  A(63,64,66)           118.7911                                         !
 ! A136  A(65,64,66)           120.2841                                         !
 ! A137  A(64,65,78)           119.3658                                         !
 ! A138  A(64,65,79)           120.8918                                         !
 ! A139  A(78,65,79)           117.3555                                         !
 ! A140  A(64,66,80)           116.9219                                         !
 ! A141  A(64,66,81)           118.7743                                         !
 ! A142  A(80,66,81)           116.5679                                         !
 ! A143  A(58,67,68)           111.5827                                         !
 ! D1    D(10,1,2,3)            37.3622                                         !
 ! D2    D(10,1,2,5)           -91.2862                                         !
 ! D3    D(10,1,2,11)          151.0665                                         !
 ! D4    D(16,1,2,3)           156.8937                                         !
 ! D5    D(16,1,2,5)            28.2454                                         !
 ! D6    D(16,1,2,11)          -89.402                                          !
 ! D7    D(17,1,2,3)           -79.8145                                         !
 ! D8    D(17,1,2,5)           151.5372                                         !
 ! D9    D(17,1,2,11)           33.8899                                         !
 ! D10   D(1,2,3,4)            117.5506                                         !
 ! D11   D(1,2,3,18)           -71.9863                                         !
 ! D12   D(5,2,3,4)           -113.828                                          !
 ! D13   D(5,2,3,18)            56.6351                                         !
 ! D14   D(11,2,3,4)             2.7711                                         !
 ! D15   D(11,2,3,18)          173.2342                                         !
 ! D16   D(1,2,5,6)            -70.5879                                         !
 ! D17   D(1,2,5,12)            55.325                                          !
 ! D18   D(1,2,5,13)           169.71                                           !
 ! D19   D(3,2,5,6)            158.3415                                         !
 ! D20   D(3,2,5,12)           -75.7456                                         !
 ! D21   D(3,2,5,13)            38.6395                                         !
 ! D22   D(11,2,5,6)            44.9988                                         !
 ! D23   D(11,2,5,12)          170.9117                                         !
 ! D24   D(11,2,5,13)          -74.7033                                         !
 ! D25   D(2,3,18,19)           35.1372                                         !
 ! D26   D(2,3,18,32)         -164.0654                                         !
 ! D27   D(4,3,18,19)         -154.7712                                         !
 ! D28   D(4,3,18,32)            6.0262                                         !
 ! D29   D(2,5,6,7)             81.8645                                         !
 ! D30   D(2,5,6,14)           -41.1522                                         !
 ! D31   D(2,5,6,15)          -157.1965                                         !
 ! D32   D(12,5,6,7)           -44.0753                                         !
 ! D33   D(12,5,6,14)         -167.0919                                         !
 ! D34   D(12,5,6,15)           76.8638                                         !
 ! D35   D(13,5,6,7)          -159.721                                          !
 ! D36   D(13,5,6,14)           77.2624                                         !
 ! D37   D(13,5,6,15)          -38.782                                          !
 ! D38   D(5,6,7,8)            146.9853                                         !
 ! D39   D(5,6,7,9)            -32.8571                                         !
 ! D40   D(14,6,7,8)           -88.9477                                         !
 ! D41   D(14,6,7,9)            91.2099                                         !
 ! D42   D(15,6,7,8)            24.4171                                         !
 ! D43   D(15,6,7,9)          -155.4253                                         !
 ! D44   D(3,18,19,20)        -149.7805                                         !
 ! D45   D(3,18,19,22)          89.506                                          !
 ! D46   D(3,18,19,33)         -31.3275                                         !
 ! D47   D(32,18,19,20)         49.4611                                         !
 ! D48   D(32,18,19,22)        -71.2525                                         !
 ! D49   D(32,18,19,33)        167.9141                                         !
 ! D50   D(18,19,20,21)        -23.3326                                         !
 ! D51   D(18,19,20,42)        157.9689                                         !
 ! D52   D(22,19,20,21)         97.3675                                         !
 ! D53   D(22,19,20,42)        -81.3309                                         !
 ! D54   D(33,19,20,21)       -141.7184                                         !
 ! D55   D(33,19,20,42)         39.5832                                         !
 ! D56   D(18,19,22,23)        -67.0384                                         !
 ! D57   D(18,19,22,34)        170.9967                                         !
 ! D58   D(18,19,22,35)         56.0707                                         !
 ! D59   D(20,19,22,23)        173.8896                                         !
 ! D60   D(20,19,22,34)         51.9248                                         !
 ! D61   D(20,19,22,35)        -63.0012                                         !
 ! D62   D(33,19,22,23)         53.3537                                         !
 ! D63   D(33,19,22,34)        -68.6112                                         !
 ! D64   D(33,19,22,35)        176.4628                                         !
 ! D65   D(19,20,42,43)          1.8016                                         !
 ! D66   D(19,20,42,50)       -171.8543                                         !
 ! D67   D(21,20,42,43)       -176.8679                                         !
 ! D68   D(21,20,42,50)          9.4762                                         !
 ! D69   D(19,22,23,24)         75.5421                                         !
 ! D70   D(19,22,23,25)        -99.0987                                         !
 ! D71   D(34,22,23,24)       -162.4134                                         !
 ! D72   D(34,22,23,25)         22.9458                                         !
 ! D73   D(35,22,23,24)        -44.7958                                         !
 ! D74   D(35,22,23,25)        140.5634                                         !
 ! D75   D(22,23,24,28)       -172.9986                                         !
 ! D76   D(22,23,24,36)          4.5064                                         !
 ! D77   D(25,23,24,28)          2.4589                                         !
 ! D78   D(25,23,24,36)        179.9638                                         !
 ! D79   D(22,23,25,26)        174.7401                                         !
 ! D80   D(22,23,25,27)         -7.6984                                         !
 ! D81   D(24,23,25,26)         -0.8307                                         !
 ! D82   D(24,23,25,27)        176.7308                                         !
 ! D83   D(23,24,28,26)         -3.2292                                         !
 ! D84   D(23,24,28,37)       -167.4374                                         !
 ! D85   D(36,24,28,26)        178.9912                                         !
 ! D86   D(36,24,28,37)         14.7831                                         !
 ! D87   D(23,25,26,28)         -1.0765                                         !
 ! D88   D(23,25,26,29)        178.7952                                         !
 ! D89   D(27,25,26,28)       -179.0646                                         !
 ! D90   D(27,25,26,29)          0.8071                                         !
 ! D91   D(23,25,27,30)       -177.4628                                         !
 ! D92   D(23,25,27,38)          0.8714                                         !
 ! D93   D(26,25,27,30)         -0.1265                                         !
 ! D94   D(26,25,27,38)        178.2076                                         !
 ! D95   D(25,26,28,24)          2.6088                                         !
 ! D96   D(25,26,28,37)        166.7158                                         !
 ! D97   D(29,26,28,24)       -177.2486                                         !
 ! D98   D(29,26,28,37)        -13.1416                                         !
 ! D99   D(25,26,29,31)         -0.695                                          !
 ! D100  D(25,26,29,39)       -179.5499                                         !
 ! D101  D(28,26,29,31)        179.1436                                         !
 ! D102  D(28,26,29,39)          0.2887                                         !
 ! D103  D(25,27,30,31)         -0.6261                                         !
 ! D104  D(25,27,30,40)        178.8631                                         !
 ! D105  D(38,27,30,31)       -178.9717                                         !
 ! D106  D(38,27,30,40)          0.5175                                         !
 ! D107  D(26,29,31,30)         -0.0763                                         !
 ! D108  D(26,29,31,41)       -179.1243                                         !
 ! D109  D(39,29,31,30)        178.7804                                         !
 ! D110  D(39,29,31,41)         -0.2675                                         !
 ! D111  D(27,30,31,29)          0.7465                                         !
 ! D112  D(27,30,31,41)        179.7938                                         !
 ! D113  D(40,30,31,29)       -178.7452                                         !
 ! D114  D(40,30,31,41)          0.3021                                         !
 ! D115  D(20,42,43,44)       -131.8014                                         !
 ! D116  D(20,42,43,46)        107.4821                                         !
 ! D117  D(20,42,43,51)         -9.8619                                         !
 ! D118  D(50,42,43,44)         41.8115                                         !
 ! D119  D(50,42,43,46)        -78.9049                                         !
 ! D120  D(50,42,43,51)        163.7511                                         !
 ! D121  D(42,43,44,45)        -32.7546                                         !
 ! D122  D(42,43,44,56)        151.4833                                         !
 ! D123  D(46,43,44,45)         87.5744                                         !
 ! D124  D(46,43,44,56)        -88.1877                                         !
 ! D125  D(51,43,44,45)       -153.0386                                         !
 ! D126  D(51,43,44,56)         31.1993                                         !
 ! D127  D(42,43,46,47)         69.9474                                         !
 ! D128  D(42,43,46,48)       -166.1721                                         !
 ! D129  D(42,43,46,52)        -51.381                                          !
 ! D130  D(44,43,46,47)        -49.2903                                         !
 ! D131  D(44,43,46,48)         74.5903                                         !
 ! D132  D(44,43,46,52)       -170.6187                                         !
 ! D133  D(51,43,46,47)       -171.4638                                         !
 ! D134  D(51,43,46,48)        -47.5833                                         !
 ! D135  D(51,43,46,52)         67.2078                                         !
 ! D136  D(43,44,56,57)        -11.1335                                         !
 ! D137  D(43,44,56,69)        175.3862                                         !
 ! D138  D(45,44,56,57)        173.1785                                         !
 ! D139  D(45,44,56,69)         -0.3019                                         !
 ! D140  D(43,46,47,53)         62.2389                                         !
 ! D141  D(43,46,47,54)        -58.3494                                         !
 ! D142  D(43,46,47,55)       -176.933                                          !
 ! D143  D(48,46,47,53)        -58.6599                                         !
 ! D144  D(48,46,47,54)       -179.2481                                         !
 ! D145  D(48,46,47,55)         62.1683                                         !
 ! D146  D(52,46,47,53)       -178.2888                                         !
 ! D147  D(52,46,47,54)         61.123                                          !
 ! D148  D(52,46,47,55)        -57.4606                                         !
 ! D149  D(43,46,48,49)        176.6062                                         !
 ! D150  D(47,46,48,49)        -57.1467                                         !
 ! D151  D(52,46,48,49)         63.2543                                         !
 ! D152  D(44,56,57,58)        116.2731                                         !
 ! D153  D(44,56,57,60)        -12.476                                          !
 ! D154  D(44,56,57,70)       -131.3805                                         !
 ! D155  D(69,56,57,58)        -70.4307                                         !
 ! D156  D(69,56,57,60)        160.8202                                         !
 ! D157  D(69,56,57,70)         41.9157                                         !
 ! D158  D(56,57,58,59)        127.2715                                         !
 ! D159  D(56,57,58,67)        -53.6982                                         !
 ! D160  D(60,57,58,59)       -101.0421                                         !
 ! D161  D(60,57,58,67)         77.9882                                         !
 ! D162  D(70,57,58,59)         14.5574                                         !
 ! D163  D(70,57,58,67)       -166.4123                                         !
 ! D164  D(56,57,60,61)        172.7087                                         !
 ! D165  D(56,57,60,71)         53.3694                                         !
 ! D166  D(56,57,60,72)        -64.7033                                         !
 ! D167  D(58,57,60,61)         44.5417                                         !
 ! D168  D(58,57,60,71)        -74.7976                                         !
 ! D169  D(58,57,60,72)        167.1297                                         !
 ! D170  D(70,57,60,61)        -69.4666                                         !
 ! D171  D(70,57,60,71)        171.1942                                         !
 ! D172  D(70,57,60,72)         53.1214                                         !
 ! D173  D(57,58,67,68)         -1.9578                                         !
 ! D174  D(59,58,67,68)        177.0688                                         !
 ! D175  D(57,60,61,62)         46.3623                                         !
 ! D176  D(57,60,61,73)        169.9887                                         !
 ! D177  D(57,60,61,74)        -76.7733                                         !
 ! D178  D(71,60,61,62)        168.2438                                         !
 ! D179  D(71,60,61,73)        -68.1297                                         !
 ! D180  D(71,60,61,74)         45.1082                                         !
 ! D181  D(72,60,61,62)        -75.2085                                         !
 ! D182  D(72,60,61,73)         48.4179                                         !
 ! D183  D(72,60,61,74)        161.6559                                         !
 ! D184  D(60,61,62,63)         36.2817                                         !
 ! D185  D(60,61,62,75)        157.0094                                         !
 ! D186  D(60,61,62,76)        -86.4445                                         !
 ! D187  D(73,61,62,63)        -85.5808                                         !
 ! D188  D(73,61,62,75)         35.1468                                         !
 ! D189  D(73,61,62,76)        151.6929                                         !
 ! D190  D(74,61,62,63)        160.5741                                         !
 ! D191  D(74,61,62,75)        -78.6983                                         !
 ! D192  D(74,61,62,76)         37.8479                                         !
 ! D193  D(61,62,63,64)       -131.4851                                         !
 ! D194  D(61,62,63,77)         52.2481                                         !
 ! D195  D(75,62,63,64)        107.6734                                         !
 ! D196  D(75,62,63,77)        -68.5934                                         !
 ! D197  D(76,62,63,64)         -8.3661                                         !
 ! D198  D(76,62,63,77)        175.367                                          !
 ! D199  D(62,63,64,65)         15.3224                                         !
 ! D200  D(62,63,64,66)       -163.3351                                         !
 ! D201  D(77,63,64,65)       -168.5134                                         !
 ! D202  D(77,63,64,66)         12.8292                                         !
 ! D203  D(63,64,65,78)       -173.8407                                         !
 ! D204  D(63,64,65,79)         24.1563                                         !
 ! D205  D(66,64,65,78)          4.7968                                         !
 ! D206  D(66,64,65,79)       -157.2063                                         !
 ! D207  D(63,64,66,80)        -10.8641                                         !
 ! D208  D(63,64,66,81)       -159.202                                          !
 ! D209  D(65,64,66,80)        170.4698                                         !
 ! D210  D(65,64,66,81)         22.1319                                         !
 --------------------------------------------------------------------------------
 Symmetry turned off by external request.
 Stoichiometry    C26H39N8O8(1+)
 Framework group  C1[X(C26H39N8O8)]
 Deg. of freedom   237
 Full point group                 C1      NOp   1
                          Input orientation:                          
 ---------------------------------------------------------------------
 Center     Atomic      Atomic             Coordinates (Angstroms)
 Number     Number       Type             X           Y           Z
 ---------------------------------------------------------------------
      1          7           0       10.107715   33.871692   13.127636
      2          6           0        8.936329   34.753222   12.762507
      3          6           0        7.643016   34.534828   13.582198
      4          8           0        7.229973   35.465891   14.258796
      5          6           0        8.655160   34.710982   11.250811
      6          6           0        9.708653   35.411730   10.373321
      7          6           0       10.966834   34.600771   10.050898
      8          8           0       11.509814   34.779882    8.954113
      9          8           0       11.401927   33.760808   10.944213
     10          1           0        9.827662   32.917901   13.373870
     11          1           0        9.241086   35.765453   13.033828
     12          1           0        8.503602   33.677345   10.916578
     13          1           0        7.695061   35.217314   11.107395
     14          1           0       10.023625   36.353781   10.844083
     15          1           0        9.263054   35.690947    9.415462
     16          1           0       10.789235   33.827649   12.215463
     17          1           0       10.587643   34.222213   13.959779
     18          7           0        6.898105   33.404435   13.383599
     19          6           0        7.309332   32.049623   13.070799
     20          6           0        6.184992   31.397425   12.238156
     21          8           0        5.044169   31.824103   12.313108
     22          6           0        7.557979   31.238779   14.382049
     23          6           0        8.736660   31.745441   15.154162
     24          6           0        8.808628   32.882998   15.926962
     25          6           0       10.064803   31.173006   15.136925
     26          6           0       10.900772   32.028478   15.906830
     27          6           0       10.613907   30.001155   14.581878
     28          7           0       10.113335   33.081801   16.345226
     29          6           0       12.256627   31.756736   16.120257
     30          6           0       11.956177   29.722234   14.803781
     31          6           0       12.770672   30.593970   15.558104
     32          1           0        5.957803   33.467855   13.765358
     33          1           0        8.225014   32.082175   12.475475
     34          1           0        7.709786   30.182951   14.137013
     35          1           0        6.634170   31.290411   14.969168
     36          1           0        8.036742   33.593922   16.186773
     37          1           0       10.383092   33.738872   17.063997
     38          1           0        9.997406   29.310243   14.012617
     39          1           0       12.879169   32.417176   16.717013
     40          1           0       12.389470   28.812865   14.397782
     41          1           0       13.815462   30.344220   15.715479
     42          7           0        6.510565   30.326102   11.450959
     43          6           0        7.786081   29.654378   11.290095
     44          6           0        8.054974   29.493058    9.782391
     45          8           0        7.087379   29.327156    9.049110
     46          6           0        7.744989   28.265348   11.988515
     47          6           0        6.860196   27.224356   11.317358
     48          8           0        9.119956   27.820475   12.070019
     49          1           0        9.142076   26.975931   12.551132
     50          1           0        5.770719   30.016184   10.828089
     51          1           0        8.560316   30.236517   11.778839
     52          1           0        7.384243   28.448927   13.008151
     53          1           0        7.208174   26.993102   10.307438
     54          1           0        5.827764   27.579282   11.250814
     55          1           0        6.854368   26.302664   11.910251
     56          7           0        9.319962   29.443171    9.249672
     57          6           0       10.715794   29.681497    9.655632
     58          6           0       11.524938   28.371052    9.580429
     59          8           0       12.572470   28.313023    8.957915
     60          6           0       10.939525   30.405288   10.993993
     61          6           0       12.399853   30.491004   11.485641
     62          6           0       13.492478   30.914960   10.487808
     63          7           0       13.042954   31.928743    9.537249
     64          6           0       13.212677   31.888026    8.212676
     65          7           0       13.559453   30.741342    7.593662
     66          7           0       13.058528   33.017754    7.506746
     67          8           0       11.049962   27.320436   10.232018
     68          1           0       10.219207   27.541543   10.723205
     69          1           0        9.234062   29.256790    8.253944
     70          1           0       11.138300   30.312172    8.872582
     71          1           0       10.399700   29.892661   11.788834
     72          1           0       10.533060   31.417645   10.889756
     73          1           0       12.392157   31.180899   12.334737
     74          1           0       12.701657   29.522004   11.899529
     75          1           0       14.345074   31.316607   11.048651
     76          1           0       13.857119   30.047813    9.943743
     77          1           0       12.608078   32.764810    9.952557
     78          1           0       13.772762   30.756299    6.607292
     79          1           0       13.352244   29.833616    8.015747
     80          1           0       12.647642   33.826653    8.001942
     81          1           0       12.869434   32.950489    6.516209
 ---------------------------------------------------------------------
 Rotational constants (GHZ):           0.0937113           0.0729962           0.0654228
 Standard basis: 6-31G(d) (6D, 7F)
   708 basis functions,  1332 primitive gaussians,   708 cartesian basis functions
   157 alpha electrons      157 beta electrons
       nuclear repulsion energy      5752.7490668259 Hartrees.
 NAtoms=   81 NActive=   81 NUniq=   81 SFac= 1.00D+00 NAtFMM=   60 NAOKFM=T Big=T
 Integral buffers will be    131072 words long.
 Raffenetti 2 integral format.
 Two-electron integral symmetry is turned off.
 Nuclear repulsion after empirical dispersion term =     5752.6169428203 Hartrees.
 One-electron integrals computed using PRISM.
 NBasis=   708 RedAO= T EigKep=  3.56D-04  NBF=   708
 NBsUse=   708 1.00D-06 EigRej= -1.00D+00 NBFU=   708
 Initial guess from the checkpoint file:  "conf-123.chk"
 B after Tr=     0.000000    0.000000    0.000000
         Rot=    1.000000    0.000000    0.000000    0.000000 Ang=   0.00 deg.
 Requested convergence on RMS density matrix=1.00D-08 within 128 cycles.
 Requested convergence on MAX density matrix=1.00D-06.
 Requested convergence on             energy=1.00D-06.
 No special actions if energy rises.
 SCF Done:  E(RB3LYP) =  -2054.06929347     A.U. after    1 cycles
            NFock=  1  Conv=0.79D-08     -V/T= 2.0093

 **********************************************************************

            Population analysis using the SCF Density.

 **********************************************************************

 Alpha  occ. eigenvalues --  -19.30309 -19.29419 -19.24989 -19.23118 -19.22994
 Alpha  occ. eigenvalues --  -19.22239 -19.22066 -19.20956 -14.53296 -14.49536
 Alpha  occ. eigenvalues --  -14.48365 -14.47835 -14.47570 -14.46955 -14.46750
 Alpha  occ. eigenvalues --  -14.46598 -10.44329 -10.43120 -10.41022 -10.40235
 Alpha  occ. eigenvalues --  -10.39879 -10.39459 -10.37397 -10.36593 -10.36385
 Alpha  occ. eigenvalues --  -10.36253 -10.36044 -10.33373 -10.33261 -10.33213
 Alpha  occ. eigenvalues --  -10.31382 -10.31352 -10.31202 -10.30317 -10.29991
 Alpha  occ. eigenvalues --  -10.29947 -10.29802 -10.29637 -10.29258 -10.29171
 Alpha  occ. eigenvalues --  -10.28975 -10.28796  -1.21007  -1.16870  -1.15494
 Alpha  occ. eigenvalues --   -1.15200  -1.14722  -1.14029  -1.12834  -1.12466
 Alpha  occ. eigenvalues --   -1.09473  -1.08792  -1.05932  -1.04110  -1.03663
 Alpha  occ. eigenvalues --   -1.03460  -1.02205  -1.00587  -0.94961  -0.92111
 Alpha  occ. eigenvalues --   -0.91786  -0.90973  -0.89848  -0.87125  -0.86000
 Alpha  occ. eigenvalues --   -0.84555  -0.83294  -0.83250  -0.82696  -0.80008
 Alpha  occ. eigenvalues --   -0.78378  -0.75595  -0.74572  -0.74273  -0.73176
 Alpha  occ. eigenvalues --   -0.72820  -0.72454  -0.71846  -0.70274  -0.70221
 Alpha  occ. eigenvalues --   -0.69736  -0.69207  -0.68209  -0.67311  -0.66675
 Alpha  occ. eigenvalues --   -0.66128  -0.65759  -0.64839  -0.64568  -0.63722
 Alpha  occ. eigenvalues --   -0.62916  -0.62289  -0.61361  -0.61226  -0.60362
 Alpha  occ. eigenvalues --   -0.59744  -0.59610  -0.59207  -0.58810  -0.58238
 Alpha  occ. eigenvalues --   -0.57730  -0.57439  -0.57152  -0.56975  -0.56699
 Alpha  occ. eigenvalues --   -0.55808  -0.55477  -0.55044  -0.54673  -0.54184
 Alpha  occ. eigenvalues --   -0.54066  -0.53863  -0.53677  -0.53313  -0.52821
 Alpha  occ. eigenvalues --   -0.52650  -0.52404  -0.52035  -0.51640  -0.51204
 Alpha  occ. eigenvalues --   -0.51137  -0.50931  -0.50002  -0.49774  -0.49310
 Alpha  occ. eigenvalues --   -0.48974  -0.48773  -0.48573  -0.48406  -0.47953
 Alpha  occ. eigenvalues --   -0.47400  -0.47023  -0.46734  -0.46457  -0.46192
 Alpha  occ. eigenvalues --   -0.45602  -0.45484  -0.45157  -0.44375  -0.44113
 Alpha  occ. eigenvalues --   -0.42104  -0.41994  -0.40025  -0.39155  -0.39077
 Alpha  occ. eigenvalues --   -0.38200  -0.37774  -0.37430  -0.37010  -0.36754
 Alpha  occ. eigenvalues --   -0.36331  -0.36115  -0.35782  -0.35171  -0.34569
 Alpha  occ. eigenvalues --   -0.33599  -0.31660
 Alpha virt. eigenvalues --   -0.12569  -0.11411  -0.10289  -0.09712  -0.09223
 Alpha virt. eigenvalues --   -0.08924  -0.08611  -0.07024  -0.06520  -0.06231
 Alpha virt. eigenvalues --   -0.05197  -0.04158  -0.04008  -0.02601  -0.01805
 Alpha virt. eigenvalues --   -0.01662  -0.01204  -0.00463   0.00348   0.00371
 Alpha virt. eigenvalues --    0.00453   0.01097   0.01401   0.02134   0.02337
 Alpha virt. eigenvalues --    0.02549   0.03072   0.03498   0.04217   0.04386
 Alpha virt. eigenvalues --    0.04700   0.04907   0.05065   0.05339   0.05944
 Alpha virt. eigenvalues --    0.06061   0.06542   0.06747   0.07085   0.07402
 Alpha virt. eigenvalues --    0.07948   0.08070   0.08235   0.08440   0.08607
 Alpha virt. eigenvalues --    0.08688   0.08973   0.09215   0.09696   0.10300
 Alpha virt. eigenvalues --    0.10501   0.11189   0.11478   0.11777   0.12049
 Alpha virt. eigenvalues --    0.12342   0.13404   0.13662   0.13907   0.14222
 Alpha virt. eigenvalues --    0.14463   0.14855   0.15121   0.15414   0.15888
 Alpha virt. eigenvalues --    0.16467   0.16834   0.17043   0.17635   0.17818
 Alpha virt. eigenvalues --    0.18144   0.19618   0.20253   0.21622   0.23249
 Alpha virt. eigenvalues --    0.23717   0.24288   0.24913   0.25772   0.26482
 Alpha virt. eigenvalues --    0.27377   0.28357   0.28711   0.29460   0.30008
 Alpha virt. eigenvalues --    0.30340   0.31307   0.31692   0.32887   0.33728
 Alpha virt. eigenvalues --    0.35565   0.37136   0.37769   0.38653   0.38734
 Alpha virt. eigenvalues --    0.39749   0.40121   0.40408   0.40703   0.41188
 Alpha virt. eigenvalues --    0.41870   0.42459   0.42867   0.43348   0.43934
 Alpha virt. eigenvalues --    0.44265   0.44447   0.44917   0.45216   0.45540
 Alpha virt. eigenvalues --    0.45919   0.46225   0.46740   0.47224   0.47645
 Alpha virt. eigenvalues --    0.47846   0.47980   0.48617   0.49053   0.49235
 Alpha virt. eigenvalues --    0.49291   0.49420   0.49895   0.50224   0.50703
 Alpha virt. eigenvalues --    0.51213   0.51439   0.52016   0.52201   0.52934
 Alpha virt. eigenvalues --    0.53109   0.53731   0.54089   0.54388   0.55045
 Alpha virt. eigenvalues --    0.55279   0.55573   0.56039   0.56403   0.56520
 Alpha virt. eigenvalues --    0.57153   0.57515   0.57574   0.57914   0.58308
 Alpha virt. eigenvalues --    0.58578   0.59297   0.59933   0.60194   0.61273
 Alpha virt. eigenvalues --    0.61834   0.61978   0.63263   0.63530   0.64471
 Alpha virt. eigenvalues --    0.64797   0.65212   0.65588   0.66177   0.66702
 Alpha virt. eigenvalues --    0.67518   0.68502   0.69097   0.69506   0.69713
 Alpha virt. eigenvalues --    0.70590   0.71047   0.71569   0.72192   0.72595
 Alpha virt. eigenvalues --    0.72720   0.72899   0.73261   0.73755   0.73971
 Alpha virt. eigenvalues --    0.74144   0.74586   0.75067   0.75148   0.75666
 Alpha virt. eigenvalues --    0.75943   0.76351   0.76405   0.76689   0.76848
 Alpha virt. eigenvalues --    0.77397   0.77627   0.78219   0.78277   0.78615
 Alpha virt. eigenvalues --    0.78842   0.79944   0.80272   0.80842   0.81034
 Alpha virt. eigenvalues --    0.81280   0.81682   0.82430   0.82756   0.82899
 Alpha virt. eigenvalues --    0.83380   0.83808   0.84184   0.84524   0.84710
 Alpha virt. eigenvalues --    0.85239   0.85659   0.86096   0.86627   0.86920
 Alpha virt. eigenvalues --    0.87248   0.88039   0.88054   0.88561   0.89267
 Alpha virt. eigenvalues --    0.89889   0.90258   0.91775   0.91945   0.92618
 Alpha virt. eigenvalues --    0.92859   0.93580   0.94383   0.94437   0.94854
 Alpha virt. eigenvalues --    0.96338   0.96623   0.96984   0.97921   0.98326
 Alpha virt. eigenvalues --    0.99329   0.99508   1.00040   1.00643   1.00855
 Alpha virt. eigenvalues --    1.01575   1.01909   1.02554   1.03046   1.03502
 Alpha virt. eigenvalues --    1.03966   1.04060   1.05374   1.05665   1.06281
 Alpha virt. eigenvalues --    1.07076   1.08112   1.08237   1.09025   1.09704
 Alpha virt. eigenvalues --    1.09859   1.10355   1.12478   1.12808   1.13240
 Alpha virt. eigenvalues --    1.14692   1.15790   1.15903   1.16269   1.17767
 Alpha virt. eigenvalues --    1.18796   1.19746   1.20126   1.20518   1.21037
 Alpha virt. eigenvalues --    1.21804   1.22722   1.23742   1.24238   1.24670
 Alpha virt. eigenvalues --    1.25785   1.26390   1.27050   1.27864   1.28395
 Alpha virt. eigenvalues --    1.28489   1.29284   1.29911   1.30615   1.31608
 Alpha virt. eigenvalues --    1.32160   1.32781   1.33595   1.33714   1.33937
 Alpha virt. eigenvalues --    1.34828   1.35896   1.36491   1.37162   1.37511
 Alpha virt. eigenvalues --    1.38529   1.39343   1.39486   1.40348   1.40622
 Alpha virt. eigenvalues --    1.42248   1.42928   1.43290   1.44772   1.45499
 Alpha virt. eigenvalues --    1.46065   1.46336   1.47058   1.47966   1.48634
 Alpha virt. eigenvalues --    1.49487   1.50600   1.51356   1.51745   1.52393
 Alpha virt. eigenvalues --    1.53155   1.54116   1.54546   1.55432   1.56344
 Alpha virt. eigenvalues --    1.57075   1.58310   1.58677   1.59627   1.60508
 Alpha virt. eigenvalues --    1.60733   1.61910   1.63183   1.63415   1.63663
 Alpha virt. eigenvalues --    1.65543   1.65625   1.66462   1.66797   1.67011
 Alpha virt. eigenvalues --    1.67561   1.68082   1.68382   1.68895   1.69241
 Alpha virt. eigenvalues --    1.69752   1.70448   1.70882   1.70938   1.71438
 Alpha virt. eigenvalues --    1.71750   1.71969   1.72955   1.73227   1.73681
 Alpha virt. eigenvalues --    1.73986   1.74907   1.75446   1.75903   1.76450
 Alpha virt. eigenvalues --    1.76747   1.77038   1.77518   1.78467   1.78966
 Alpha virt. eigenvalues --    1.79865   1.80283   1.80497   1.81263   1.81653
 Alpha virt. eigenvalues --    1.82391   1.83225   1.83270   1.83863   1.84462
 Alpha virt. eigenvalues --    1.84914   1.85258   1.85497   1.86209   1.86518
 Alpha virt. eigenvalues --    1.86947   1.87561   1.88887   1.89539   1.90037
 Alpha virt. eigenvalues --    1.91212   1.91610   1.91825   1.92339   1.92526
 Alpha virt. eigenvalues --    1.93172   1.93732   1.94274   1.94979   1.95202
 Alpha virt. eigenvalues --    1.95991   1.96389   1.96954   1.97519   1.98029
 Alpha virt. eigenvalues --    1.98252   1.99121   1.99590   2.00580   2.00979
 Alpha virt. eigenvalues --    2.02228   2.03181   2.03784   2.04206   2.04627
 Alpha virt. eigenvalues --    2.05232   2.05574   2.06618   2.07174   2.08100
 Alpha virt. eigenvalues --    2.09001   2.09502   2.11774   2.14033   2.14301
 Alpha virt. eigenvalues --    2.14626   2.15167   2.15586   2.16189   2.16613
 Alpha virt. eigenvalues --    2.17239   2.17927   2.18914   2.19438   2.20839
 Alpha virt. eigenvalues --    2.21471   2.22529   2.24029   2.24262   2.24706
 Alpha virt. eigenvalues --    2.26370   2.27502   2.27835   2.27908   2.28629
 Alpha virt. eigenvalues --    2.28872   2.29779   2.30458   2.31002   2.31708
 Alpha virt. eigenvalues --    2.31913   2.34351   2.34872   2.35624   2.36376
 Alpha virt. eigenvalues --    2.36608   2.38101   2.38798   2.39190   2.40171
 Alpha virt. eigenvalues --    2.41650   2.42176   2.43304   2.43519   2.44095
 Alpha virt. eigenvalues --    2.45135   2.45827   2.46153   2.46831   2.48567
 Alpha virt. eigenvalues --    2.49225   2.49367   2.50060   2.51403   2.51455
 Alpha virt. eigenvalues --    2.52538   2.52969   2.54467   2.55203   2.55568
 Alpha virt. eigenvalues --    2.56130   2.56683   2.57432   2.58227   2.58667
 Alpha virt. eigenvalues --    2.59180   2.60283   2.60580   2.62404   2.63672
 Alpha virt. eigenvalues --    2.63970   2.65367   2.65627   2.66491   2.66633
 Alpha virt. eigenvalues --    2.67800   2.69804   2.70843   2.72980   2.74013
 Alpha virt. eigenvalues --    2.76759   2.77368   2.79897   2.81788   2.82901
 Alpha virt. eigenvalues --    2.85820   2.87609   2.88628   2.90103   2.90479
 Alpha virt. eigenvalues --    2.91989   2.92589   2.93897   2.94969   2.96694
 Alpha virt. eigenvalues --    2.98019   2.99785   3.00922   3.01407   3.02936
 Alpha virt. eigenvalues --    3.05967   3.10780   3.13709   3.33238   3.73717
 Alpha virt. eigenvalues --    3.77659   3.80485   3.81823   3.84567   3.87775
 Alpha virt. eigenvalues --    3.91084   3.93823   3.94223   3.97103   3.98960
 Alpha virt. eigenvalues --    4.00608   4.01984   4.02952   4.03984   4.05484
 Alpha virt. eigenvalues --    4.06811   4.07190   4.12772   4.14881   4.17304
 Alpha virt. eigenvalues --    4.18356   4.20755   4.22440   4.24402   4.24572
 Alpha virt. eigenvalues --    4.26942   4.28642   4.30839   4.32409   4.34469
 Alpha virt. eigenvalues --    4.39633   4.39946   4.45070   4.47422   4.48663
 Alpha virt. eigenvalues --    4.49150   4.55766   4.58999   4.61503   4.65372
 Alpha virt. eigenvalues --    4.70386
          Condensed to atoms (all electrons):
 Mulliken charges:
               1
     1  N   -0.822013
     2  C   -0.085461
     3  C    0.578481
     4  O   -0.481602
     5  C   -0.306841
     6  C   -0.375999
     7  C    0.634772
     8  O   -0.541667
     9  O   -0.661421
    10  H    0.400433
    11  H    0.210511
    12  H    0.160804
    13  H    0.203680
    14  H    0.183014
    15  H    0.196788
    16  H    0.461998
    17  H    0.392271
    18  N   -0.565342
    19  C   -0.098522
    20  C    0.626660
    21  O   -0.482071
    22  C   -0.360884
    23  C    0.028493
    24  C   -0.012957
    25  C    0.048856
    26  C    0.287560
    27  C   -0.224482
    28  N   -0.688077
    29  C   -0.163310
    30  C   -0.147399
    31  C   -0.151377
    32  H    0.364313
    33  H    0.134275
    34  H    0.163930
    35  H    0.190049
    36  H    0.204241
    37  H    0.354199
    38  H    0.141575
    39  H    0.154275
    40  H    0.143403
    41  H    0.155837
    42  N   -0.609039
    43  C   -0.080473
    44  C    0.621466
    45  O   -0.494721
    46  C    0.119800
    47  C   -0.478539
    48  O   -0.651780
    49  H    0.431107
    50  H    0.369903
    51  H    0.158644
    52  H    0.166092
    53  H    0.190279
    54  H    0.186449
    55  H    0.164790
    56  N   -0.638917
    57  C   -0.062456
    58  C    0.624484
    59  O   -0.477404
    60  C   -0.334629
    61  C   -0.292413
    62  C   -0.163891
    63  N   -0.628713
    64  C    0.750028
    65  N   -0.788248
    66  N   -0.773487
    67  O   -0.575808
    68  H    0.457018
    69  H    0.354390
    70  H    0.175775
    71  H    0.183984
    72  H    0.164731
    73  H    0.168047
    74  H    0.169359
    75  H    0.184198
    76  H    0.195256
    77  H    0.413162
    78  H    0.362387
    79  H    0.415294
    80  H    0.422051
    81  H    0.350831
 Sum of Mulliken charges =   1.00000
 Mulliken charges with hydrogens summed into heavy atoms:
               1
     1  N    0.432689
     2  C    0.125050
     3  C    0.578481
     4  O   -0.481602
     5  C    0.057643
     6  C    0.003803
     7  C    0.634772
     8  O   -0.541667
     9  O   -0.661421
    18  N   -0.201029
    19  C    0.035754
    20  C    0.626660
    21  O   -0.482071
    22  C   -0.006905
    23  C    0.028493
    24  C    0.191284
    25  C    0.048856
    26  C    0.287560
    27  C   -0.082907
    28  N   -0.333877
    29  C   -0.009035
    30  C   -0.003996
    31  C    0.004459
    42  N   -0.239137
    43  C    0.078171
    44  C    0.621466
    45  O   -0.494721
    46  C    0.285893
    47  C    0.062979
    48  O   -0.220674
    56  N   -0.284527
    57  C    0.113319
    58  C    0.624484
    59  O   -0.477404
    60  C    0.014087
    61  C    0.044993
    62  C    0.215563
    63  N   -0.215552
    64  C    0.750028
    65  N   -0.010567
    66  N   -0.000605
    67  O   -0.118790
 Electronic spatial extent (au):  <R**2>=        1390864.9395
 Charge=              1.0000 electrons
 Dipole moment (field-independent basis, Debye):
    X=             53.2185    Y=            149.7836    Z=             57.7140  Tot=            169.1101
 Quadrupole moment (field-independent basis, Debye-Ang):
   XX=            347.6058   YY=           4451.3767   ZZ=            515.1055
   XY=           1679.4032   XZ=            623.4395   YZ=           1805.2226
 Traceless Quadrupole moment (field-independent basis, Debye-Ang):
   XX=          -1423.7569   YY=           2680.0140   ZZ=          -1256.2571
   XY=           1679.4032   XZ=            623.4395   YZ=           1805.2226
 Octapole moment (field-independent basis, Debye-Ang**2):
  XXX=           -477.6648  YYY=         124917.1059  ZZZ=           1841.8343  XYY=          50784.6225
  XXY=          11132.6279  XXZ=           3864.1425  XZZ=           5726.7716  YZZ=          16228.4083
  YYZ=          53918.0766  XYZ=          19769.1174
 Hexadecapole moment (field-independent basis, Debye-Ang**3):
 XXXX=         -71138.8242 YYYY=        3228152.2067 ZZZZ=         -64342.1524 XXXY=         -11772.5692
 XXXZ=          -9397.1067 YYYX=        1463950.7626 YYYZ=        1524497.4897 ZZZX=          28402.2420
 ZZZY=          60650.3843 XXYY=         331371.5164 XXZZ=          26673.4151 YYZZ=         478877.3586
 XXYZ=         124909.1427 YYXZ=         601765.8549 ZZXY=         184069.6259
 N-N= 5.752616942820D+03 E-N=-1.625882151099D+04  KE= 2.035167819306D+03
 Unable to Open any file for archive entry.
 1\1\GINC-LAC-256\SP\RB3LYP\6-31G(d)\C26H39N8O8(1+)\KENGMITH\27-May-202
 2\0\\# B3LYP/6-31G* empiricaldispersion=gd3 guess=read geom=check nosy
 mm integral(ultrafinegrid)\\Candidate Structure: Conf:123 Charge calc 
 in gas phase\\1,1\N,0,10.1077151088,33.871691706,13.1276363162\C,0,8.9
 363288793,34.7532218768,12.7625073797\C,0,7.6430158171,34.5348280702,1
 3.5821984408\O,0,7.229972897,35.4658912886,14.2587963073\C,0,8.6551600
 382,34.710982409,11.250810776\C,0,9.7086527296,35.4117298799,10.373320
 9004\C,0,10.9668342124,34.6007710106,10.0508979444\O,0,11.509814001,34
 .7798819371,8.9541133687\O,0,11.4019265997,33.7608080875,10.9442126909
 \H,0,9.8276620788,32.9179008665,13.3738704909\H,0,9.2410856303,35.7654
 531923,13.033828437\H,0,8.5036020768,33.6773445818,10.9165775371\H,0,7
 .6950611369,35.2173139127,11.1073948528\H,0,10.0236245552,36.353780985
 2,10.8440832081\H,0,9.2630538442,35.6909474101,9.4154615261\H,0,10.789
 2346915,33.827649385,12.2154633477\H,0,10.5876434083,34.222212633,13.9
 597787077\N,0,6.8981049603,33.4044350902,13.3835991696\C,0,7.309332203
 2,32.0496230453,13.0707990727\C,0,6.1849919002,31.3974245259,12.238155
 8552\O,0,5.0441689599,31.8241032845,12.3131079777\C,0,7.5579789764,31.
 2387792911,14.3820485343\C,0,8.7366604717,31.7454408271,15.1541619598\
 C,0,8.8086275144,32.8829979707,15.926962132\C,0,10.064802922,31.173005
 9523,15.1369250552\C,0,10.9007715897,32.028477753,15.9068295496\C,0,10
 .6139069908,30.0011548228,14.5818778345\N,0,10.1133354618,33.081800916
 3,16.345225732\C,0,12.2566268297,31.7567356761,16.1202572777\C,0,11.95
 61765717,29.7222336972,14.8037814674\C,0,12.7706721545,30.5939697722,1
 5.5581044775\H,0,5.9578026794,33.4678546486,13.7653580027\H,0,8.225014
 4026,32.0821751884,12.4754754759\H,0,7.7097860186,30.1829509719,14.137
 0126612\H,0,6.6341704058,31.2904111247,14.9691682774\H,0,8.0367420871,
 33.5939215154,16.1867729909\H,0,10.3830915789,33.7388716089,17.0639974
 853\H,0,9.9974058316,29.310242691,14.0126172817\H,0,12.8791687072,32.4
 171759333,16.7170126551\H,0,12.3894704895,28.812865479,14.3977821506\H
 ,0,13.8154618724,30.3442195068,15.7154788749\N,0,6.5105647878,30.32610
 21679,11.4509593142\C,0,7.7860810095,29.6543776503,11.2900945273\C,0,8
 .0549738291,29.4930584033,9.7823906202\O,0,7.087378783,29.3271562956,9
 .0491100694\C,0,7.7449889373,28.265347753,11.9885154625\C,0,6.86019586
 29,27.2243556007,11.3173583054\O,0,9.1199559066,27.8204751628,12.07001
 9429\H,0,9.1420760625,26.9759310827,12.5511320567\H,0,5.7707187812,30.
 0161835091,10.8280888576\H,0,8.5603156149,30.2365174603,11.7788390742\
 H,0,7.3842433851,28.4489267145,13.0081505927\H,0,7.2081740004,26.99310
 18157,10.3074376917\H,0,5.8277636746,27.5792818907,11.2508139323\H,0,6
 .8543679993,26.3026638702,11.9102508337\N,0,9.3199624922,29.4431707846
 ,9.2496722089\C,0,10.7157939573,29.6814965375,9.6556323882\C,0,11.5249
 379374,28.3710520834,9.5804293015\O,0,12.5724704277,28.3130232832,8.95
 79154184\C,0,10.9395245971,30.4052878744,10.9939934696\C,0,12.39985291
 57,30.4910042026,11.4856413291\C,0,13.4924781821,30.9149604227,10.4878
 079506\N,0,13.0429538855,31.9287431142,9.537249389\C,0,13.2126768299,3
 1.8880263406,8.2126759812\N,0,13.5594530378,30.741341722,7.5936622689\
 N,0,13.0585279953,33.0177535963,7.5067463781\O,0,11.0499621635,27.3204
 361876,10.2320184274\H,0,10.219207277,27.5415430447,10.7232052884\H,0,
 9.2340620386,29.2567903485,8.2539438962\H,0,11.138300379,30.3121718561
 ,8.8725817475\H,0,10.3997004677,29.89266065,11.788834402\H,0,10.533059
 663,31.4176452058,10.8897562568\H,0,12.392157285,31.1808993957,12.3347
 367973\H,0,12.7016565998,29.522004076,11.899528622\H,0,14.3450741064,3
 1.3166073332,11.0486511969\H,0,13.857119076,30.0478128798,9.9437430491
 \H,0,12.6080782038,32.7648099852,9.9525570339\H,0,13.7727620726,30.756
 2994052,6.6072924916\H,0,13.3522441877,29.8336161202,8.0157471566\H,0,
 12.6476420111,33.8266530233,8.0019418965\H,0,12.8694344519,32.95048907
 54,6.5162092244\\Version=ES64L-G16RevC.01\HF=-2054.0692935\RMSD=7.860e
 -09\Dipole=2.3045257,-0.3997612,0.3503642\Quadrupole=-1058.5283266,199
 2.5247156,-933.9963889,1248.5951381,463.5119982,1342.1387558\PG=C01 [X
 (C26H39N8O8)]\\@
 The archive entry for this job was punched.


 POCKETA-POCKETA
 BARON VON RICHTOFEN
 SLAUGHTERED THE ALLIES WITH
 HARDLY A CARE.
 KILLED EIGHTY-ONE WITH HIS
 BLOOD-COLORED TRIPLANE, THEN
 UN-AEROBATICALLY
 PLUNGED FROM THE AIR.
   -- TONY HOFFMAN
 Job cpu time:       0 days  0 hours  3 minutes 10.9 seconds.
 Elapsed time:       0 days  0 hours  0 minutes 48.3 seconds.
 File lengths (MBytes):  RWF=    376 Int=      0 D2E=      0 Chk=     56 Scr=     16
 Normal termination of Gaussian 16 at Fri May 27 05:10:02 2022.
