 Entering Gaussian System, Link 0=/opt/software/Gaussian/g16-AVX2-C.01/g16/g16
 Input=charge-conf-876.com
 Output=charge-conf-876.log
 Initial command:
 /opt/software/Gaussian/g16-AVX2-C.01/g16/l1.exe "/mnt/gs18/scratch/users/kengmith/Gau-4269.inp" -scrdir="/mnt/gs18/scratch/users/kengmith/"
 Entering Link 1 = /opt/software/Gaussian/g16-AVX2-C.01/g16/l1.exe PID=      4313.
  
 Copyright (c) 1988-2019, Gaussian, Inc.  All Rights Reserved.
  
 This is part of the Gaussian(R) 16 program.  It is based on
 the Gaussian(R) 09 system (copyright 2009, Gaussian, Inc.),
 the Gaussian(R) 03 system (copyright 2003, Gaussian, Inc.),
 the Gaussian(R) 98 system (copyright 1998, Gaussian, Inc.),
 the Gaussian(R) 94 system (copyright 1995, Gaussian, Inc.),
 the Gaussian 92(TM) system (copyright 1992, Gaussian, Inc.),
 the Gaussian 90(TM) system (copyright 1990, Gaussian, Inc.),
 the Gaussian 88(TM) system (copyright 1988, Gaussian, Inc.),
 the Gaussian 86(TM) system (copyright 1986, Carnegie Mellon
 University), and the Gaussian 82(TM) system (copyright 1983,
 Carnegie Mellon University). Gaussian is a federally registered
 trademark of Gaussian, Inc.
  
 This software contains proprietary and confidential information,
 including trade secrets, belonging to Gaussian, Inc.
  
 This software is provided under written license and may be
 used, copied, transmitted, or stored only in accord with that
 written license.
  
 The following legend is applicable only to US Government
 contracts under FAR:
  
                    RESTRICTED RIGHTS LEGEND
  
 Use, reproduction and disclosure by the US Government is
 subject to restrictions as set forth in subparagraphs (a)
 and (c) of the Commercial Computer Software - Restricted
 Rights clause in FAR 52.227-19.
  
 Gaussian, Inc.
 340 Quinnipiac St., Bldg. 40, Wallingford CT 06492
  
  
 ---------------------------------------------------------------
 Warning -- This program may not be used in any manner that
 competes with the business of Gaussian, Inc. or will provide
 assistance to any competitor of Gaussian, Inc.  The licensee
 of this program is prohibited from giving any competitor of
 Gaussian, Inc. access to this program.  By using this program,
 the user acknowledges that Gaussian, Inc. is engaged in the
 business of creating and licensing software in the field of
 computational chemistry and represents and warrants to the
 licensee that it is not a competitor of Gaussian, Inc. and that
 it will not use this program in any manner prohibited above.
 ---------------------------------------------------------------
  

 Cite this work as:
 Gaussian 16, Revision C.01,
 M. J. Frisch, G. W. Trucks, H. B. Schlegel, G. E. Scuseria, 
 M. A. Robb, J. R. Cheeseman, G. Scalmani, V. Barone, 
 G. A. Petersson, H. Nakatsuji, X. Li, M. Caricato, A. V. Marenich, 
 J. Bloino, B. G. Janesko, R. Gomperts, B. Mennucci, H. P. Hratchian, 
 J. V. Ortiz, A. F. Izmaylov, J. L. Sonnenberg, D. Williams-Young, 
 F. Ding, F. Lipparini, F. Egidi, J. Goings, B. Peng, A. Petrone, 
 T. Henderson, D. Ranasinghe, V. G. Zakrzewski, J. Gao, N. Rega, 
 G. Zheng, W. Liang, M. Hada, M. Ehara, K. Toyota, R. Fukuda, 
 J. Hasegawa, M. Ishida, T. Nakajima, Y. Honda, O. Kitao, H. Nakai, 
 T. Vreven, K. Throssell, J. A. Montgomery, Jr., J. E. Peralta, 
 F. Ogliaro, M. J. Bearpark, J. J. Heyd, E. N. Brothers, K. N. Kudin, 
 V. N. Staroverov, T. A. Keith, R. Kobayashi, J. Normand, 
 K. Raghavachari, A. P. Rendell, J. C. Burant, S. S. Iyengar, 
 J. Tomasi, M. Cossi, J. M. Millam, M. Klene, C. Adamo, R. Cammi, 
 J. W. Ochterski, R. L. Martin, K. Morokuma, O. Farkas, 
 J. B. Foresman, and D. J. Fox, Gaussian, Inc., Wallingford CT, 2019.
 
 ******************************************
 Gaussian 16:  ES64L-G16RevC.01  3-Jul-2019
                27-May-2022 
 ******************************************
 %mem=8gb
 %nproc=4
 Will use up to    4 processors via shared memory.
 %chk=conf-876.chk
 ----------------------------------------------------------------------
 # B3LYP/6-31G* empiricaldispersion=gd3 guess=read geom=check nosymm in
 tegral(ultrafinegrid)
 ----------------------------------------------------------------------
 1/29=2,38=1,172=1/1;
 2/12=2,15=1,40=1/2;
 3/5=1,6=6,7=1,11=2,14=-4,25=1,30=1,74=-5,75=-5,116=-2,124=31/1,2,3;
 4/5=1/1;
 5/5=2,38=6/2;
 6/7=2,8=2,9=2,10=2,28=1/1;
 99/5=1,9=1/99;
 ------------------------------------------------------
 Candidate Structure: Conf:876 Charge calc in gas phase
 ------------------------------------------------------
 Structure from the checkpoint file:  "conf-876.chk"
 Charge =  1 Multiplicity = 1
 Redundant internal coordinates found in file.  (old form).
 N,0,8.89575129,29.0268231496,12.4656874598
 C,0,10.1020938088,28.3675355343,13.1043144559
 C,0,10.2575499811,28.6705257877,14.6117312065
 O,0,10.1707689416,27.7301861701,15.3914327311
 C,0,11.4064006444,28.6367708446,12.3429672624
 C,0,11.476474801,28.1002991948,10.8973330832
 C,0,10.778885294,28.9910108409,9.8706387545
 O,0,11.476706984,29.6221246621,9.0450434648
 O,0,9.4919362066,29.0688722595,9.922084081
 H,0,8.9780641778,28.9295392568,11.3864899821
 H,0,9.8790347567,27.2994908192,13.0690283073
 H,0,11.6859162426,29.6922242901,12.3665729315
 H,0,12.1801920481,28.1283482562,12.9291313988
 H,0,11.0364045367,27.0959373595,10.8450921983
 H,0,12.5264694561,28.0253684803,10.6083757216
 H,0,8.0247626582,28.6202295154,12.8220519449
 H,0,8.8287919335,30.0247025347,12.6872649995
 N,0,10.6342396505,29.9138109585,15.0276879965
 C,0,10.4496542231,31.242656888,14.4682384219
 C,0,11.6245384197,32.1012694286,14.9768310673
 O,0,12.0965716197,31.8504184755,16.0774657741
 C,0,9.1415625834,31.9033413907,15.0151466253
 C,0,7.8916306163,31.1505821445,14.6714182503
 C,0,7.5079867953,29.9149809195,15.1434532382
 C,0,6.8678376278,31.5686275693,13.7378299699
 C,0,5.9129250024,30.5185912957,13.6597500306
 C,0,6.6334617988,32.754431006,13.0175806273
 N,0,6.3548830894,29.4992191626,14.4919314323
 C,0,4.7616414101,30.6076259126,12.8707844798
 C,0,5.4800282286,32.8566186795,12.2510336368
 C,0,4.5585061028,31.7912229312,12.1699850122
 H,0,10.9294342999,29.9418875033,16.0017867394
 H,0,10.429573116,31.198170047,13.3785175817
 H,0,9.08234819,32.9272530424,14.6276493721
 H,0,9.2667202523,31.9886916142,16.1004993506
 H,0,7.9785586321,29.272343894,15.8740694379
 H,0,5.7693881957,28.7431051783,14.819810077
 H,0,7.3303454085,33.5864018635,13.0773316231
 H,0,4.041023997,29.7959556827,12.8277278572
 H,0,5.2767219817,33.7745167572,11.7071288293
 H,0,3.6644230414,31.9039468793,11.564281966
 N,0,12.0001275265,33.2098320409,14.2737020986
 C,0,11.8058960451,33.5524039437,12.8700699946
 C,0,12.1469757822,32.3797237602,11.9414354648
 O,0,12.9163124616,31.5025191783,12.3233994495
 C,0,12.7784358676,34.748092911,12.5544472272
 C,0,14.2445459412,34.3357879208,12.4799824916
 O,0,12.4548516858,35.3481192324,11.3118739582
 H,0,11.7058651234,35.9448507701,11.4515947999
 H,0,12.7747775819,33.6711551519,14.7389641097
 H,0,10.7840405096,33.9060667184,12.7003069234
 H,0,12.6366318108,35.4685135631,13.3752914218
 H,0,14.4170334114,33.7355747187,11.5825277507
 H,0,14.5550362471,33.743673356,13.3454273041
 H,0,14.8653144142,35.2330601601,12.4187229274
 N,0,11.6833593217,32.3723014569,10.6496735186
 C,0,10.4309908313,32.8398171873,10.0407476214
 C,0,10.2300305568,34.3482102075,9.8566081734
 O,0,10.4498679099,34.9369724919,8.827782901
 C,0,9.1932633664,32.1743957792,10.6673431853
 C,0,7.8737210599,32.3565381696,9.8944811985
 C,0,7.9653042969,32.2161322568,8.3686582678
 N,0,8.6891804797,31.0048828134,7.966513321
 C,0,9.2703616732,30.8696033248,6.7708121189
 N,0,8.8566575774,31.6225309682,5.7303769325
 N,0,10.2703099851,30.0004348078,6.6245863077
 O,0,9.6021160357,34.9454053401,10.9147299144
 H,0,9.3924635428,35.8552603836,10.6264254331
 H,0,12.0497188026,31.5612567446,10.1518072039
 H,0,10.525329834,32.4885550492,9.0129720101
 H,0,9.0524176217,32.5397647448,11.6889508878
 H,0,9.4267448659,31.1122251773,10.7180968199
 H,0,7.1452619407,31.6408997627,10.2880609795
 H,0,7.4547761995,33.3474500684,10.0958947931
 H,0,6.9452901898,32.2088748224,7.9608828611
 H,0,8.4841240311,33.0836155632,7.9422347013
 H,0,8.9250283727,30.2895896457,8.677917866
 H,0,9.3897243245,31.6646941906,4.8746613828
 H,0,7.959646776,32.0834589601,5.7426923666
 H,0,10.8096393339,29.7427598327,7.4750262241
 H,0,10.6213477783,29.7627072557,5.7084470284
 Recover connectivity data from disk.
                           ----------------------------
                           !    Current Parameters    !
                           ! (Angstroms and Degrees)  !
 --------------------------                            --------------------------
 ! Name  Definition              Value                                          !
 --------------------------------------------------------------------------------
 ! R1    R(1,2)                  1.5158                                         !
 ! R2    R(1,10)                 1.0867                                         !
 ! R3    R(1,16)                 1.0252                                         !
 ! R4    R(1,17)                 1.0244                                         !
 ! R5    R(2,3)                  1.5454                                         !
 ! R6    R(2,5)                  1.5341                                         !
 ! R7    R(2,11)                 1.0917                                         !
 ! R8    R(3,4)                  1.2246                                         !
 ! R9    R(3,18)                 1.3641                                         !
 ! R10   R(5,6)                  1.5436                                         !
 ! R11   R(5,12)                 1.0921                                         !
 ! R12   R(5,13)                 1.0958                                         !
 ! R13   R(6,7)                  1.5278                                         !
 ! R14   R(6,14)                 1.0978                                         !
 ! R15   R(6,15)                 1.0916                                         !
 ! R16   R(7,8)                  1.2517                                         !
 ! R17   R(7,9)                  1.2903                                         !
 ! R18   R(18,19)                1.4536                                         !
 ! R19   R(18,32)                1.0182                                         !
 ! R20   R(19,20)                1.5415                                         !
 ! R21   R(19,22)                1.5642                                         !
 ! R22   R(19,33)                1.0908                                         !
 ! R23   R(20,21)                1.2236                                         !
 ! R24   R(20,42)                1.3654                                         !
 ! R25   R(22,23)                1.499                                          !
 ! R26   R(22,34)                1.0964                                         !
 ! R27   R(22,35)                1.0959                                         !
 ! R28   R(23,24)                1.3772                                         !
 ! R29   R(23,25)                1.4472                                         !
 ! R30   R(24,28)                1.3882                                         !
 ! R31   R(24,36)                1.0808                                         !
 ! R32   R(25,26)                1.4215                                         !
 ! R33   R(25,27)                1.4071                                         !
 ! R34   R(26,28)                1.3882                                         !
 ! R35   R(26,29)                1.3985                                         !
 ! R36   R(27,30)                1.3887                                         !
 ! R37   R(27,38)                1.0869                                         !
 ! R38   R(28,37)                1.0109                                         !
 ! R39   R(29,31)                1.3904                                         !
 ! R40   R(29,39)                1.0863                                         !
 ! R41   R(30,31)                1.411                                          !
 ! R42   R(30,40)                1.0861                                         !
 ! R43   R(31,41)                1.0858                                         !
 ! R44   R(42,43)                1.4578                                         !
 ! R45   R(42,50)                1.0146                                         !
 ! R46   R(43,44)                1.5342                                         !
 ! R47   R(43,46)                1.5733                                         !
 ! R48   R(43,51)                1.0946                                         !
 ! R49   R(44,45)                1.2277                                         !
 ! R50   R(44,56)                1.3725                                         !
 ! R51   R(46,47)                1.5248                                         !
 ! R52   R(46,48)                1.4173                                         !
 ! R53   R(46,52)                1.1013                                         !
 ! R54   R(47,53)                1.0934                                         !
 ! R55   R(47,54)                1.0936                                         !
 ! R56   R(47,55)                1.0928                                         !
 ! R57   R(48,49)                0.9678                                         !
 ! R58   R(56,57)                1.4689                                         !
 ! R59   R(56,69)                1.0197                                         !
 ! R60   R(57,58)                1.5328                                         !
 ! R61   R(57,60)                1.5386                                         !
 ! R62   R(57,70)                1.0902                                         !
 ! R63   R(58,59)                1.2056                                         !
 ! R64   R(58,67)                1.3677                                         !
 ! R65   R(60,61)                1.54                                           !
 ! R66   R(60,71)                1.0941                                         !
 ! R67   R(60,72)                1.0887                                         !
 ! R68   R(61,62)                1.535                                          !
 ! R69   R(61,73)                1.0944                                         !
 ! R70   R(61,74)                1.0945                                         !
 ! R71   R(62,63)                1.4673                                         !
 ! R72   R(62,75)                1.0985                                         !
 ! R73   R(62,76)                1.0971                                         !
 ! R74   R(63,64)                1.3363                                         !
 ! R75   R(63,77)                1.036                                          !
 ! R76   R(64,65)                1.3493                                         !
 ! R77   R(64,66)                1.3329                                         !
 ! R78   R(65,78)                1.0091                                         !
 ! R79   R(65,79)                1.0086                                         !
 ! R80   R(66,80)                1.0395                                         !
 ! R81   R(66,81)                1.0095                                         !
 ! R82   R(67,68)                0.9772                                         !
 ! A1    A(2,1,10)             108.6133                                         !
 ! A2    A(2,1,16)             110.9279                                         !
 ! A3    A(2,1,17)             112.6172                                         !
 ! A4    A(10,1,16)            111.967                                          !
 ! A5    A(10,1,17)            107.8768                                         !
 ! A6    A(16,1,17)            104.811                                          !
 ! A7    A(1,2,3)              113.9368                                         !
 ! A8    A(1,2,5)              113.0299                                         !
 ! A9    A(1,2,11)             104.4358                                         !
 ! A10   A(3,2,5)              111.3558                                         !
 ! A11   A(3,2,11)             104.1169                                         !
 ! A12   A(5,2,11)             109.232                                          !
 ! A13   A(2,3,4)              117.6043                                         !
 ! A14   A(2,3,18)             120.2598                                         !
 ! A15   A(4,3,18)             121.6877                                         !
 ! A16   A(2,5,6)              116.2578                                         !
 ! A17   A(2,5,12)             112.1171                                         !
 ! A18   A(2,5,13)             104.683                                          !
 ! A19   A(6,5,12)             110.1524                                         !
 ! A20   A(6,5,13)             107.9184                                         !
 ! A21   A(12,5,13)            104.8391                                         !
 ! A22   A(5,6,7)              113.9556                                         !
 ! A23   A(5,6,14)             110.142                                          !
 ! A24   A(5,6,15)             108.3874                                         !
 ! A25   A(7,6,14)             108.5648                                         !
 ! A26   A(7,6,15)             107.5375                                         !
 ! A27   A(14,6,15)            108.0708                                         !
 ! A28   A(6,7,8)              118.8575                                         !
 ! A29   A(6,7,9)              117.6323                                         !
 ! A30   A(8,7,9)              123.4969                                         !
 ! A31   A(3,18,19)            132.9071                                         !
 ! A32   A(3,18,32)            113.3854                                         !
 ! A33   A(19,18,32)           112.3215                                         !
 ! A34   A(18,19,20)           106.5847                                         !
 ! A35   A(18,19,22)           110.9628                                         !
 ! A36   A(18,19,33)           110.4596                                         !
 ! A37   A(20,19,22)           106.6638                                         !
 ! A38   A(20,19,33)           111.4906                                         !
 ! A39   A(22,19,33)           110.5559                                         !
 ! A40   A(19,20,21)           118.4649                                         !
 ! A41   A(19,20,42)           119.47                                           !
 ! A42   A(21,20,42)           121.5703                                         !
 ! A43   A(19,22,23)           113.8927                                         !
 ! A44   A(19,22,34)           108.4243                                         !
 ! A45   A(19,22,35)           106.4795                                         !
 ! A46   A(23,22,34)           110.0532                                         !
 ! A47   A(23,22,35)           111.1884                                         !
 ! A48   A(34,22,35)           106.4676                                         !
 ! A49   A(22,23,24)           127.1719                                         !
 ! A50   A(22,23,25)           126.3501                                         !
 ! A51   A(24,23,25)           106.451                                          !
 ! A52   A(23,24,28)           109.8306                                         !
 ! A53   A(23,24,36)           130.0788                                         !
 ! A54   A(28,24,36)           120.0554                                         !
 ! A55   A(23,25,26)           107.2945                                         !
 ! A56   A(23,25,27)           133.747                                          !
 ! A57   A(26,25,27)           118.8506                                         !
 ! A58   A(25,26,28)           107.1963                                         !
 ! A59   A(25,26,29)           122.4787                                         !
 ! A60   A(28,26,29)           130.319                                          !
 ! A61   A(25,27,30)           118.8766                                         !
 ! A62   A(25,27,38)           120.673                                          !
 ! A63   A(30,27,38)           120.4349                                         !
 ! A64   A(24,28,26)           109.0198                                         !
 ! A65   A(24,28,37)           123.5644                                         !
 ! A66   A(26,28,37)           124.0053                                         !
 ! A67   A(26,29,31)           117.3098                                         !
 ! A68   A(26,29,39)           121.3933                                         !
 ! A69   A(31,29,39)           121.2766                                         !
 ! A70   A(27,30,31)           121.2394                                         !
 ! A71   A(27,30,40)           119.6092                                         !
 ! A72   A(31,30,40)           119.1503                                         !
 ! A73   A(29,31,30)           121.2244                                         !
 ! A74   A(29,31,41)           119.3296                                         !
 ! A75   A(30,31,41)           119.4357                                         !
 ! A76   A(20,42,43)           130.5374                                         !
 ! A77   A(20,42,50)           110.062                                          !
 ! A78   A(43,42,50)           115.8749                                         !
 ! A79   A(42,43,44)           111.9343                                         !
 ! A80   A(42,43,46)           106.8216                                         !
 ! A81   A(42,43,51)           110.4652                                         !
 ! A82   A(44,43,46)           108.7871                                         !
 ! A83   A(44,43,51)           111.139                                          !
 ! A84   A(46,43,51)           107.4832                                         !
 ! A85   A(43,44,45)           119.81                                           !
 ! A86   A(43,44,56)           119.9156                                         !
 ! A87   A(45,44,56)           120.0426                                         !
 ! A88   A(43,46,47)           113.495                                          !
 ! A89   A(43,46,48)           110.886                                          !
 ! A90   A(43,46,52)           105.5474                                         !
 ! A91   A(47,46,48)           106.9289                                         !
 ! A92   A(47,46,52)           109.6992                                         !
 ! A93   A(48,46,52)           110.3107                                         !
 ! A94   A(46,47,53)           109.8898                                         !
 ! A95   A(46,47,54)           112.3794                                         !
 ! A96   A(46,47,55)           109.0812                                         !
 ! A97   A(53,47,54)           107.9119                                         !
 ! A98   A(53,47,55)           108.3676                                         !
 ! A99   A(54,47,55)           109.1256                                         !
 ! A100  A(46,48,49)           108.1294                                         !
 ! A101  A(44,56,57)           132.5657                                         !
 ! A102  A(44,56,69)           110.0268                                         !
 ! A103  A(57,56,69)           110.9186                                         !
 ! A104  A(56,57,58)           118.3443                                         !
 ! A105  A(56,57,60)           112.295                                          !
 ! A106  A(56,57,70)           102.3844                                         !
 ! A107  A(58,57,60)           111.6565                                         !
 ! A108  A(58,57,70)           102.4244                                         !
 ! A109  A(60,57,70)           108.3114                                         !
 ! A110  A(57,58,59)           123.9996                                         !
 ! A111  A(57,58,67)           113.3871                                         !
 ! A112  A(59,58,67)           122.053                                          !
 ! A113  A(57,60,61)           115.7052                                         !
 ! A114  A(57,60,71)           109.8403                                         !
 ! A115  A(57,60,72)           105.5692                                         !
 ! A116  A(61,60,71)           108.5907                                         !
 ! A117  A(61,60,72)           108.8164                                         !
 ! A118  A(71,60,72)           108.0524                                         !
 ! A119  A(60,61,62)           115.9068                                         !
 ! A120  A(60,61,73)           108.2105                                         !
 ! A121  A(60,61,74)           110.0408                                         !
 ! A122  A(62,61,73)           109.7175                                         !
 ! A123  A(62,61,74)           106.7721                                         !
 ! A124  A(73,61,74)           105.7269                                         !
 ! A125  A(61,62,63)           112.1718                                         !
 ! A126  A(61,62,75)           108.3117                                         !
 ! A127  A(61,62,76)           110.0146                                         !
 ! A128  A(63,62,75)           110.5424                                         !
 ! A129  A(63,62,76)           108.2352                                         !
 ! A130  A(75,62,76)           107.4611                                         !
 ! A131  A(62,63,64)           122.9133                                         !
 ! A132  A(62,63,77)           119.6078                                         !
 ! A133  A(64,63,77)           116.4556                                         !
 ! A134  A(63,64,65)           120.0079                                         !
 ! A135  A(63,64,66)           119.3687                                         !
 ! A136  A(65,64,66)           120.6166                                         !
 ! A137  A(64,65,78)           121.0152                                         !
 ! A138  A(64,65,79)           121.2181                                         !
 ! A139  A(78,65,79)           117.4584                                         !
 ! A140  A(64,66,80)           117.4592                                         !
 ! A141  A(64,66,81)           120.9297                                         !
 ! A142  A(80,66,81)           120.2444                                         !
 ! A143  A(58,67,68)           106.0695                                         !
 ! D1    D(10,1,2,3)           168.6078                                         !
 ! D2    D(10,1,2,5)            40.1724                                         !
 ! D3    D(10,1,2,11)          -78.4487                                         !
 ! D4    D(16,1,2,3)           -67.9296                                         !
 ! D5    D(16,1,2,5)           163.6351                                         !
 ! D6    D(16,1,2,11)           45.0139                                         !
 ! D7    D(17,1,2,3)            49.1874                                         !
 ! D8    D(17,1,2,5)           -79.2479                                         !
 ! D9    D(17,1,2,11)          162.1309                                         !
 ! D10   D(1,2,3,4)            116.2167                                         !
 ! D11   D(1,2,3,18)           -71.3364                                         !
 ! D12   D(5,2,3,4)           -114.5003                                         !
 ! D13   D(5,2,3,18)            57.9466                                         !
 ! D14   D(11,2,3,4)             3.0824                                         !
 ! D15   D(11,2,3,18)          175.5293                                         !
 ! D16   D(1,2,5,6)            -62.5578                                         !
 ! D17   D(1,2,5,12)            65.4056                                         !
 ! D18   D(1,2,5,13)           178.5014                                         !
 ! D19   D(3,2,5,6)            167.6816                                         !
 ! D20   D(3,2,5,12)           -64.355                                          !
 ! D21   D(3,2,5,13)            48.7408                                         !
 ! D22   D(11,2,5,6)            53.2398                                         !
 ! D23   D(11,2,5,12)         -178.7968                                         !
 ! D24   D(11,2,5,13)          -65.701                                          !
 ! D25   D(2,3,18,19)           29.243                                          !
 ! D26   D(2,3,18,32)         -165.5438                                         !
 ! D27   D(4,3,18,19)         -158.6249                                         !
 ! D28   D(4,3,18,32)            6.5883                                         !
 ! D29   D(2,5,6,7)             80.7308                                         !
 ! D30   D(2,5,6,14)           -41.5481                                         !
 ! D31   D(2,5,6,15)          -159.5887                                         !
 ! D32   D(12,5,6,7)           -48.1894                                         !
 ! D33   D(12,5,6,14)         -170.4684                                         !
 ! D34   D(12,5,6,15)           71.4911                                         !
 ! D35   D(13,5,6,7)          -162.1042                                         !
 ! D36   D(13,5,6,14)           75.6169                                         !
 ! D37   D(13,5,6,15)          -42.4237                                         !
 ! D38   D(5,6,7,8)            109.8538                                         !
 ! D39   D(5,6,7,9)            -68.8664                                         !
 ! D40   D(14,6,7,8)          -127.0047                                         !
 ! D41   D(14,6,7,9)            54.2751                                         !
 ! D42   D(15,6,7,8)           -10.3055                                         !
 ! D43   D(15,6,7,9)           170.9743                                         !
 ! D44   D(3,18,19,20)        -152.8138                                         !
 ! D45   D(3,18,19,22)          91.432                                          !
 ! D46   D(3,18,19,33)         -31.542                                          !
 ! D47   D(32,18,19,20)         41.8551                                         !
 ! D48   D(32,18,19,22)        -73.899                                          !
 ! D49   D(32,18,19,33)        163.127                                          !
 ! D50   D(18,19,20,21)        -31.4637                                         !
 ! D51   D(18,19,20,42)        156.4772                                         !
 ! D52   D(22,19,20,21)         87.1434                                         !
 ! D53   D(22,19,20,42)        -84.9158                                         !
 ! D54   D(33,19,20,21)       -152.0762                                         !
 ! D55   D(33,19,20,42)         35.8647                                         !
 ! D56   D(18,19,22,23)        -61.3134                                         !
 ! D57   D(18,19,22,34)        175.8079                                         !
 ! D58   D(18,19,22,35)         61.5947                                         !
 ! D59   D(20,19,22,23)       -177.0185                                         !
 ! D60   D(20,19,22,34)         60.1028                                         !
 ! D61   D(20,19,22,35)        -54.1104                                         !
 ! D62   D(33,19,22,23)         61.605                                          !
 ! D63   D(33,19,22,34)        -61.2737                                         !
 ! D64   D(33,19,22,35)       -175.4869                                         !
 ! D65   D(19,20,42,43)        -23.215                                          !
 ! D66   D(19,20,42,50)        179.3198                                         !
 ! D67   D(21,20,42,43)        164.9803                                         !
 ! D68   D(21,20,42,50)          7.5151                                         !
 ! D69   D(19,22,23,24)         68.1732                                         !
 ! D70   D(19,22,23,25)       -109.6791                                         !
 ! D71   D(34,22,23,24)       -169.8428                                         !
 ! D72   D(34,22,23,25)         12.3049                                         !
 ! D73   D(35,22,23,24)        -52.1233                                         !
 ! D74   D(35,22,23,25)        130.0244                                         !
 ! D75   D(22,23,24,28)       -174.1559                                         !
 ! D76   D(22,23,24,36)          3.6415                                         !
 ! D77   D(25,23,24,28)          4.0406                                         !
 ! D78   D(25,23,24,36)       -178.162                                          !
 ! D79   D(22,23,25,26)        176.4105                                         !
 ! D80   D(22,23,25,27)         -7.5517                                         !
 ! D81   D(24,23,25,26)         -1.8053                                         !
 ! D82   D(24,23,25,27)        174.2326                                         !
 ! D83   D(23,24,28,26)         -4.8423                                         !
 ! D84   D(23,24,28,37)       -164.6691                                         !
 ! D85   D(36,24,28,26)        177.1048                                         !
 ! D86   D(36,24,28,37)         17.278                                          !
 ! D87   D(23,25,26,28)         -1.059                                          !
 ! D88   D(23,25,26,29)        178.137                                          !
 ! D89   D(27,25,26,28)       -177.792                                          !
 ! D90   D(27,25,26,29)          1.404                                          !
 ! D91   D(23,25,27,30)       -175.9252                                         !
 ! D92   D(23,25,27,38)          2.6479                                         !
 ! D93   D(26,25,27,30)         -0.2449                                         !
 ! D94   D(26,25,27,38)        178.3282                                         !
 ! D95   D(25,26,28,24)          3.5508                                         !
 ! D96   D(25,26,28,37)        163.2689                                         !
 ! D97   D(29,26,28,24)       -175.5597                                         !
 ! D98   D(29,26,28,37)        -15.8416                                         !
 ! D99   D(25,26,29,31)         -1.3343                                         !
 ! D100  D(25,26,29,39)       -179.7146                                         !
 ! D101  D(28,26,29,31)        177.6584                                         !
 ! D102  D(28,26,29,39)         -0.722                                          !
 ! D103  D(25,27,30,31)         -0.9098                                         !
 ! D104  D(25,27,30,40)        178.7026                                         !
 ! D105  D(38,27,30,31)       -179.4864                                         !
 ! D106  D(38,27,30,40)          0.126                                          !
 ! D107  D(26,29,31,30)          0.1436                                         !
 ! D108  D(26,29,31,41)       -178.6829                                         !
 ! D109  D(39,29,31,30)        178.526                                          !
 ! D110  D(39,29,31,41)         -0.3005                                         !
 ! D111  D(27,30,31,29)          0.9828                                         !
 ! D112  D(27,30,31,41)        179.8081                                         !
 ! D113  D(40,30,31,29)       -178.6313                                         !
 ! D114  D(40,30,31,41)          0.1939                                         !
 ! D115  D(20,42,43,44)        -45.9111                                         !
 ! D116  D(20,42,43,46)       -164.8875                                         !
 ! D117  D(20,42,43,51)         78.5083                                         !
 ! D118  D(50,42,43,44)        110.5044                                         !
 ! D119  D(50,42,43,46)         -8.4719                                         !
 ! D120  D(50,42,43,51)       -125.0761                                         !
 ! D121  D(42,43,44,45)        -23.7614                                         !
 ! D122  D(42,43,44,56)        161.7675                                         !
 ! D123  D(46,43,44,45)         94.0471                                         !
 ! D124  D(46,43,44,56)        -80.424                                          !
 ! D125  D(51,43,44,45)       -147.8046                                         !
 ! D126  D(51,43,44,56)         37.7243                                         !
 ! D127  D(42,43,46,47)         72.7721                                         !
 ! D128  D(42,43,46,48)       -166.8492                                         !
 ! D129  D(42,43,46,52)        -47.3905                                         !
 ! D130  D(44,43,46,47)        -48.2285                                         !
 ! D131  D(44,43,46,48)         72.1502                                         !
 ! D132  D(44,43,46,52)       -168.3911                                         !
 ! D133  D(51,43,46,47)       -168.661                                          !
 ! D134  D(51,43,46,48)        -48.2823                                         !
 ! D135  D(51,43,46,52)         71.1764                                         !
 ! D136  D(43,44,56,57)        -35.5711                                         !
 ! D137  D(43,44,56,69)        176.1352                                         !
 ! D138  D(45,44,56,57)        149.9708                                         !
 ! D139  D(45,44,56,69)          1.6771                                         !
 ! D140  D(43,46,47,53)         70.3037                                         !
 ! D141  D(43,46,47,54)        -49.8732                                         !
 ! D142  D(43,46,47,55)       -171.0283                                         !
 ! D143  D(48,46,47,53)        -52.2887                                         !
 ! D144  D(48,46,47,54)       -172.4656                                         !
 ! D145  D(48,46,47,55)         66.3793                                         !
 ! D146  D(52,46,47,53)       -171.9165                                         !
 ! D147  D(52,46,47,54)         67.9066                                         !
 ! D148  D(52,46,47,55)        -53.2485                                         !
 ! D149  D(43,46,48,49)         80.2942                                         !
 ! D150  D(47,46,48,49)       -155.4993                                         !
 ! D151  D(52,46,48,49)        -36.2661                                         !
 ! D152  D(44,56,57,58)         74.8764                                         !
 ! D153  D(44,56,57,60)        -57.5295                                         !
 ! D154  D(44,56,57,70)       -173.4861                                         !
 ! D155  D(69,56,57,58)       -137.0363                                         !
 ! D156  D(69,56,57,60)         90.5578                                         !
 ! D157  D(69,56,57,70)        -25.3988                                         !
 ! D158  D(56,57,58,59)         96.9456                                         !
 ! D159  D(56,57,58,67)        -91.5058                                         !
 ! D160  D(60,57,58,59)       -130.3678                                         !
 ! D161  D(60,57,58,67)         41.1808                                         !
 ! D162  D(70,57,58,59)        -14.6697                                         !
 ! D163  D(70,57,58,67)        156.8788                                         !
 ! D164  D(56,57,60,61)       -166.7932                                         !
 ! D165  D(56,57,60,71)         69.851                                          !
 ! D166  D(56,57,60,72)        -46.414                                          !
 ! D167  D(58,57,60,61)         57.571                                          !
 ! D168  D(58,57,60,71)        -65.7848                                         !
 ! D169  D(58,57,60,72)        177.9503                                         !
 ! D170  D(70,57,60,61)        -54.4684                                         !
 ! D171  D(70,57,60,71)       -177.8242                                         !
 ! D172  D(70,57,60,72)         65.9108                                         !
 ! D173  D(57,58,67,68)       -170.524                                          !
 ! D174  D(59,58,67,68)          1.2105                                         !
 ! D175  D(57,60,61,62)         41.9537                                         !
 ! D176  D(57,60,61,73)        165.6401                                         !
 ! D177  D(57,60,61,74)        -79.2888                                         !
 ! D178  D(71,60,61,62)        165.963                                          !
 ! D179  D(71,60,61,73)        -70.3506                                         !
 ! D180  D(71,60,61,74)         44.7205                                         !
 ! D181  D(72,60,61,62)        -76.6487                                         !
 ! D182  D(72,60,61,73)         47.0378                                         !
 ! D183  D(72,60,61,74)        162.1088                                         !
 ! D184  D(60,61,62,63)         48.8906                                         !
 ! D185  D(60,61,62,75)        171.1665                                         !
 ! D186  D(60,61,62,76)        -71.6445                                         !
 ! D187  D(73,61,62,63)        -74.0072                                         !
 ! D188  D(73,61,62,75)         48.2687                                         !
 ! D189  D(73,61,62,76)        165.4577                                         !
 ! D190  D(74,61,62,63)        171.8668                                         !
 ! D191  D(74,61,62,75)        -65.8573                                         !
 ! D192  D(74,61,62,76)         51.3318                                         !
 ! D193  D(61,62,63,64)       -157.7559                                         !
 ! D194  D(61,62,63,77)         10.2568                                         !
 ! D195  D(75,62,63,64)         81.2452                                         !
 ! D196  D(75,62,63,77)       -110.742                                          !
 ! D197  D(76,62,63,64)        -36.1958                                         !
 ! D198  D(76,62,63,77)        131.8169                                         !
 ! D199  D(62,63,64,65)        -22.3545                                         !
 ! D200  D(62,63,64,66)        156.7089                                         !
 ! D201  D(77,63,64,65)        169.2818                                         !
 ! D202  D(77,63,64,66)        -11.6549                                         !
 ! D203  D(63,64,65,78)        168.2605                                         !
 ! D204  D(63,64,65,79)        -18.2785                                         !
 ! D205  D(66,64,65,78)        -10.7909                                         !
 ! D206  D(66,64,65,79)        162.6701                                         !
 ! D207  D(63,64,66,80)        -23.8174                                         !
 ! D208  D(63,64,66,81)        169.4979                                         !
 ! D209  D(65,64,66,80)        155.24                                           !
 ! D210  D(65,64,66,81)        -11.4446                                         !
 --------------------------------------------------------------------------------
 Symmetry turned off by external request.
 Stoichiometry    C26H39N8O8(1+)
 Framework group  C1[X(C26H39N8O8)]
 Deg. of freedom   237
 Full point group                 C1      NOp   1
                          Input orientation:                          
 ---------------------------------------------------------------------
 Center     Atomic      Atomic             Coordinates (Angstroms)
 Number     Number       Type             X           Y           Z
 ---------------------------------------------------------------------
      1          7           0        8.895751   29.026823   12.465687
      2          6           0       10.102094   28.367536   13.104314
      3          6           0       10.257550   28.670526   14.611731
      4          8           0       10.170769   27.730186   15.391433
      5          6           0       11.406401   28.636771   12.342967
      6          6           0       11.476475   28.100299   10.897333
      7          6           0       10.778885   28.991011    9.870639
      8          8           0       11.476707   29.622125    9.045043
      9          8           0        9.491936   29.068872    9.922084
     10          1           0        8.978064   28.929539   11.386490
     11          1           0        9.879035   27.299491   13.069028
     12          1           0       11.685916   29.692224   12.366573
     13          1           0       12.180192   28.128348   12.929131
     14          1           0       11.036405   27.095937   10.845092
     15          1           0       12.526469   28.025368   10.608376
     16          1           0        8.024763   28.620230   12.822052
     17          1           0        8.828792   30.024703   12.687265
     18          7           0       10.634240   29.913811   15.027688
     19          6           0       10.449654   31.242657   14.468238
     20          6           0       11.624538   32.101269   14.976831
     21          8           0       12.096572   31.850418   16.077466
     22          6           0        9.141563   31.903341   15.015147
     23          6           0        7.891631   31.150582   14.671418
     24          6           0        7.507987   29.914981   15.143453
     25          6           0        6.867838   31.568628   13.737830
     26          6           0        5.912925   30.518591   13.659750
     27          6           0        6.633462   32.754431   13.017581
     28          7           0        6.354883   29.499219   14.491931
     29          6           0        4.761641   30.607626   12.870784
     30          6           0        5.480028   32.856619   12.251034
     31          6           0        4.558506   31.791223   12.169985
     32          1           0       10.929434   29.941888   16.001787
     33          1           0       10.429573   31.198170   13.378518
     34          1           0        9.082348   32.927253   14.627649
     35          1           0        9.266720   31.988692   16.100499
     36          1           0        7.978559   29.272344   15.874069
     37          1           0        5.769388   28.743105   14.819810
     38          1           0        7.330345   33.586402   13.077332
     39          1           0        4.041024   29.795956   12.827728
     40          1           0        5.276722   33.774517   11.707129
     41          1           0        3.664423   31.903947   11.564282
     42          7           0       12.000128   33.209832   14.273702
     43          6           0       11.805896   33.552404   12.870070
     44          6           0       12.146976   32.379724   11.941435
     45          8           0       12.916312   31.502519   12.323399
     46          6           0       12.778436   34.748093   12.554447
     47          6           0       14.244546   34.335788   12.479982
     48          8           0       12.454852   35.348119   11.311874
     49          1           0       11.705865   35.944851   11.451595
     50          1           0       12.774778   33.671155   14.738964
     51          1           0       10.784041   33.906067   12.700307
     52          1           0       12.636632   35.468514   13.375291
     53          1           0       14.417033   33.735575   11.582528
     54          1           0       14.555036   33.743673   13.345427
     55          1           0       14.865314   35.233060   12.418723
     56          7           0       11.683359   32.372301   10.649674
     57          6           0       10.430991   32.839817   10.040748
     58          6           0       10.230031   34.348210    9.856608
     59          8           0       10.449868   34.936972    8.827783
     60          6           0        9.193263   32.174396   10.667343
     61          6           0        7.873721   32.356538    9.894481
     62          6           0        7.965304   32.216132    8.368658
     63          7           0        8.689180   31.004883    7.966513
     64          6           0        9.270362   30.869603    6.770812
     65          7           0        8.856658   31.622531    5.730377
     66          7           0       10.270310   30.000435    6.624586
     67          8           0        9.602116   34.945405   10.914730
     68          1           0        9.392464   35.855260   10.626425
     69          1           0       12.049719   31.561257   10.151807
     70          1           0       10.525330   32.488555    9.012972
     71          1           0        9.052418   32.539765   11.688951
     72          1           0        9.426745   31.112225   10.718097
     73          1           0        7.145262   31.640900   10.288061
     74          1           0        7.454776   33.347450   10.095895
     75          1           0        6.945290   32.208875    7.960883
     76          1           0        8.484124   33.083616    7.942235
     77          1           0        8.925028   30.289590    8.677918
     78          1           0        9.389724   31.664694    4.874661
     79          1           0        7.959647   32.083459    5.742692
     80          1           0       10.809639   29.742760    7.475026
     81          1           0       10.621348   29.762707    5.708447
 ---------------------------------------------------------------------
 Rotational constants (GHZ):           0.0925107           0.0797111           0.0670997
 Standard basis: 6-31G(d) (6D, 7F)
   708 basis functions,  1332 primitive gaussians,   708 cartesian basis functions
   157 alpha electrons      157 beta electrons
       nuclear repulsion energy      5832.4990231554 Hartrees.
 NAtoms=   81 NActive=   81 NUniq=   81 SFac= 1.00D+00 NAtFMM=   60 NAOKFM=T Big=T
 Integral buffers will be    131072 words long.
 Raffenetti 2 integral format.
 Two-electron integral symmetry is turned off.
 Nuclear repulsion after empirical dispersion term =     5832.3618123393 Hartrees.
 One-electron integrals computed using PRISM.
 NBasis=   708 RedAO= T EigKep=  3.68D-04  NBF=   708
 NBsUse=   708 1.00D-06 EigRej= -1.00D+00 NBFU=   708
 Initial guess from the checkpoint file:  "conf-876.chk"
 B after Tr=     0.000000    0.000000    0.000000
         Rot=    1.000000    0.000000    0.000000    0.000000 Ang=   0.00 deg.
 Requested convergence on RMS density matrix=1.00D-08 within 128 cycles.
 Requested convergence on MAX density matrix=1.00D-06.
 Requested convergence on             energy=1.00D-06.
 No special actions if energy rises.
 SCF Done:  E(RB3LYP) =  -2054.05944622     A.U. after    2 cycles
            NFock=  2  Conv=0.91D-08     -V/T= 2.0093

 **********************************************************************

            Population analysis using the SCF Density.

 **********************************************************************

 Alpha  occ. eigenvalues --  -19.31198 -19.25074 -19.24535 -19.22925 -19.21595
 Alpha  occ. eigenvalues --  -19.21560 -19.21418 -19.20902 -14.54463 -14.50321
 Alpha  occ. eigenvalues --  -14.49062 -14.48365 -14.47674 -14.46046 -14.45701
 Alpha  occ. eigenvalues --  -14.45483 -10.45394 -10.43229 -10.39663 -10.39536
 Alpha  occ. eigenvalues --  -10.38875 -10.38505 -10.36312 -10.35180 -10.34860
 Alpha  occ. eigenvalues --  -10.34825 -10.34517 -10.33573 -10.32736 -10.32571
 Alpha  occ. eigenvalues --  -10.30577 -10.30217 -10.30192 -10.29939 -10.29435
 Alpha  occ. eigenvalues --  -10.29395 -10.29343 -10.29122 -10.28747 -10.28730
 Alpha  occ. eigenvalues --  -10.28479 -10.25610  -1.21716  -1.15414  -1.14122
 Alpha  occ. eigenvalues --   -1.13926  -1.13755  -1.12903  -1.12765  -1.12152
 Alpha  occ. eigenvalues --   -1.09790  -1.08629  -1.06082  -1.03410  -1.02452
 Alpha  occ. eigenvalues --   -1.02424  -1.01957  -1.01877  -0.94446  -0.91645
 Alpha  occ. eigenvalues --   -0.91330  -0.90429  -0.87333  -0.86168  -0.85636
 Alpha  occ. eigenvalues --   -0.84037  -0.82954  -0.82253  -0.80719  -0.79954
 Alpha  occ. eigenvalues --   -0.77337  -0.76597  -0.74300  -0.73699  -0.72689
 Alpha  occ. eigenvalues --   -0.72433  -0.71433  -0.70806  -0.70308  -0.69695
 Alpha  occ. eigenvalues --   -0.68739  -0.68499  -0.67800  -0.66964  -0.66311
 Alpha  occ. eigenvalues --   -0.65927  -0.64303  -0.63764  -0.63468  -0.62971
 Alpha  occ. eigenvalues --   -0.62445  -0.62104  -0.60818  -0.60147  -0.59815
 Alpha  occ. eigenvalues --   -0.59201  -0.59131  -0.58736  -0.58469  -0.58047
 Alpha  occ. eigenvalues --   -0.57713  -0.57326  -0.56681  -0.56671  -0.55747
 Alpha  occ. eigenvalues --   -0.55603  -0.54701  -0.54328  -0.54033  -0.53781
 Alpha  occ. eigenvalues --   -0.53517  -0.53395  -0.52692  -0.52448  -0.52313
 Alpha  occ. eigenvalues --   -0.51661  -0.51299  -0.51223  -0.50475  -0.50194
 Alpha  occ. eigenvalues --   -0.49956  -0.49828  -0.49386  -0.48788  -0.48337
 Alpha  occ. eigenvalues --   -0.47721  -0.47629  -0.47323  -0.47060  -0.46710
 Alpha  occ. eigenvalues --   -0.46493  -0.46182  -0.45923  -0.45655  -0.45518
 Alpha  occ. eigenvalues --   -0.44955  -0.44345  -0.43813  -0.43677  -0.43455
 Alpha  occ. eigenvalues --   -0.42099  -0.40864  -0.39178  -0.38410  -0.38187
 Alpha  occ. eigenvalues --   -0.38082  -0.37636  -0.37284  -0.36032  -0.35708
 Alpha  occ. eigenvalues --   -0.35484  -0.35062  -0.34750  -0.34534  -0.34015
 Alpha  occ. eigenvalues --   -0.33085  -0.31129
 Alpha virt. eigenvalues --   -0.12137  -0.11148  -0.10012  -0.09822  -0.09591
 Alpha virt. eigenvalues --   -0.08595  -0.07700  -0.07401  -0.06473  -0.05843
 Alpha virt. eigenvalues --   -0.05143  -0.04630  -0.02855  -0.02457  -0.01705
 Alpha virt. eigenvalues --   -0.01103  -0.00804  -0.00735   0.00084   0.00888
 Alpha virt. eigenvalues --    0.00992   0.01486   0.01792   0.02450   0.02754
 Alpha virt. eigenvalues --    0.03126   0.03418   0.04296   0.04477   0.04951
 Alpha virt. eigenvalues --    0.05230   0.05603   0.05794   0.06119   0.06475
 Alpha virt. eigenvalues --    0.06822   0.07122   0.07323   0.07838   0.08060
 Alpha virt. eigenvalues --    0.08427   0.08563   0.08698   0.08966   0.09405
 Alpha virt. eigenvalues --    0.09773   0.09950   0.10258   0.10592   0.11047
 Alpha virt. eigenvalues --    0.11222   0.11637   0.12009   0.12331   0.12596
 Alpha virt. eigenvalues --    0.12899   0.13520   0.13684   0.14110   0.14770
 Alpha virt. eigenvalues --    0.15248   0.15312   0.15688   0.16151   0.16377
 Alpha virt. eigenvalues --    0.16709   0.17409   0.17959   0.18384   0.18569
 Alpha virt. eigenvalues --    0.19389   0.19879   0.20648   0.21826   0.22269
 Alpha virt. eigenvalues --    0.23966   0.24536   0.25797   0.26326   0.26680
 Alpha virt. eigenvalues --    0.27413   0.27723   0.28823   0.29241   0.30285
 Alpha virt. eigenvalues --    0.30979   0.31975   0.32695   0.33173   0.34419
 Alpha virt. eigenvalues --    0.35998   0.37503   0.38153   0.38897   0.39291
 Alpha virt. eigenvalues --    0.39578   0.40712   0.41350   0.42074   0.42267
 Alpha virt. eigenvalues --    0.42783   0.43531   0.43931   0.44128   0.44838
 Alpha virt. eigenvalues --    0.44933   0.45116   0.45818   0.45974   0.46211
 Alpha virt. eigenvalues --    0.46452   0.46956   0.47432   0.47627   0.47736
 Alpha virt. eigenvalues --    0.48593   0.48766   0.49381   0.49564   0.49948
 Alpha virt. eigenvalues --    0.50327   0.50371   0.50802   0.50951   0.51846
 Alpha virt. eigenvalues --    0.52092   0.52533   0.52728   0.52933   0.53336
 Alpha virt. eigenvalues --    0.53464   0.53948   0.54678   0.55224   0.55253
 Alpha virt. eigenvalues --    0.55675   0.56098   0.56253   0.57288   0.57536
 Alpha virt. eigenvalues --    0.57970   0.58236   0.58964   0.59303   0.59663
 Alpha virt. eigenvalues --    0.60080   0.60923   0.61088   0.61946   0.63079
 Alpha virt. eigenvalues --    0.63119   0.63556   0.64412   0.65131   0.65173
 Alpha virt. eigenvalues --    0.65466   0.65744   0.66849   0.67196   0.67740
 Alpha virt. eigenvalues --    0.68672   0.69329   0.69553   0.70286   0.70398
 Alpha virt. eigenvalues --    0.70740   0.70992   0.71511   0.72441   0.72553
 Alpha virt. eigenvalues --    0.72791   0.73580   0.73745   0.73997   0.74481
 Alpha virt. eigenvalues --    0.74724   0.75009   0.75574   0.75815   0.76092
 Alpha virt. eigenvalues --    0.76492   0.77033   0.77252   0.77766   0.77928
 Alpha virt. eigenvalues --    0.78115   0.78557   0.78697   0.79190   0.80052
 Alpha virt. eigenvalues --    0.80362   0.80774   0.81071   0.81293   0.81469
 Alpha virt. eigenvalues --    0.81532   0.81983   0.82361   0.82683   0.83106
 Alpha virt. eigenvalues --    0.83654   0.83858   0.83999   0.84476   0.85130
 Alpha virt. eigenvalues --    0.85712   0.86159   0.86347   0.86890   0.87165
 Alpha virt. eigenvalues --    0.88148   0.88413   0.88780   0.89571   0.89879
 Alpha virt. eigenvalues --    0.91136   0.91810   0.91867   0.92467   0.93169
 Alpha virt. eigenvalues --    0.93579   0.93772   0.94664   0.95138   0.95554
 Alpha virt. eigenvalues --    0.96537   0.96697   0.97126   0.98130   0.98510
 Alpha virt. eigenvalues --    0.98954   0.99581   0.99906   1.00702   1.01016
 Alpha virt. eigenvalues --    1.01933   1.02705   1.03116   1.04140   1.04514
 Alpha virt. eigenvalues --    1.05060   1.05776   1.06356   1.06748   1.07261
 Alpha virt. eigenvalues --    1.07673   1.08032   1.08643   1.09640   1.10011
 Alpha virt. eigenvalues --    1.10411   1.11786   1.12333   1.12685   1.13252
 Alpha virt. eigenvalues --    1.13713   1.14551   1.15557   1.16294   1.17676
 Alpha virt. eigenvalues --    1.18349   1.19005   1.20073   1.20752   1.21123
 Alpha virt. eigenvalues --    1.22010   1.22863   1.23072   1.24583   1.24809
 Alpha virt. eigenvalues --    1.25823   1.26839   1.27417   1.27958   1.29295
 Alpha virt. eigenvalues --    1.29951   1.30369   1.31234   1.31338   1.32184
 Alpha virt. eigenvalues --    1.32934   1.33554   1.34130   1.34713   1.35217
 Alpha virt. eigenvalues --    1.35922   1.36466   1.37647   1.37717   1.38656
 Alpha virt. eigenvalues --    1.39590   1.40177   1.40336   1.41143   1.41562
 Alpha virt. eigenvalues --    1.42533   1.43049   1.44434   1.45517   1.45857
 Alpha virt. eigenvalues --    1.46551   1.47709   1.48579   1.48992   1.49478
 Alpha virt. eigenvalues --    1.49588   1.50477   1.51578   1.52547   1.53321
 Alpha virt. eigenvalues --    1.54017   1.54450   1.54921   1.55443   1.57025
 Alpha virt. eigenvalues --    1.58446   1.59213   1.60155   1.60872   1.60994
 Alpha virt. eigenvalues --    1.62553   1.63081   1.63521   1.63857   1.64597
 Alpha virt. eigenvalues --    1.65701   1.66310   1.66842   1.67210   1.67913
 Alpha virt. eigenvalues --    1.68679   1.69440   1.70044   1.70277   1.70443
 Alpha virt. eigenvalues --    1.71038   1.71506   1.71744   1.72637   1.72743
 Alpha virt. eigenvalues --    1.73086   1.73998   1.74619   1.75017   1.75354
 Alpha virt. eigenvalues --    1.76632   1.76835   1.77396   1.77457   1.78115
 Alpha virt. eigenvalues --    1.78349   1.79124   1.79260   1.79934   1.80417
 Alpha virt. eigenvalues --    1.80903   1.81947   1.82296   1.82777   1.83136
 Alpha virt. eigenvalues --    1.83526   1.83719   1.84779   1.85169   1.85491
 Alpha virt. eigenvalues --    1.85933   1.86208   1.86660   1.88241   1.88381
 Alpha virt. eigenvalues --    1.88893   1.88988   1.89282   1.90104   1.90910
 Alpha virt. eigenvalues --    1.91225   1.91400   1.91776   1.92386   1.93180
 Alpha virt. eigenvalues --    1.94017   1.94631   1.95491   1.95691   1.95883
 Alpha virt. eigenvalues --    1.97445   1.97690   1.98363   1.98998   1.99623
 Alpha virt. eigenvalues --    2.00305   2.00997   2.02100   2.02228   2.03627
 Alpha virt. eigenvalues --    2.04207   2.04711   2.04824   2.05295   2.06875
 Alpha virt. eigenvalues --    2.07198   2.07759   2.08408   2.09204   2.09979
 Alpha virt. eigenvalues --    2.10869   2.11781   2.13332   2.14053   2.15019
 Alpha virt. eigenvalues --    2.15468   2.15584   2.16185   2.16341   2.16727
 Alpha virt. eigenvalues --    2.18618   2.19230   2.19837   2.21315   2.21793
 Alpha virt. eigenvalues --    2.22847   2.23926   2.24877   2.25548   2.26277
 Alpha virt. eigenvalues --    2.27048   2.27860   2.28036   2.28682   2.29405
 Alpha virt. eigenvalues --    2.30022   2.30300   2.31608   2.31914   2.32586
 Alpha virt. eigenvalues --    2.33937   2.34364   2.34502   2.35659   2.36477
 Alpha virt. eigenvalues --    2.38156   2.39540   2.40029   2.41812   2.42200
 Alpha virt. eigenvalues --    2.42740   2.43101   2.43539   2.45076   2.45316
 Alpha virt. eigenvalues --    2.45731   2.46989   2.47322   2.47941   2.49021
 Alpha virt. eigenvalues --    2.49622   2.50639   2.52270   2.52569   2.53660
 Alpha virt. eigenvalues --    2.54258   2.54631   2.55429   2.56104   2.56273
 Alpha virt. eigenvalues --    2.56648   2.57465   2.58285   2.59160   2.60264
 Alpha virt. eigenvalues --    2.60303   2.60772   2.61243   2.62207   2.63929
 Alpha virt. eigenvalues --    2.65009   2.66101   2.66709   2.67499   2.68226
 Alpha virt. eigenvalues --    2.69261   2.70294   2.71062   2.72707   2.73357
 Alpha virt. eigenvalues --    2.76660   2.77774   2.82914   2.84428   2.86636
 Alpha virt. eigenvalues --    2.86983   2.88539   2.89479   2.90134   2.90143
 Alpha virt. eigenvalues --    2.90642   2.92790   2.93426   2.95285   2.97786
 Alpha virt. eigenvalues --    2.99356   2.99729   3.00279   3.01808   3.02307
 Alpha virt. eigenvalues --    3.05259   3.10613   3.14069   3.33692   3.68987
 Alpha virt. eigenvalues --    3.75024   3.79618   3.81803   3.83359   3.85150
 Alpha virt. eigenvalues --    3.88346   3.92245   3.94259   3.95640   4.01336
 Alpha virt. eigenvalues --    4.02705   4.03524   4.05380   4.06416   4.06972
 Alpha virt. eigenvalues --    4.08689   4.09816   4.12876   4.13598   4.16034
 Alpha virt. eigenvalues --    4.18870   4.21888   4.23392   4.24736   4.26368
 Alpha virt. eigenvalues --    4.27984   4.29544   4.32064   4.33691   4.36315
 Alpha virt. eigenvalues --    4.37376   4.40568   4.44185   4.46945   4.49812
 Alpha virt. eigenvalues --    4.50477   4.58950   4.60188   4.63733   4.68621
 Alpha virt. eigenvalues --    4.69785
          Condensed to atoms (all electrons):
 Mulliken charges:
               1
     1  N   -0.812755
     2  C   -0.099499
     3  C    0.578359
     4  O   -0.486930
     5  C   -0.339395
     6  C   -0.347332
     7  C    0.613951
     8  O   -0.571554
     9  O   -0.623664
    10  H    0.443970
    11  H    0.209926
    12  H    0.221473
    13  H    0.204597
    14  H    0.167296
    15  H    0.195488
    16  H    0.403478
    17  H    0.407616
    18  N   -0.565269
    19  C   -0.085149
    20  C    0.652909
    21  O   -0.505313
    22  C   -0.359687
    23  C    0.035513
    24  C   -0.037631
    25  C    0.066305
    26  C    0.279978
    27  C   -0.213675
    28  N   -0.692246
    29  C   -0.162961
    30  C   -0.143114
    31  C   -0.153878
    32  H    0.369169
    33  H    0.129905
    34  H    0.167084
    35  H    0.194482
    36  H    0.206760
    37  H    0.354093
    38  H    0.141325
    39  H    0.151371
    40  H    0.139650
    41  H    0.151521
    42  N   -0.622997
    43  C   -0.045195
    44  C    0.581343
    45  O   -0.506284
    46  C    0.077642
    47  C   -0.457695
    48  O   -0.601871
    49  H    0.396106
    50  H    0.350222
    51  H    0.167612
    52  H    0.147128
    53  H    0.185494
    54  H    0.167968
    55  H    0.177512
    56  N   -0.604411
    57  C   -0.042831
    58  C    0.617850
    59  O   -0.440577
    60  C   -0.327613
    61  C   -0.304097
    62  C   -0.169010
    63  N   -0.632916
    64  C    0.780076
    65  N   -0.757168
    66  N   -0.786719
    67  O   -0.587314
    68  H    0.419919
    69  H    0.369187
    70  H    0.187123
    71  H    0.161721
    72  H    0.155318
    73  H    0.175116
    74  H    0.167700
    75  H    0.169396
    76  H    0.184482
    77  H    0.419162
    78  H    0.374769
    79  H    0.377804
    80  H    0.432877
    81  H    0.357003
 Sum of Mulliken charges =   1.00000
 Mulliken charges with hydrogens summed into heavy atoms:
               1
     1  N    0.442308
     2  C    0.110427
     3  C    0.578359
     4  O   -0.486930
     5  C    0.086675
     6  C    0.015452
     7  C    0.613951
     8  O   -0.571554
     9  O   -0.623664
    18  N   -0.196100
    19  C    0.044756
    20  C    0.652909
    21  O   -0.505313
    22  C    0.001880
    23  C    0.035513
    24  C    0.169129
    25  C    0.066305
    26  C    0.279978
    27  C   -0.072350
    28  N   -0.338153
    29  C   -0.011590
    30  C   -0.003463
    31  C   -0.002357
    42  N   -0.272775
    43  C    0.122417
    44  C    0.581343
    45  O   -0.506284
    46  C    0.224770
    47  C    0.073279
    48  O   -0.205766
    56  N   -0.235223
    57  C    0.144292
    58  C    0.617850
    59  O   -0.440577
    60  C   -0.010574
    61  C    0.038719
    62  C    0.184869
    63  N   -0.213754
    64  C    0.780076
    65  N   -0.004595
    66  N    0.003161
    67  O   -0.167396
 Electronic spatial extent (au):  <R**2>=        1392228.0020
 Charge=              1.0000 electrons
 Dipole moment (field-independent basis, Debye):
    X=             37.9382    Y=            151.5295    Z=             46.3037  Tot=            162.9249
 Quadrupole moment (field-independent basis, Debye-Ang):
   XX=             64.8923   YY=           4573.0857   ZZ=            255.5205
   XY=           1209.1310   XZ=            347.8396   YZ=           1469.3884
 Traceless Quadrupole moment (field-independent basis, Debye-Ang):
   XX=          -1566.2739   YY=           2941.9196   ZZ=          -1375.6457
   XY=           1209.1310   XZ=            347.8396   YZ=           1469.3884
 Octapole moment (field-independent basis, Debye-Ang**2):
  XXX=          -4557.8529  YYY=         131325.5218  ZZZ=          -3068.1624  XYY=          36495.3294
  XXY=           2277.1675  XXZ=           -206.1607  XZZ=           1188.7708  YZZ=           8264.1384
  YYZ=          44184.7575  XYZ=          11311.0262
 Hexadecapole moment (field-independent basis, Debye-Ang**3):
 XXXX=        -124909.3467 YYYY=        3531162.9277 ZZZZ=        -153362.6815 XXXY=        -140846.6683
 XXXZ=         -63293.0792 YYYX=        1035796.7149 YYYZ=        1250727.1229 ZZZX=         -47366.8082
 ZZZY=         -92407.5278 XXYY=          56991.9592 XXZZ=         -34658.8014 YYZZ=         235456.1346
 XXYZ=           -812.8499 YYXZ=         343474.6072 ZZXY=          43535.9306
 N-N= 5.832361812339D+03 E-N=-1.642042855736D+04  KE= 2.035192703003D+03
 Unable to Open any file for archive entry.
 1\1\GINC-VIM-002\SP\RB3LYP\6-31G(d)\C26H39N8O8(1+)\KENGMITH\27-May-202
 2\0\\# B3LYP/6-31G* empiricaldispersion=gd3 guess=read geom=check nosy
 mm integral(ultrafinegrid)\\Candidate Structure: Conf:876 Charge calc 
 in gas phase\\1,1\N,0,8.89575129,29.0268231496,12.4656874598\C,0,10.10
 20938088,28.3675355343,13.1043144559\C,0,10.2575499811,28.6705257877,1
 4.6117312065\O,0,10.1707689416,27.7301861701,15.3914327311\C,0,11.4064
 006444,28.6367708446,12.3429672624\C,0,11.476474801,28.1002991948,10.8
 973330832\C,0,10.778885294,28.9910108409,9.8706387545\O,0,11.476706984
 ,29.6221246621,9.0450434648\O,0,9.4919362066,29.0688722595,9.922084081
 \H,0,8.9780641778,28.9295392568,11.3864899821\H,0,9.8790347567,27.2994
 908192,13.0690283073\H,0,11.6859162426,29.6922242901,12.3665729315\H,0
 ,12.1801920481,28.1283482562,12.9291313988\H,0,11.0364045367,27.095937
 3595,10.8450921983\H,0,12.5264694561,28.0253684803,10.6083757216\H,0,8
 .0247626582,28.6202295154,12.8220519449\H,0,8.8287919335,30.0247025347
 ,12.6872649995\N,0,10.6342396505,29.9138109585,15.0276879965\C,0,10.44
 96542231,31.242656888,14.4682384219\C,0,11.6245384197,32.1012694286,14
 .9768310673\O,0,12.0965716197,31.8504184755,16.0774657741\C,0,9.141562
 5834,31.9033413907,15.0151466253\C,0,7.8916306163,31.1505821445,14.671
 4182503\C,0,7.5079867953,29.9149809195,15.1434532382\C,0,6.8678376278,
 31.5686275693,13.7378299699\C,0,5.9129250024,30.5185912957,13.65975003
 06\C,0,6.6334617988,32.754431006,13.0175806273\N,0,6.3548830894,29.499
 2191626,14.4919314323\C,0,4.7616414101,30.6076259126,12.8707844798\C,0
 ,5.4800282286,32.8566186795,12.2510336368\C,0,4.5585061028,31.79122293
 12,12.1699850122\H,0,10.9294342999,29.9418875033,16.0017867394\H,0,10.
 429573116,31.198170047,13.3785175817\H,0,9.08234819,32.9272530424,14.6
 276493721\H,0,9.2667202523,31.9886916142,16.1004993506\H,0,7.978558632
 1,29.272343894,15.8740694379\H,0,5.7693881957,28.7431051783,14.8198100
 77\H,0,7.3303454085,33.5864018635,13.0773316231\H,0,4.041023997,29.795
 9556827,12.8277278572\H,0,5.2767219817,33.7745167572,11.7071288293\H,0
 ,3.6644230414,31.9039468793,11.564281966\N,0,12.0001275265,33.20983204
 09,14.2737020986\C,0,11.8058960451,33.5524039437,12.8700699946\C,0,12.
 1469757822,32.3797237602,11.9414354648\O,0,12.9163124616,31.5025191783
 ,12.3233994495\C,0,12.7784358676,34.748092911,12.5544472272\C,0,14.244
 5459412,34.3357879208,12.4799824916\O,0,12.4548516858,35.3481192324,11
 .3118739582\H,0,11.7058651234,35.9448507701,11.4515947999\H,0,12.77477
 75819,33.6711551519,14.7389641097\H,0,10.7840405096,33.9060667184,12.7
 003069234\H,0,12.6366318108,35.4685135631,13.3752914218\H,0,14.4170334
 114,33.7355747187,11.5825277507\H,0,14.5550362471,33.743673356,13.3454
 273041\H,0,14.8653144142,35.2330601601,12.4187229274\N,0,11.6833593217
 ,32.3723014569,10.6496735186\C,0,10.4309908313,32.8398171873,10.040747
 6214\C,0,10.2300305568,34.3482102075,9.8566081734\O,0,10.4498679099,34
 .9369724919,8.827782901\C,0,9.1932633664,32.1743957792,10.6673431853\C
 ,0,7.8737210599,32.3565381696,9.8944811985\C,0,7.9653042969,32.2161322
 568,8.3686582678\N,0,8.6891804797,31.0048828134,7.966513321\C,0,9.2703
 616732,30.8696033248,6.7708121189\N,0,8.8566575774,31.6225309682,5.730
 3769325\N,0,10.2703099851,30.0004348078,6.6245863077\O,0,9.6021160357,
 34.9454053401,10.9147299144\H,0,9.3924635428,35.8552603836,10.62642543
 31\H,0,12.0497188026,31.5612567446,10.1518072039\H,0,10.525329834,32.4
 885550492,9.0129720101\H,0,9.0524176217,32.5397647448,11.6889508878\H,
 0,9.4267448659,31.1122251773,10.7180968199\H,0,7.1452619407,31.6408997
 627,10.2880609795\H,0,7.4547761995,33.3474500684,10.0958947931\H,0,6.9
 452901898,32.2088748224,7.9608828611\H,0,8.4841240311,33.0836155632,7.
 9422347013\H,0,8.9250283727,30.2895896457,8.677917866\H,0,9.3897243245
 ,31.6646941906,4.8746613828\H,0,7.959646776,32.0834589601,5.7426923666
 \H,0,10.8096393339,29.7427598327,7.4750262241\H,0,10.6213477783,29.762
 7072557,5.7084470284\\Version=ES64L-G16RevC.01\HF=-2054.0594462\RMSD=9
 .092e-09\Dipole=-3.5065093,0.1613216,-4.0869528\Quadrupole=-1164.48627
 ,2187.2450999,-1022.7588299,898.9592753,258.6102038,1092.454257\PG=C01
  [X(C26H39N8O8)]\\@
 The archive entry for this job was punched.


 LIFE CAN ONLY BE UNDERSTOOD BACKWARD, BUT MUST
 BE LIVED FORWARD. -- KIRKEGAARD
 Job cpu time:       0 days  0 hours  5 minutes 46.4 seconds.
 Elapsed time:       0 days  0 hours  1 minutes 27.6 seconds.
 File lengths (MBytes):  RWF=    376 Int=      0 D2E=      0 Chk=     56 Scr=     16
 Normal termination of Gaussian 16 at Fri May 27 05:10:33 2022.
