 Entering Gaussian System, Link 0=/opt/software/Gaussian/g16-AVX2-C.01/g16/g16
 Input=charge-conf-879.com
 Output=charge-conf-879.log
 Initial command:
 /opt/software/Gaussian/g16-AVX2-C.01/g16/l1.exe "/mnt/gs18/scratch/users/kengmith/Gau-4226.inp" -scrdir="/mnt/gs18/scratch/users/kengmith/"
 Entering Link 1 = /opt/software/Gaussian/g16-AVX2-C.01/g16/l1.exe PID=      4275.
  
 Copyright (c) 1988-2019, Gaussian, Inc.  All Rights Reserved.
  
 This is part of the Gaussian(R) 16 program.  It is based on
 the Gaussian(R) 09 system (copyright 2009, Gaussian, Inc.),
 the Gaussian(R) 03 system (copyright 2003, Gaussian, Inc.),
 the Gaussian(R) 98 system (copyright 1998, Gaussian, Inc.),
 the Gaussian(R) 94 system (copyright 1995, Gaussian, Inc.),
 the Gaussian 92(TM) system (copyright 1992, Gaussian, Inc.),
 the Gaussian 90(TM) system (copyright 1990, Gaussian, Inc.),
 the Gaussian 88(TM) system (copyright 1988, Gaussian, Inc.),
 the Gaussian 86(TM) system (copyright 1986, Carnegie Mellon
 University), and the Gaussian 82(TM) system (copyright 1983,
 Carnegie Mellon University). Gaussian is a federally registered
 trademark of Gaussian, Inc.
  
 This software contains proprietary and confidential information,
 including trade secrets, belonging to Gaussian, Inc.
  
 This software is provided under written license and may be
 used, copied, transmitted, or stored only in accord with that
 written license.
  
 The following legend is applicable only to US Government
 contracts under FAR:
  
                    RESTRICTED RIGHTS LEGEND
  
 Use, reproduction and disclosure by the US Government is
 subject to restrictions as set forth in subparagraphs (a)
 and (c) of the Commercial Computer Software - Restricted
 Rights clause in FAR 52.227-19.
  
 Gaussian, Inc.
 340 Quinnipiac St., Bldg. 40, Wallingford CT 06492
  
  
 ---------------------------------------------------------------
 Warning -- This program may not be used in any manner that
 competes with the business of Gaussian, Inc. or will provide
 assistance to any competitor of Gaussian, Inc.  The licensee
 of this program is prohibited from giving any competitor of
 Gaussian, Inc. access to this program.  By using this program,
 the user acknowledges that Gaussian, Inc. is engaged in the
 business of creating and licensing software in the field of
 computational chemistry and represents and warrants to the
 licensee that it is not a competitor of Gaussian, Inc. and that
 it will not use this program in any manner prohibited above.
 ---------------------------------------------------------------
  

 Cite this work as:
 Gaussian 16, Revision C.01,
 M. J. Frisch, G. W. Trucks, H. B. Schlegel, G. E. Scuseria, 
 M. A. Robb, J. R. Cheeseman, G. Scalmani, V. Barone, 
 G. A. Petersson, H. Nakatsuji, X. Li, M. Caricato, A. V. Marenich, 
 J. Bloino, B. G. Janesko, R. Gomperts, B. Mennucci, H. P. Hratchian, 
 J. V. Ortiz, A. F. Izmaylov, J. L. Sonnenberg, D. Williams-Young, 
 F. Ding, F. Lipparini, F. Egidi, J. Goings, B. Peng, A. Petrone, 
 T. Henderson, D. Ranasinghe, V. G. Zakrzewski, J. Gao, N. Rega, 
 G. Zheng, W. Liang, M. Hada, M. Ehara, K. Toyota, R. Fukuda, 
 J. Hasegawa, M. Ishida, T. Nakajima, Y. Honda, O. Kitao, H. Nakai, 
 T. Vreven, K. Throssell, J. A. Montgomery, Jr., J. E. Peralta, 
 F. Ogliaro, M. J. Bearpark, J. J. Heyd, E. N. Brothers, K. N. Kudin, 
 V. N. Staroverov, T. A. Keith, R. Kobayashi, J. Normand, 
 K. Raghavachari, A. P. Rendell, J. C. Burant, S. S. Iyengar, 
 J. Tomasi, M. Cossi, J. M. Millam, M. Klene, C. Adamo, R. Cammi, 
 J. W. Ochterski, R. L. Martin, K. Morokuma, O. Farkas, 
 J. B. Foresman, and D. J. Fox, Gaussian, Inc., Wallingford CT, 2019.
 
 ******************************************
 Gaussian 16:  ES64L-G16RevC.01  3-Jul-2019
                27-May-2022 
 ******************************************
 %mem=8gb
 %nproc=4
 Will use up to    4 processors via shared memory.
 %chk=conf-879.chk
 ----------------------------------------------------------------------
 # B3LYP/6-31G* empiricaldispersion=gd3 guess=read geom=check nosymm in
 tegral(ultrafinegrid)
 ----------------------------------------------------------------------
 1/29=2,38=1,172=1/1;
 2/12=2,15=1,40=1/2;
 3/5=1,6=6,7=1,11=2,14=-4,25=1,30=1,74=-5,75=-5,116=-2,124=31/1,2,3;
 4/5=1/1;
 5/5=2,38=6/2;
 6/7=2,8=2,9=2,10=2,28=1/1;
 99/5=1,9=1/99;
 ------------------------------------------------------
 Candidate Structure: Conf:879 Charge calc in gas phase
 ------------------------------------------------------
 Structure from the checkpoint file:  "conf-879.chk"
 Charge =  1 Multiplicity = 1
 Redundant internal coordinates found in file.  (old form).
 N,0,10.5391744223,28.8675290526,13.2341274869
 C,0,11.9284513916,29.2580692941,13.6958439105
 C,0,11.9203601688,29.7689040149,15.1516846566
 O,0,12.6216000494,29.2041917282,15.9717236236
 C,0,12.6341914143,30.2003071426,12.701182456
 C,0,13.055922351,29.5731343562,11.3604534062
 C,0,11.9524963693,29.3886194517,10.3171999806
 O,0,12.2213117801,29.6120314505,9.1239486424
 O,0,10.7874306054,28.9767745468,10.7128221665
 H,0,10.5703603138,28.8363527267,12.1050639864
 H,0,12.495118633,28.3262162147,13.7433999703
 H,0,12.0393279899,31.093299959,12.5003434017
 H,0,13.5360187316,30.5500458552,13.2158126943
 H,0,13.5160024584,28.5892042159,11.5304005846
 H,0,13.8245436535,30.1980127856,10.9000859924
 H,0,10.2786350908,27.9562756921,13.6174309332
 H,0,9.8148140269,29.5274802316,13.5495172323
 N,0,11.0720418302,30.7986350568,15.4904351751
 C,0,10.5706869684,31.850159544,14.6110445793
 C,0,11.5973391552,33.002083245,14.5589635331
 O,0,12.4122960686,33.1389247155,15.4587114367
 C,0,9.1673756805,32.3044440698,15.0741902523
 C,0,8.1069794342,31.3109770544,14.69286481
 C,0,7.9413604127,30.0293487976,15.173055651
 C,0,7.0607083811,31.5235208243,13.7200788303
 C,0,6.2962311766,30.326649094,13.6568020546
 C,0,6.6781918697,32.6206785756,12.9258173331
 N,0,6.8720867176,29.4242167067,14.5316939385
 C,0,5.1746225401,30.1980836487,12.8284619675
 C,0,5.5606720456,32.5004349804,12.110727981
 C,0,4.8160177961,31.3019782354,12.0637673097
 H,0,11.2970077755,31.1453568401,16.4212614049
 H,0,10.4550226725,31.4418404836,13.6091960607
 H,0,8.9366348997,33.2734032471,14.6199948071
 H,0,9.200151433,32.4784775855,16.1563389129
 H,0,8.4837118597,29.5129316829,15.9529679705
 H,0,6.4447643465,28.5582694386,14.8255251203
 H,0,7.2374350955,33.5518699773,12.9436537393
 H,0,4.5948427646,29.2796813305,12.8010736423
 H,0,5.2511092223,33.344592326,11.5018810391
 H,0,3.9412750088,31.2433330034,11.4227489126
 N,0,11.5463592693,33.8371966365,13.4792903608
 C,0,10.7045580413,33.7561429628,12.292573676
 C,0,11.6218780167,33.4755568195,11.0825088277
 O,0,12.7551154416,33.9394612869,11.0924519033
 C,0,9.8681710634,35.0614802546,12.149305403
 C,0,10.697776096,36.3077123313,11.8574342377
 O,0,8.8414102489,34.8646897488,11.1818594695
 H,0,9.1903663859,35.1508283168,10.322330593
 H,0,12.3453244851,34.4587140434,13.403530893
 H,0,9.9867153006,32.9513542927,12.4201474542
 H,0,9.355550621,35.1857587958,13.1108315431
 H,0,11.2485055976,36.2049054526,10.9158603856
 H,0,11.4261991572,36.5001315686,12.6506189162
 H,0,10.0334948579,37.1744140597,11.7907698019
 N,0,11.2419492573,32.6346275762,10.05542305
 C,0,9.9591287613,32.2495147507,9.4625012652
 C,0,9.328530178,33.316927566,8.5628292316
 O,0,8.357199797,33.1188866317,7.8689641489
 C,0,8.9464474287,31.6507229117,10.4618681679
 C,0,7.6907975271,30.9550589543,9.895259748
 C,0,7.8030922252,30.1429342229,8.6005023168
 N,0,8.9546823715,29.2310495477,8.5672875526
 C,0,9.3962503325,28.6710009861,7.4396584326
 N,0,8.58940918,28.5975544594,6.3605643081
 N,0,10.6424645274,28.1910801186,7.3876394673
 O,0,9.9815588973,34.5096257386,8.5686361752
 H,0,9.5438869416,35.0681561103,7.8954431672
 H,0,12.0155429794,32.5479874249,9.4024503745
 H,0,10.2305811371,31.4465088494,8.7683863188
 H,0,8.5842452752,32.4348557983,11.1247908565
 H,0,9.522140368,30.936566537,11.0555444012
 H,0,7.2893429678,30.3275562586,10.6986173238
 H,0,6.9231491092,31.7074672192,9.6984636744
 H,0,6.8705931703,29.5722698625,8.4855908773
 H,0,7.8859025388,30.8329851771,7.7560885815
 H,0,9.5614957559,29.1261696451,9.3969830596
 H,0,8.9480493716,28.3192712037,5.4598077184
 H,0,7.5960265542,28.7527079729,6.4381629535
 H,0,11.343813625,28.622794567,8.0214821509
 H,0,10.9559677455,27.6702483085,6.5816612172
 Recover connectivity data from disk.
                           ----------------------------
                           !    Current Parameters    !
                           ! (Angstroms and Degrees)  !
 --------------------------                            --------------------------
 ! Name  Definition              Value                                          !
 --------------------------------------------------------------------------------
 ! R1    R(1,2)                  1.5152                                         !
 ! R2    R(1,10)                 1.1299                                         !
 ! R3    R(1,16)                 1.0223                                         !
 ! R4    R(1,17)                 1.0294                                         !
 ! R5    R(2,3)                  1.5429                                         !
 ! R6    R(2,5)                  1.5412                                         !
 ! R7    R(2,11)                 1.0917                                         !
 ! R8    R(3,4)                  1.2178                                         !
 ! R9    R(3,18)                 1.3765                                         !
 ! R10   R(5,6)                  1.5391                                         !
 ! R11   R(5,12)                 1.0916                                         !
 ! R12   R(5,13)                 1.0957                                         !
 ! R13   R(6,7)                  1.5297                                         !
 ! R14   R(6,14)                 1.0994                                         !
 ! R15   R(6,15)                 1.0923                                         !
 ! R16   R(7,8)                  1.2434                                         !
 ! R17   R(7,9)                  1.2975                                         !
 ! R18   R(18,19)                1.4596                                         !
 ! R19   R(18,32)                1.0185                                         !
 ! R20   R(19,20)                1.5439                                         !
 ! R21   R(19,22)                1.546                                          !
 ! R22   R(19,33)                1.088                                          !
 ! R23   R(20,21)                1.2216                                         !
 ! R24   R(20,42)                1.3659                                         !
 ! R25   R(22,23)                1.5023                                         !
 ! R26   R(22,34)                1.0947                                         !
 ! R27   R(22,35)                1.0965                                         !
 ! R28   R(23,24)                1.3786                                         !
 ! R29   R(23,25)                1.4444                                         !
 ! R30   R(24,28)                1.386                                          !
 ! R31   R(24,36)                1.0812                                         !
 ! R32   R(25,26)                1.4216                                         !
 ! R33   R(25,27)                1.4075                                         !
 ! R34   R(26,28)                1.3825                                         !
 ! R35   R(26,29)                1.4002                                         !
 ! R36   R(27,30)                1.3884                                         !
 ! R37   R(27,38)                1.0864                                         !
 ! R38   R(28,37)                1.0094                                         !
 ! R39   R(29,31)                1.3899                                         !
 ! R40   R(29,39)                1.0864                                         !
 ! R41   R(30,31)                1.4117                                         !
 ! R42   R(30,40)                1.0859                                         !
 ! R43   R(31,41)                1.0861                                         !
 ! R44   R(42,43)                1.4572                                         !
 ! R45   R(42,50)                1.0151                                         !
 ! R46   R(43,44)                1.5442                                         !
 ! R47   R(43,46)                1.5569                                         !
 ! R48   R(43,51)                1.0859                                         !
 ! R49   R(44,45)                1.2246                                         !
 ! R50   R(44,56)                1.3807                                         !
 ! R51   R(46,47)                1.5253                                         !
 ! R52   R(46,48)                1.4244                                         !
 ! R53   R(46,52)                1.0967                                         !
 ! R54   R(47,53)                1.0956                                         !
 ! R55   R(47,54)                1.094                                          !
 ! R56   R(47,55)                1.094                                          !
 ! R57   R(48,49)                0.9708                                         !
 ! R58   R(56,57)                1.4648                                         !
 ! R59   R(56,69)                1.016                                          !
 ! R60   R(57,58)                1.5318                                         !
 ! R61   R(57,60)                1.5436                                         !
 ! R62   R(57,70)                1.0956                                         !
 ! R63   R(58,59)                1.21                                           !
 ! R64   R(58,67)                1.3598                                         !
 ! R65   R(60,61)                1.5433                                         !
 ! R66   R(60,71)                1.0888                                         !
 ! R67   R(60,72)                1.0927                                         !
 ! R68   R(61,62)                1.5325                                         !
 ! R69   R(61,73)                1.0956                                         !
 ! R70   R(61,74)                1.0928                                         !
 ! R71   R(62,63)                1.4693                                         !
 ! R72   R(62,75)                1.0993                                         !
 ! R73   R(62,76)                1.0936                                         !
 ! R74   R(63,64)                1.3342                                         !
 ! R75   R(63,77)                1.0333                                         !
 ! R76   R(64,65)                1.3494                                         !
 ! R77   R(64,66)                1.3364                                         !
 ! R78   R(65,78)                1.0087                                         !
 ! R79   R(65,79)                1.0084                                         !
 ! R80   R(66,80)                1.0392                                         !
 ! R81   R(66,81)                1.0095                                         !
 ! R82   R(67,68)                0.9781                                         !
 ! A1    A(2,1,10)             106.6365                                         !
 ! A2    A(2,1,16)             110.436                                          !
 ! A3    A(2,1,17)             112.7421                                         !
 ! A4    A(10,1,16)            110.9211                                         !
 ! A5    A(10,1,17)            110.0752                                         !
 ! A6    A(16,1,17)            106.0953                                         !
 ! A7    A(1,2,3)              111.5963                                         !
 ! A8    A(1,2,5)              112.3823                                         !
 ! A9    A(1,2,11)             105.6171                                         !
 ! A10   A(3,2,5)              114.1396                                         !
 ! A11   A(3,2,11)             104.1369                                         !
 ! A12   A(5,2,11)             108.1973                                         !
 ! A13   A(2,3,4)              118.6088                                         !
 ! A14   A(2,3,18)             118.8899                                         !
 ! A15   A(4,3,18)             122.4147                                         !
 ! A16   A(2,5,6)              116.012                                          !
 ! A17   A(2,5,12)             111.6745                                         !
 ! A18   A(2,5,13)             105.6005                                         !
 ! A19   A(6,5,12)             108.8082                                         !
 ! A20   A(6,5,13)             108.2826                                         !
 ! A21   A(12,5,13)            105.8922                                         !
 ! A22   A(5,6,7)              116.462                                          !
 ! A23   A(5,6,14)             110.1642                                         !
 ! A24   A(5,6,15)             109.0769                                         !
 ! A25   A(7,6,14)             107.4179                                         !
 ! A26   A(7,6,15)             106.8065                                         !
 ! A27   A(14,6,15)            106.419                                          !
 ! A28   A(6,7,8)              118.4815                                         !
 ! A29   A(6,7,9)              118.558                                          !
 ! A30   A(8,7,9)              122.941                                          !
 ! A31   A(3,18,19)            127.0388                                         !
 ! A32   A(3,18,32)            110.0881                                         !
 ! A33   A(19,18,32)           112.412                                          !
 ! A34   A(18,19,20)           109.2342                                         !
 ! A35   A(18,19,22)           110.0589                                         !
 ! A36   A(18,19,33)           108.7188                                         !
 ! A37   A(20,19,22)           113.2321                                         !
 ! A38   A(20,19,33)           108.6407                                         !
 ! A39   A(22,19,33)           106.8356                                         !
 ! A40   A(19,20,21)           120.1541                                         !
 ! A41   A(19,20,42)           117.2591                                         !
 ! A42   A(21,20,42)           122.5868                                         !
 ! A43   A(19,22,23)           111.7369                                         !
 ! A44   A(19,22,34)           109.0937                                         !
 ! A45   A(19,22,35)           108.3696                                         !
 ! A46   A(23,22,34)           109.3443                                         !
 ! A47   A(23,22,35)           112.1205                                         !
 ! A48   A(34,22,35)           105.9782                                         !
 ! A49   A(22,23,24)           127.6741                                         !
 ! A50   A(22,23,25)           125.8                                            !
 ! A51   A(24,23,25)           106.5212                                         !
 ! A52   A(23,24,28)           109.7185                                         !
 ! A53   A(23,24,36)           129.4195                                         !
 ! A54   A(28,24,36)           120.8133                                         !
 ! A55   A(23,25,26)           107.1954                                         !
 ! A56   A(23,25,27)           133.7618                                         !
 ! A57   A(26,25,27)           119.0148                                         !
 ! A58   A(25,26,28)           107.3013                                         !
 ! A59   A(25,26,29)           122.3022                                         !
 ! A60   A(28,26,29)           130.3952                                         !
 ! A61   A(25,27,30)           118.8513                                         !
 ! A62   A(25,27,38)           121.2662                                         !
 ! A63   A(30,27,38)           119.8823                                         !
 ! A64   A(24,28,26)           109.2197                                         !
 ! A65   A(24,28,37)           124.5061                                         !
 ! A66   A(26,28,37)           124.6018                                         !
 ! A67   A(26,29,31)           117.3354                                         !
 ! A68   A(26,29,39)           121.3314                                         !
 ! A69   A(31,29,39)           121.3196                                         !
 ! A70   A(27,30,31)           121.1719                                         !
 ! A71   A(27,30,40)           119.426                                          !
 ! A72   A(31,30,40)           119.4014                                         !
 ! A73   A(29,31,30)           121.3206                                         !
 ! A74   A(29,31,41)           119.3166                                         !
 ! A75   A(30,31,41)           119.3613                                         !
 ! A76   A(20,42,43)           129.1436                                         !
 ! A77   A(20,42,50)           113.8266                                         !
 ! A78   A(43,42,50)           115.3386                                         !
 ! A79   A(42,43,44)           107.7644                                         !
 ! A80   A(42,43,46)           109.7939                                         !
 ! A81   A(42,43,51)           109.112                                          !
 ! A82   A(44,43,46)           113.5385                                         !
 ! A83   A(44,43,51)           110.4927                                         !
 ! A84   A(46,43,51)           106.084                                          !
 ! A85   A(43,44,45)           118.3303                                         !
 ! A86   A(43,44,56)           122.0142                                         !
 ! A87   A(45,44,56)           119.4336                                         !
 ! A88   A(43,46,47)           114.2326                                         !
 ! A89   A(43,46,48)           109.5061                                         !
 ! A90   A(43,46,52)           105.3927                                         !
 ! A91   A(47,46,48)           112.0228                                         !
 ! A92   A(47,46,52)           109.2329                                         !
 ! A93   A(48,46,52)           105.9145                                         !
 ! A94   A(46,47,53)           111.1723                                         !
 ! A95   A(46,47,54)           111.5384                                         !
 ! A96   A(46,47,55)           109.1889                                         !
 ! A97   A(53,47,54)           107.7525                                         !
 ! A98   A(53,47,55)           109.0975                                         !
 ! A99   A(54,47,55)           108.0073                                         !
 ! A100  A(46,48,49)           107.5491                                         !
 ! A101  A(44,56,57)           134.6065                                         !
 ! A102  A(44,56,69)           108.6926                                         !
 ! A103  A(57,56,69)           112.5971                                         !
 ! A104  A(56,57,58)           114.5239                                         !
 ! A105  A(56,57,60)           114.4862                                         !
 ! A106  A(56,57,70)           103.425                                          !
 ! A107  A(58,57,60)           112.3634                                         !
 ! A108  A(58,57,70)           103.9241                                         !
 ! A109  A(60,57,70)           106.7622                                         !
 ! A110  A(57,58,59)           123.5873                                         !
 ! A111  A(57,58,67)           114.2675                                         !
 ! A112  A(59,58,67)           122.108                                          !
 ! A113  A(57,60,61)           118.0952                                         !
 ! A114  A(57,60,71)           109.4539                                         !
 ! A115  A(57,60,72)           105.0492                                         !
 ! A116  A(61,60,71)           106.1118                                         !
 ! A117  A(61,60,72)           109.484                                          !
 ! A118  A(71,60,72)           108.3706                                         !
 ! A119  A(60,61,62)           119.3048                                         !
 ! A120  A(60,61,73)           106.6847                                         !
 ! A121  A(60,61,74)           109.1056                                         !
 ! A122  A(62,61,73)           110.05                                           !
 ! A123  A(62,61,74)           105.3196                                         !
 ! A124  A(73,61,74)           105.6052                                         !
 ! A125  A(61,62,63)           113.9178                                         !
 ! A126  A(61,62,75)           107.5334                                         !
 ! A127  A(61,62,76)           108.8752                                         !
 ! A128  A(63,62,75)           109.896                                          !
 ! A129  A(63,62,76)           108.3484                                         !
 ! A130  A(75,62,76)           108.1237                                         !
 ! A131  A(62,63,64)           122.6162                                         !
 ! A132  A(62,63,77)           120.3408                                         !
 ! A133  A(64,63,77)           116.2111                                         !
 ! A134  A(63,64,65)           120.0544                                         !
 ! A135  A(63,64,66)           119.4878                                         !
 ! A136  A(65,64,66)           120.457                                          !
 ! A137  A(64,65,78)           121.1013                                         !
 ! A138  A(64,65,79)           121.2724                                         !
 ! A139  A(78,65,79)           117.4788                                         !
 ! A140  A(64,66,80)           117.1542                                         !
 ! A141  A(64,66,81)           120.3924                                         !
 ! A142  A(80,66,81)           119.4507                                         !
 ! A143  A(58,67,68)           106.4412                                         !
 ! D1    D(10,1,2,3)           161.8947                                         !
 ! D2    D(10,1,2,5)            32.2006                                         !
 ! D3    D(10,1,2,11)          -85.5608                                         !
 ! D4    D(16,1,2,3)           -77.5046                                         !
 ! D5    D(16,1,2,5)           152.8013                                         !
 ! D6    D(16,1,2,11)           35.0399                                         !
 ! D7    D(17,1,2,3)            40.9841                                         !
 ! D8    D(17,1,2,5)           -88.71                                           !
 ! D9    D(17,1,2,11)          153.5286                                         !
 ! D10   D(1,2,3,4)            122.4008                                         !
 ! D11   D(1,2,3,18)           -54.297                                          !
 ! D12   D(5,2,3,4)           -108.8303                                         !
 ! D13   D(5,2,3,18)            74.4718                                         !
 ! D14   D(11,2,3,4)             8.9302                                         !
 ! D15   D(11,2,3,18)         -167.7676                                         !
 ! D16   D(1,2,5,6)            -69.8517                                         !
 ! D17   D(1,2,5,12)            55.5973                                         !
 ! D18   D(1,2,5,13)           170.2364                                         !
 ! D19   D(3,2,5,6)            161.7775                                         !
 ! D20   D(3,2,5,12)           -72.7735                                         !
 ! D21   D(3,2,5,13)            41.8655                                         !
 ! D22   D(11,2,5,6)            46.3698                                         !
 ! D23   D(11,2,5,12)          171.8188                                         !
 ! D24   D(11,2,5,13)          -73.5421                                         !
 ! D25   D(2,3,18,19)          -27.6295                                         !
 ! D26   D(2,3,18,32)         -169.3087                                         !
 ! D27   D(4,3,18,19)          155.8047                                         !
 ! D28   D(4,3,18,32)           14.1255                                         !
 ! D29   D(2,5,6,7)             78.5779                                         !
 ! D30   D(2,5,6,14)           -44.0369                                         !
 ! D31   D(2,5,6,15)          -160.4991                                         !
 ! D32   D(12,5,6,7)           -48.3169                                         !
 ! D33   D(12,5,6,14)         -170.9317                                         !
 ! D34   D(12,5,6,15)           72.6061                                         !
 ! D35   D(13,5,6,7)          -162.9734                                         !
 ! D36   D(13,5,6,14)           74.4118                                         !
 ! D37   D(13,5,6,15)          -42.0504                                         !
 ! D38   D(5,6,7,8)            140.7691                                         !
 ! D39   D(5,6,7,9)            -40.7886                                         !
 ! D40   D(14,6,7,8)           -95.1948                                         !
 ! D41   D(14,6,7,9)            83.2475                                         !
 ! D42   D(15,6,7,8)            18.6474                                         !
 ! D43   D(15,6,7,9)          -162.9103                                         !
 ! D44   D(3,18,19,20)         -85.556                                          !
 ! D45   D(3,18,19,22)         149.5435                                         !
 ! D46   D(3,18,19,33)          32.8464                                         !
 ! D47   D(32,18,19,20)         55.3995                                         !
 ! D48   D(32,18,19,22)        -69.5011                                         !
 ! D49   D(32,18,19,33)        173.8018                                         !
 ! D50   D(18,19,20,21)        -21.8684                                         !
 ! D51   D(18,19,20,42)        158.0791                                         !
 ! D52   D(22,19,20,21)        101.1625                                         !
 ! D53   D(22,19,20,42)        -78.89                                           !
 ! D54   D(33,19,20,21)       -140.3195                                         !
 ! D55   D(33,19,20,42)         39.628                                          !
 ! D56   D(18,19,22,23)        -76.2049                                         !
 ! D57   D(18,19,22,34)        162.7727                                         !
 ! D58   D(18,19,22,35)         47.819                                          !
 ! D59   D(20,19,22,23)        161.221                                          !
 ! D60   D(20,19,22,34)         40.1986                                         !
 ! D61   D(20,19,22,35)        -74.755                                          !
 ! D62   D(33,19,22,23)         41.6629                                         !
 ! D63   D(33,19,22,34)        -79.3595                                         !
 ! D64   D(33,19,22,35)        165.6869                                         !
 ! D65   D(19,20,42,43)         -4.5174                                         !
 ! D66   D(19,20,42,50)       -168.8117                                         !
 ! D67   D(21,20,42,43)        175.4287                                         !
 ! D68   D(21,20,42,50)         11.1343                                         !
 ! D69   D(19,22,23,24)         67.0974                                         !
 ! D70   D(19,22,23,25)       -112.011                                          !
 ! D71   D(34,22,23,24)       -172.026                                          !
 ! D72   D(34,22,23,25)          8.8657                                         !
 ! D73   D(35,22,23,24)        -54.7923                                         !
 ! D74   D(35,22,23,25)        126.0993                                         !
 ! D75   D(22,23,24,28)       -177.8623                                         !
 ! D76   D(22,23,24,36)          4.7022                                         !
 ! D77   D(25,23,24,28)          1.3834                                         !
 ! D78   D(25,23,24,36)       -176.0521                                         !
 ! D79   D(22,23,25,26)        179.1282                                         !
 ! D80   D(22,23,25,27)         -2.8874                                         !
 ! D81   D(24,23,25,26)         -0.1357                                         !
 ! D82   D(24,23,25,27)        177.8487                                         !
 ! D83   D(23,24,28,26)         -2.1628                                         !
 ! D84   D(23,24,28,37)       -167.9615                                         !
 ! D85   D(36,24,28,26)        175.5306                                         !
 ! D86   D(36,24,28,37)          9.7319                                         !
 ! D87   D(23,25,26,28)         -1.1473                                         !
 ! D88   D(23,25,26,29)        178.4699                                         !
 ! D89   D(27,25,26,28)       -179.4827                                         !
 ! D90   D(27,25,26,29)          0.1344                                         !
 ! D91   D(23,25,27,30)       -177.4479                                         !
 ! D92   D(23,25,27,38)          2.3591                                         !
 ! D93   D(26,25,27,30)          0.3502                                         !
 ! D94   D(26,25,27,38)       -179.8429                                         !
 ! D95   D(25,26,28,24)          2.0177                                         !
 ! D96   D(25,26,28,37)        167.7997                                         !
 ! D97   D(29,26,28,24)       -177.5574                                         !
 ! D98   D(29,26,28,37)        -11.7754                                         !
 ! D99   D(25,26,29,31)         -0.6045                                         !
 ! D100  D(25,26,29,39)       -179.2801                                         !
 ! D101  D(28,26,29,31)        178.9155                                         !
 ! D102  D(28,26,29,39)          0.2399                                         !
 ! D103  D(25,27,30,31)         -0.3542                                         !
 ! D104  D(25,27,30,40)        179.3638                                         !
 ! D105  D(38,27,30,31)        179.8361                                         !
 ! D106  D(38,27,30,40)         -0.4459                                         !
 ! D107  D(26,29,31,30)          0.602                                          !
 ! D108  D(26,29,31,41)       -178.9584                                         !
 ! D109  D(39,29,31,30)        179.2778                                         !
 ! D110  D(39,29,31,41)         -0.2826                                         !
 ! D111  D(27,30,31,29)         -0.1347                                         !
 ! D112  D(27,30,31,41)        179.4255                                         !
 ! D113  D(40,30,31,29)       -179.8528                                         !
 ! D114  D(40,30,31,41)         -0.2926                                         !
 ! D115  D(20,42,43,44)       -113.4187                                         !
 ! D116  D(20,42,43,46)        122.4563                                         !
 ! D117  D(20,42,43,51)          6.5864                                         !
 ! D118  D(50,42,43,44)         50.6799                                         !
 ! D119  D(50,42,43,46)        -73.4451                                         !
 ! D120  D(50,42,43,51)        170.685                                          !
 ! D121  D(42,43,44,45)        -32.4883                                         !
 ! D122  D(42,43,44,56)        142.0652                                         !
 ! D123  D(46,43,44,45)         89.3435                                         !
 ! D124  D(46,43,44,56)        -96.103                                          !
 ! D125  D(51,43,44,45)       -151.6171                                         !
 ! D126  D(51,43,44,56)         22.9365                                         !
 ! D127  D(42,43,46,47)         66.4512                                         !
 ! D128  D(42,43,46,48)       -166.9869                                         !
 ! D129  D(42,43,46,52)        -53.4559                                         !
 ! D130  D(44,43,46,47)        -54.2439                                         !
 ! D131  D(44,43,46,48)         72.3179                                         !
 ! D132  D(44,43,46,52)       -174.1511                                         !
 ! D133  D(51,43,46,47)       -175.7789                                         !
 ! D134  D(51,43,46,48)        -49.2171                                         !
 ! D135  D(51,43,46,52)         64.3139                                         !
 ! D136  D(43,44,56,57)         29.0831                                         !
 ! D137  D(43,44,56,69)       -176.296                                          !
 ! D138  D(45,44,56,57)       -156.4217                                         !
 ! D139  D(45,44,56,69)         -1.8008                                         !
 ! D140  D(43,46,47,53)         60.5668                                         !
 ! D141  D(43,46,47,54)        -59.7242                                         !
 ! D142  D(43,46,47,55)       -179.0158                                         !
 ! D143  D(48,46,47,53)        -64.6768                                         !
 ! D144  D(48,46,47,54)        175.0322                                         !
 ! D145  D(48,46,47,55)         55.7405                                         !
 ! D146  D(52,46,47,53)        178.2977                                         !
 ! D147  D(52,46,47,54)         58.0067                                         !
 ! D148  D(52,46,47,55)        -61.285                                          !
 ! D149  D(43,46,48,49)        -92.2199                                         !
 ! D150  D(47,46,48,49)         35.5863                                         !
 ! D151  D(52,46,48,49)        154.5876                                         !
 ! D152  D(44,56,57,58)         75.1771                                         !
 ! D153  D(44,56,57,60)        -56.6836                                         !
 ! D154  D(44,56,57,70)       -172.438                                          !
 ! D155  D(69,56,57,58)        -78.7345                                         !
 ! D156  D(69,56,57,60)        149.4048                                         !
 ! D157  D(69,56,57,70)         33.6504                                         !
 ! D158  D(56,57,58,59)        171.0013                                         !
 ! D159  D(56,57,58,67)         -6.8173                                         !
 ! D160  D(60,57,58,59)        -56.1295                                         !
 ! D161  D(60,57,58,67)        126.0519                                         !
 ! D162  D(70,57,58,59)         58.9134                                         !
 ! D163  D(70,57,58,67)       -118.9052                                         !
 ! D164  D(56,57,60,61)       -167.7424                                         !
 ! D165  D(56,57,60,71)         70.7785                                         !
 ! D166  D(56,57,60,72)        -45.3945                                         !
 ! D167  D(58,57,60,61)         59.3699                                         !
 ! D168  D(58,57,60,71)        -62.1092                                         !
 ! D169  D(58,57,60,72)       -178.2822                                         !
 ! D170  D(70,57,60,61)        -53.938                                          !
 ! D171  D(70,57,60,71)       -175.4171                                         !
 ! D172  D(70,57,60,72)         68.4098                                         !
 ! D173  D(57,58,67,68)        174.2937                                         !
 ! D174  D(59,58,67,68)         -3.5609                                         !
 ! D175  D(57,60,61,62)         36.2995                                         !
 ! D176  D(57,60,61,73)        161.656                                          !
 ! D177  D(57,60,61,74)        -84.7019                                         !
 ! D178  D(71,60,61,62)        159.4729                                         !
 ! D179  D(71,60,61,73)        -75.1706                                         !
 ! D180  D(71,60,61,74)         38.4715                                         !
 ! D181  D(72,60,61,62)        -83.7722                                         !
 ! D182  D(72,60,61,73)         41.5842                                         !
 ! D183  D(72,60,61,74)        155.2263                                         !
 ! D184  D(60,61,62,63)         46.5633                                         !
 ! D185  D(60,61,62,75)        168.6055                                         !
 ! D186  D(60,61,62,76)        -74.4722                                         !
 ! D187  D(73,61,62,63)        -77.1697                                         !
 ! D188  D(73,61,62,75)         44.8724                                         !
 ! D189  D(73,61,62,76)        161.7947                                         !
 ! D190  D(74,61,62,63)        169.4464                                         !
 ! D191  D(74,61,62,75)        -68.5114                                         !
 ! D192  D(74,61,62,76)         48.4109                                         !
 ! D193  D(61,62,63,64)       -164.5661                                         !
 ! D194  D(61,62,63,77)          4.5908                                         !
 ! D195  D(75,62,63,64)         74.7039                                         !
 ! D196  D(75,62,63,77)       -116.1393                                         !
 ! D197  D(76,62,63,64)        -43.2374                                         !
 ! D198  D(76,62,63,77)        125.9194                                         !
 ! D199  D(62,63,64,65)        -19.6174                                         !
 ! D200  D(62,63,64,66)        160.0728                                         !
 ! D201  D(77,63,64,65)        170.8085                                         !
 ! D202  D(77,63,64,66)         -9.5014                                         !
 ! D203  D(63,64,65,78)        169.8367                                         !
 ! D204  D(63,64,65,79)        -14.6883                                         !
 ! D205  D(66,64,65,78)         -9.8504                                         !
 ! D206  D(66,64,65,79)        165.6246                                         !
 ! D207  D(63,64,66,80)        -26.8307                                         !
 ! D208  D(63,64,66,81)        172.8729                                         !
 ! D209  D(65,64,66,80)        152.8582                                         !
 ! D210  D(65,64,66,81)         -7.4382                                         !
 --------------------------------------------------------------------------------
 Symmetry turned off by external request.
 Stoichiometry    C26H39N8O8(1+)
 Framework group  C1[X(C26H39N8O8)]
 Deg. of freedom   237
 Full point group                 C1      NOp   1
                          Input orientation:                          
 ---------------------------------------------------------------------
 Center     Atomic      Atomic             Coordinates (Angstroms)
 Number     Number       Type             X           Y           Z
 ---------------------------------------------------------------------
      1          7           0       10.539174   28.867529   13.234127
      2          6           0       11.928451   29.258069   13.695844
      3          6           0       11.920360   29.768904   15.151685
      4          8           0       12.621600   29.204192   15.971724
      5          6           0       12.634191   30.200307   12.701182
      6          6           0       13.055922   29.573134   11.360453
      7          6           0       11.952496   29.388619   10.317200
      8          8           0       12.221312   29.612031    9.123949
      9          8           0       10.787431   28.976775   10.712822
     10          1           0       10.570360   28.836353   12.105064
     11          1           0       12.495119   28.326216   13.743400
     12          1           0       12.039328   31.093300   12.500343
     13          1           0       13.536019   30.550046   13.215813
     14          1           0       13.516002   28.589204   11.530401
     15          1           0       13.824544   30.198013   10.900086
     16          1           0       10.278635   27.956276   13.617431
     17          1           0        9.814814   29.527480   13.549517
     18          7           0       11.072042   30.798635   15.490435
     19          6           0       10.570687   31.850160   14.611045
     20          6           0       11.597339   33.002083   14.558964
     21          8           0       12.412296   33.138925   15.458711
     22          6           0        9.167376   32.304444   15.074190
     23          6           0        8.106979   31.310977   14.692865
     24          6           0        7.941360   30.029349   15.173056
     25          6           0        7.060708   31.523521   13.720079
     26          6           0        6.296231   30.326649   13.656802
     27          6           0        6.678192   32.620679   12.925817
     28          7           0        6.872087   29.424217   14.531694
     29          6           0        5.174623   30.198084   12.828462
     30          6           0        5.560672   32.500435   12.110728
     31          6           0        4.816018   31.301978   12.063767
     32          1           0       11.297008   31.145357   16.421261
     33          1           0       10.455023   31.441840   13.609196
     34          1           0        8.936635   33.273403   14.619995
     35          1           0        9.200151   32.478478   16.156339
     36          1           0        8.483712   29.512932   15.952968
     37          1           0        6.444764   28.558269   14.825525
     38          1           0        7.237435   33.551870   12.943654
     39          1           0        4.594843   29.279681   12.801074
     40          1           0        5.251109   33.344592   11.501881
     41          1           0        3.941275   31.243333   11.422749
     42          7           0       11.546359   33.837197   13.479290
     43          6           0       10.704558   33.756143   12.292574
     44          6           0       11.621878   33.475557   11.082509
     45          8           0       12.755115   33.939461   11.092452
     46          6           0        9.868171   35.061480   12.149305
     47          6           0       10.697776   36.307712   11.857434
     48          8           0        8.841410   34.864690   11.181859
     49          1           0        9.190366   35.150828   10.322331
     50          1           0       12.345324   34.458714   13.403531
     51          1           0        9.986715   32.951354   12.420147
     52          1           0        9.355551   35.185759   13.110832
     53          1           0       11.248506   36.204905   10.915860
     54          1           0       11.426199   36.500132   12.650619
     55          1           0       10.033495   37.174414   11.790770
     56          7           0       11.241949   32.634628   10.055423
     57          6           0        9.959129   32.249515    9.462501
     58          6           0        9.328530   33.316928    8.562829
     59          8           0        8.357200   33.118887    7.868964
     60          6           0        8.946447   31.650723   10.461868
     61          6           0        7.690798   30.955059    9.895260
     62          6           0        7.803092   30.142934    8.600502
     63          7           0        8.954682   29.231050    8.567288
     64          6           0        9.396250   28.671001    7.439658
     65          7           0        8.589409   28.597554    6.360564
     66          7           0       10.642465   28.191080    7.387639
     67          8           0        9.981559   34.509626    8.568636
     68          1           0        9.543887   35.068156    7.895443
     69          1           0       12.015543   32.547987    9.402450
     70          1           0       10.230581   31.446509    8.768386
     71          1           0        8.584245   32.434856   11.124791
     72          1           0        9.522140   30.936567   11.055544
     73          1           0        7.289343   30.327556   10.698617
     74          1           0        6.923149   31.707467    9.698464
     75          1           0        6.870593   29.572270    8.485591
     76          1           0        7.885903   30.832985    7.756089
     77          1           0        9.561496   29.126170    9.396983
     78          1           0        8.948049   28.319271    5.459808
     79          1           0        7.596027   28.752708    6.438163
     80          1           0       11.343814   28.622795    8.021482
     81          1           0       10.955968   27.670248    6.581661
 ---------------------------------------------------------------------
 Rotational constants (GHZ):           0.0937960           0.0743976           0.0727973
 Standard basis: 6-31G(d) (6D, 7F)
   708 basis functions,  1332 primitive gaussians,   708 cartesian basis functions
   157 alpha electrons      157 beta electrons
       nuclear repulsion energy      5831.6617972993 Hartrees.
 NAtoms=   81 NActive=   81 NUniq=   81 SFac= 1.00D+00 NAtFMM=   60 NAOKFM=T Big=T
 Integral buffers will be    131072 words long.
 Raffenetti 2 integral format.
 Two-electron integral symmetry is turned off.
 Nuclear repulsion after empirical dispersion term =     5831.5263339580 Hartrees.
 One-electron integrals computed using PRISM.
 NBasis=   708 RedAO= T EigKep=  3.62D-04  NBF=   708
 NBsUse=   708 1.00D-06 EigRej= -1.00D+00 NBFU=   708
 Initial guess from the checkpoint file:  "conf-879.chk"
 B after Tr=     0.000000    0.000000    0.000000
         Rot=    1.000000    0.000000    0.000000    0.000000 Ang=   0.00 deg.
 Requested convergence on RMS density matrix=1.00D-08 within 128 cycles.
 Requested convergence on MAX density matrix=1.00D-06.
 Requested convergence on             energy=1.00D-06.
 No special actions if energy rises.
 SCF Done:  E(RB3LYP) =  -2054.06625086     A.U. after    1 cycles
            NFock=  1  Conv=0.99D-08     -V/T= 2.0093

 **********************************************************************

            Population analysis using the SCF Density.

 **********************************************************************

 Alpha  occ. eigenvalues --  -19.31507 -19.25408 -19.24281 -19.23953 -19.22222
 Alpha  occ. eigenvalues --  -19.21838 -19.21608 -19.20701 -14.53835 -14.50090
 Alpha  occ. eigenvalues --  -14.48016 -14.47956 -14.47364 -14.46328 -14.46303
 Alpha  occ. eigenvalues --  -14.45405 -10.45073 -10.43451 -10.40324 -10.39889
 Alpha  occ. eigenvalues --  -10.39129 -10.38288 -10.36769 -10.35387 -10.34594
 Alpha  occ. eigenvalues --  -10.33927 -10.33629 -10.33487 -10.32104 -10.31654
 Alpha  occ. eigenvalues --  -10.31289 -10.30168 -10.29642 -10.29442 -10.29234
 Alpha  occ. eigenvalues --  -10.28859 -10.28296 -10.28221 -10.27804 -10.27697
 Alpha  occ. eigenvalues --  -10.27159 -10.26499  -1.22111  -1.16103  -1.14555
 Alpha  occ. eigenvalues --   -1.14000  -1.13648  -1.13093  -1.12738  -1.11824
 Alpha  occ. eigenvalues --   -1.09412  -1.07788  -1.06657  -1.02991  -1.02918
 Alpha  occ. eigenvalues --   -1.02503  -1.01972  -1.01668  -0.93327  -0.91413
 Alpha  occ. eigenvalues --   -0.90711  -0.90493  -0.87010  -0.85891  -0.85363
 Alpha  occ. eigenvalues --   -0.83304  -0.82896  -0.81428  -0.81102  -0.79550
 Alpha  occ. eigenvalues --   -0.77048  -0.76279  -0.74614  -0.73820  -0.72555
 Alpha  occ. eigenvalues --   -0.72038  -0.71590  -0.71065  -0.70360  -0.69292
 Alpha  occ. eigenvalues --   -0.68689  -0.68389  -0.67521  -0.66257  -0.66147
 Alpha  occ. eigenvalues --   -0.65767  -0.63867  -0.63746  -0.63384  -0.63040
 Alpha  occ. eigenvalues --   -0.62473  -0.61275  -0.60781  -0.59968  -0.59857
 Alpha  occ. eigenvalues --   -0.59280  -0.59172  -0.58294  -0.57928  -0.57467
 Alpha  occ. eigenvalues --   -0.57260  -0.57087  -0.56586  -0.55980  -0.55166
 Alpha  occ. eigenvalues --   -0.55004  -0.54666  -0.54442  -0.54214  -0.53755
 Alpha  occ. eigenvalues --   -0.53587  -0.52815  -0.52609  -0.52421  -0.52165
 Alpha  occ. eigenvalues --   -0.51549  -0.51315  -0.51147  -0.50625  -0.50392
 Alpha  occ. eigenvalues --   -0.50312  -0.49933  -0.49537  -0.49346  -0.48514
 Alpha  occ. eigenvalues --   -0.48280  -0.47943  -0.47507  -0.46559  -0.46252
 Alpha  occ. eigenvalues --   -0.46052  -0.45861  -0.45616  -0.45383  -0.45041
 Alpha  occ. eigenvalues --   -0.44564  -0.44308  -0.43575  -0.42853  -0.42461
 Alpha  occ. eigenvalues --   -0.41725  -0.40635  -0.40329  -0.38753  -0.38457
 Alpha  occ. eigenvalues --   -0.38103  -0.37363  -0.37341  -0.37007  -0.36122
 Alpha  occ. eigenvalues --   -0.36104  -0.35048  -0.34807  -0.34532  -0.33550
 Alpha  occ. eigenvalues --   -0.31942  -0.30183
 Alpha virt. eigenvalues --   -0.11081  -0.10817  -0.10091  -0.09527  -0.09061
 Alpha virt. eigenvalues --   -0.08073  -0.07539  -0.07222  -0.06144  -0.05760
 Alpha virt. eigenvalues --   -0.04392  -0.03864  -0.03028  -0.02358  -0.01580
 Alpha virt. eigenvalues --   -0.01261  -0.00958  -0.00487   0.00288   0.00950
 Alpha virt. eigenvalues --    0.01284   0.01430   0.02277   0.02421   0.02599
 Alpha virt. eigenvalues --    0.02947   0.03469   0.03862   0.04623   0.04909
 Alpha virt. eigenvalues --    0.05045   0.05269   0.05481   0.05958   0.06726
 Alpha virt. eigenvalues --    0.06843   0.07232   0.07562   0.07698   0.08003
 Alpha virt. eigenvalues --    0.08375   0.08899   0.09146   0.09292   0.09774
 Alpha virt. eigenvalues --    0.10086   0.10170   0.10861   0.11141   0.11525
 Alpha virt. eigenvalues --    0.11839   0.12408   0.12630   0.12760   0.13157
 Alpha virt. eigenvalues --    0.13584   0.13842   0.14257   0.14558   0.14752
 Alpha virt. eigenvalues --    0.15155   0.15756   0.15875   0.16408   0.16598
 Alpha virt. eigenvalues --    0.16985   0.17589   0.18216   0.18875   0.19686
 Alpha virt. eigenvalues --    0.20491   0.20774   0.21763   0.22505   0.22850
 Alpha virt. eigenvalues --    0.24265   0.24644   0.25129   0.25891   0.26134
 Alpha virt. eigenvalues --    0.27352   0.28019   0.28146   0.29218   0.29979
 Alpha virt. eigenvalues --    0.30885   0.31092   0.32758   0.33715   0.34997
 Alpha virt. eigenvalues --    0.36625   0.37419   0.38251   0.38936   0.39982
 Alpha virt. eigenvalues --    0.40443   0.41392   0.41559   0.42042   0.42189
 Alpha virt. eigenvalues --    0.42783   0.43108   0.43681   0.44084   0.44966
 Alpha virt. eigenvalues --    0.45148   0.45591   0.45956   0.46270   0.46350
 Alpha virt. eigenvalues --    0.46703   0.47130   0.47253   0.47606   0.48224
 Alpha virt. eigenvalues --    0.48671   0.48911   0.49253   0.50025   0.50431
 Alpha virt. eigenvalues --    0.50686   0.50826   0.51110   0.51853   0.52357
 Alpha virt. eigenvalues --    0.52671   0.52740   0.52903   0.53484   0.53672
 Alpha virt. eigenvalues --    0.54108   0.54688   0.54832   0.55127   0.55329
 Alpha virt. eigenvalues --    0.56127   0.56205   0.56654   0.56949   0.57316
 Alpha virt. eigenvalues --    0.58282   0.58539   0.58658   0.59303   0.59705
 Alpha virt. eigenvalues --    0.60197   0.60794   0.60894   0.61885   0.62083
 Alpha virt. eigenvalues --    0.62665   0.62796   0.63016   0.64287   0.64678
 Alpha virt. eigenvalues --    0.65513   0.65573   0.67001   0.67330   0.67961
 Alpha virt. eigenvalues --    0.68680   0.68915   0.69438   0.70152   0.70488
 Alpha virt. eigenvalues --    0.71062   0.71509   0.72128   0.72355   0.72931
 Alpha virt. eigenvalues --    0.73174   0.73678   0.73915   0.74232   0.74454
 Alpha virt. eigenvalues --    0.74624   0.75116   0.75566   0.75933   0.76122
 Alpha virt. eigenvalues --    0.76225   0.76400   0.76541   0.76873   0.77156
 Alpha virt. eigenvalues --    0.77563   0.77899   0.78543   0.79123   0.79657
 Alpha virt. eigenvalues --    0.80253   0.80412   0.80926   0.81261   0.81563
 Alpha virt. eigenvalues --    0.82382   0.82571   0.82699   0.83219   0.83385
 Alpha virt. eigenvalues --    0.83797   0.84784   0.84944   0.85126   0.85481
 Alpha virt. eigenvalues --    0.85569   0.85936   0.86460   0.87077   0.87820
 Alpha virt. eigenvalues --    0.88007   0.88150   0.88231   0.88657   0.89747
 Alpha virt. eigenvalues --    0.90564   0.91114   0.91796   0.92262   0.92461
 Alpha virt. eigenvalues --    0.93485   0.93883   0.94507   0.95149   0.95888
 Alpha virt. eigenvalues --    0.96747   0.96750   0.97279   0.98309   0.98821
 Alpha virt. eigenvalues --    0.99121   1.00251   1.00842   1.01007   1.01610
 Alpha virt. eigenvalues --    1.02302   1.02725   1.03360   1.03958   1.04591
 Alpha virt. eigenvalues --    1.04989   1.05302   1.06182   1.06803   1.07514
 Alpha virt. eigenvalues --    1.08004   1.08413   1.09280   1.09715   1.10446
 Alpha virt. eigenvalues --    1.11406   1.12175   1.12364   1.13529   1.13783
 Alpha virt. eigenvalues --    1.14876   1.15265   1.16330   1.16710   1.16978
 Alpha virt. eigenvalues --    1.18107   1.19003   1.19770   1.21228   1.21672
 Alpha virt. eigenvalues --    1.22343   1.22685   1.23920   1.24419   1.24542
 Alpha virt. eigenvalues --    1.25336   1.26581   1.26993   1.27379   1.28290
 Alpha virt. eigenvalues --    1.29148   1.29626   1.30011   1.30966   1.31627
 Alpha virt. eigenvalues --    1.32496   1.33477   1.33935   1.34745   1.35276
 Alpha virt. eigenvalues --    1.36509   1.36838   1.37419   1.37677   1.38309
 Alpha virt. eigenvalues --    1.38815   1.39326   1.39873   1.40222   1.41570
 Alpha virt. eigenvalues --    1.42024   1.42282   1.42342   1.44296   1.44988
 Alpha virt. eigenvalues --    1.46853   1.47554   1.48539   1.49386   1.49655
 Alpha virt. eigenvalues --    1.50408   1.51303   1.52478   1.53137   1.53242
 Alpha virt. eigenvalues --    1.54223   1.54509   1.55392   1.56381   1.57070
 Alpha virt. eigenvalues --    1.57706   1.58635   1.59671   1.60790   1.61462
 Alpha virt. eigenvalues --    1.61927   1.62669   1.63409   1.63589   1.64376
 Alpha virt. eigenvalues --    1.65040   1.65678   1.66206   1.66833   1.67370
 Alpha virt. eigenvalues --    1.67674   1.68160   1.68964   1.69689   1.70032
 Alpha virt. eigenvalues --    1.70459   1.71236   1.71595   1.71855   1.72394
 Alpha virt. eigenvalues --    1.73071   1.73543   1.73815   1.74571   1.75293
 Alpha virt. eigenvalues --    1.75522   1.76052   1.76277   1.76575   1.76873
 Alpha virt. eigenvalues --    1.77594   1.77775   1.78176   1.79052   1.79742
 Alpha virt. eigenvalues --    1.80562   1.81657   1.81970   1.82357   1.82588
 Alpha virt. eigenvalues --    1.83051   1.83919   1.84397   1.84825   1.85312
 Alpha virt. eigenvalues --    1.85593   1.86711   1.87902   1.88017   1.88932
 Alpha virt. eigenvalues --    1.89145   1.89978   1.90301   1.90829   1.91132
 Alpha virt. eigenvalues --    1.91789   1.92213   1.92284   1.92566   1.93178
 Alpha virt. eigenvalues --    1.93717   1.94051   1.94592   1.95509   1.95961
 Alpha virt. eigenvalues --    1.96855   1.97543   1.97960   1.98982   1.99358
 Alpha virt. eigenvalues --    2.00101   2.00443   2.01062   2.01473   2.02477
 Alpha virt. eigenvalues --    2.02962   2.03347   2.05042   2.05285   2.05873
 Alpha virt. eigenvalues --    2.07158   2.07617   2.07998   2.08779   2.09363
 Alpha virt. eigenvalues --    2.09562   2.11236   2.13003   2.13735   2.15158
 Alpha virt. eigenvalues --    2.15544   2.15852   2.16527   2.16857   2.17299
 Alpha virt. eigenvalues --    2.17902   2.18410   2.19255   2.19884   2.20620
 Alpha virt. eigenvalues --    2.22440   2.22613   2.23858   2.24511   2.25404
 Alpha virt. eigenvalues --    2.26122   2.27853   2.28545   2.28949   2.29843
 Alpha virt. eigenvalues --    2.30287   2.30738   2.31042   2.32138   2.33093
 Alpha virt. eigenvalues --    2.33869   2.34430   2.35533   2.37208   2.38126
 Alpha virt. eigenvalues --    2.39131   2.39276   2.39773   2.40846   2.41909
 Alpha virt. eigenvalues --    2.42778   2.43985   2.44208   2.44722   2.45729
 Alpha virt. eigenvalues --    2.46154   2.46264   2.46907   2.48350   2.48773
 Alpha virt. eigenvalues --    2.48961   2.50470   2.51556   2.52838   2.53078
 Alpha virt. eigenvalues --    2.53774   2.54283   2.55045   2.55953   2.56311
 Alpha virt. eigenvalues --    2.57016   2.57629   2.58533   2.59324   2.59902
 Alpha virt. eigenvalues --    2.60540   2.61141   2.62156   2.63065   2.63572
 Alpha virt. eigenvalues --    2.64057   2.65388   2.66590   2.67046   2.67726
 Alpha virt. eigenvalues --    2.68516   2.69372   2.70550   2.73443   2.74268
 Alpha virt. eigenvalues --    2.77034   2.77999   2.81860   2.82909   2.85433
 Alpha virt. eigenvalues --    2.85676   2.87335   2.89644   2.89873   2.90275
 Alpha virt. eigenvalues --    2.90467   2.92780   2.93197   2.94669   2.95740
 Alpha virt. eigenvalues --    2.98734   3.00363   3.01262   3.02142   3.03010
 Alpha virt. eigenvalues --    3.05309   3.12008   3.15011   3.34824   3.69208
 Alpha virt. eigenvalues --    3.73643   3.78430   3.80274   3.80779   3.88457
 Alpha virt. eigenvalues --    3.89346   3.93524   3.94480   3.95400   4.01528
 Alpha virt. eigenvalues --    4.02038   4.02873   4.05156   4.06801   4.07645
 Alpha virt. eigenvalues --    4.08944   4.09459   4.13869   4.14280   4.16402
 Alpha virt. eigenvalues --    4.19600   4.23189   4.24111   4.24724   4.25717
 Alpha virt. eigenvalues --    4.27414   4.27876   4.29682   4.33004   4.36628
 Alpha virt. eigenvalues --    4.39213   4.41937   4.46637   4.47352   4.48040
 Alpha virt. eigenvalues --    4.50139   4.56869   4.61850   4.65813   4.67412
 Alpha virt. eigenvalues --    4.71759
          Condensed to atoms (all electrons):
 Mulliken charges:
               1
     1  N   -0.817448
     2  C   -0.096233
     3  C    0.587007
     4  O   -0.457764
     5  C   -0.321617
     6  C   -0.367636
     7  C    0.651629
     8  O   -0.563866
     9  O   -0.653305
    10  H    0.463155
    11  H    0.212272
    12  H    0.175639
    13  H    0.213366
    14  H    0.181525
    15  H    0.202220
    16  H    0.387959
    17  H    0.406971
    18  N   -0.579170
    19  C   -0.102511
    20  C    0.613321
    21  O   -0.487770
    22  C   -0.359266
    23  C    0.051201
    24  C   -0.043303
    25  C    0.077543
    26  C    0.305327
    27  C   -0.223683
    28  N   -0.684651
    29  C   -0.168937
    30  C   -0.148157
    31  C   -0.149784
    32  H    0.362747
    33  H    0.125891
    34  H    0.176663
    35  H    0.186716
    36  H    0.176585
    37  H    0.343196
    38  H    0.159450
    39  H    0.142213
    40  H    0.147868
    41  H    0.145855
    42  N   -0.594806
    43  C   -0.090457
    44  C    0.597331
    45  O   -0.492846
    46  C    0.134429
    47  C   -0.498508
    48  O   -0.652644
    49  H    0.419085
    50  H    0.363589
    51  H    0.159867
    52  H    0.157217
    53  H    0.174348
    54  H    0.172177
    55  H    0.177792
    56  N   -0.618668
    57  C   -0.056890
    58  C    0.600529
    59  O   -0.444883
    60  C   -0.330628
    61  C   -0.294570
    62  C   -0.174859
    63  N   -0.637967
    64  C    0.779676
    65  N   -0.760033
    66  N   -0.789155
    67  O   -0.575224
    68  H    0.431244
    69  H    0.354221
    70  H    0.198506
    71  H    0.211428
    72  H    0.144277
    73  H    0.166204
    74  H    0.185585
    75  H    0.159123
    76  H    0.201697
    77  H    0.421931
    78  H    0.371865
    79  H    0.379428
    80  H    0.426048
    81  H    0.353325
 Sum of Mulliken charges =   1.00000
 Mulliken charges with hydrogens summed into heavy atoms:
               1
     1  N    0.440637
     2  C    0.116039
     3  C    0.587007
     4  O   -0.457764
     5  C    0.067388
     6  C    0.016110
     7  C    0.651629
     8  O   -0.563866
     9  O   -0.653305
    18  N   -0.216423
    19  C    0.023380
    20  C    0.613321
    21  O   -0.487770
    22  C    0.004114
    23  C    0.051201
    24  C    0.133282
    25  C    0.077543
    26  C    0.305327
    27  C   -0.064233
    28  N   -0.341456
    29  C   -0.026724
    30  C   -0.000289
    31  C   -0.003929
    42  N   -0.231217
    43  C    0.069410
    44  C    0.597331
    45  O   -0.492846
    46  C    0.291646
    47  C    0.025808
    48  O   -0.233560
    56  N   -0.264446
    57  C    0.141616
    58  C    0.600529
    59  O   -0.444883
    60  C    0.025077
    61  C    0.057219
    62  C    0.185960
    63  N   -0.216036
    64  C    0.779676
    65  N   -0.008740
    66  N   -0.009783
    67  O   -0.143979
 Electronic spatial extent (au):  <R**2>=        1387429.4036
 Charge=              1.0000 electrons
 Dipole moment (field-independent basis, Debye):
    X=             40.6941    Y=            142.2533    Z=             46.6697  Tot=            155.1454
 Quadrupole moment (field-independent basis, Debye-Ang):
   XX=             98.4371   YY=           4012.7004   ZZ=            261.7373
   XY=           1202.3196   XZ=            375.4105   YZ=           1379.9863
 Traceless Quadrupole moment (field-independent basis, Debye-Ang):
   XX=          -1359.1878   YY=           2555.0755   ZZ=          -1195.8877
   XY=           1202.3196   XZ=            375.4105   YZ=           1379.9863
 Octapole moment (field-independent basis, Debye-Ang**2):
  XXX=          -4356.9357  YYY=         105891.0343  ZZZ=          -2783.3181  XYY=          33552.1389
  XXY=           2333.5226  XXZ=              9.8954  XZZ=           1401.5750  YZZ=           7189.2515
  YYZ=          38348.8609  XYZ=          11066.6241
 Hexadecapole moment (field-independent basis, Debye-Ang**3):
 XXXX=        -125687.6658 YYYY=        2502850.0402 ZZZZ=        -143889.5356 XXXY=        -145360.6848
 XXXZ=         -64807.8129 YYYX=         863727.7318 YYYZ=         974716.2866 ZZZX=         -45194.1204
 ZZZY=        -101324.6076 XXYY=          29136.8515 XXZZ=         -35209.2813 YYZZ=         163080.5259
 XXYZ=          -6873.2467 YYXZ=         301895.5153 ZZXY=          35739.0560
 N-N= 5.831526333958D+03 E-N=-1.641917929633D+04  KE= 2.035178603829D+03
 Unable to Open any file for archive entry.
 1\1\GINC-VIM-002\SP\RB3LYP\6-31G(d)\C26H39N8O8(1+)\KENGMITH\27-May-202
 2\0\\# B3LYP/6-31G* empiricaldispersion=gd3 guess=read geom=check nosy
 mm integral(ultrafinegrid)\\Candidate Structure: Conf:879 Charge calc 
 in gas phase\\1,1\N,0,10.5391744223,28.8675290526,13.2341274869\C,0,11
 .9284513916,29.2580692941,13.6958439105\C,0,11.9203601688,29.768904014
 9,15.1516846566\O,0,12.6216000494,29.2041917282,15.9717236236\C,0,12.6
 341914143,30.2003071426,12.701182456\C,0,13.055922351,29.5731343562,11
 .3604534062\C,0,11.9524963693,29.3886194517,10.3171999806\O,0,12.22131
 17801,29.6120314505,9.1239486424\O,0,10.7874306054,28.9767745468,10.71
 28221665\H,0,10.5703603138,28.8363527267,12.1050639864\H,0,12.49511863
 3,28.3262162147,13.7433999703\H,0,12.0393279899,31.093299959,12.500343
 4017\H,0,13.5360187316,30.5500458552,13.2158126943\H,0,13.5160024584,2
 8.5892042159,11.5304005846\H,0,13.8245436535,30.1980127856,10.90008599
 24\H,0,10.2786350908,27.9562756921,13.6174309332\H,0,9.8148140269,29.5
 274802316,13.5495172323\N,0,11.0720418302,30.7986350568,15.4904351751\
 C,0,10.5706869684,31.850159544,14.6110445793\C,0,11.5973391552,33.0020
 83245,14.5589635331\O,0,12.4122960686,33.1389247155,15.4587114367\C,0,
 9.1673756805,32.3044440698,15.0741902523\C,0,8.1069794342,31.310977054
 4,14.69286481\C,0,7.9413604127,30.0293487976,15.173055651\C,0,7.060708
 3811,31.5235208243,13.7200788303\C,0,6.2962311766,30.326649094,13.6568
 020546\C,0,6.6781918697,32.6206785756,12.9258173331\N,0,6.8720867176,2
 9.4242167067,14.5316939385\C,0,5.1746225401,30.1980836487,12.828461967
 5\C,0,5.5606720456,32.5004349804,12.110727981\C,0,4.8160177961,31.3019
 782354,12.0637673097\H,0,11.2970077755,31.1453568401,16.4212614049\H,0
 ,10.4550226725,31.4418404836,13.6091960607\H,0,8.9366348997,33.2734032
 471,14.6199948071\H,0,9.200151433,32.4784775855,16.1563389129\H,0,8.48
 37118597,29.5129316829,15.9529679705\H,0,6.4447643465,28.5582694386,14
 .8255251203\H,0,7.2374350955,33.5518699773,12.9436537393\H,0,4.5948427
 646,29.2796813305,12.8010736423\H,0,5.2511092223,33.344592326,11.50188
 10391\H,0,3.9412750088,31.2433330034,11.4227489126\N,0,11.5463592693,3
 3.8371966365,13.4792903608\C,0,10.7045580413,33.7561429628,12.29257367
 6\C,0,11.6218780167,33.4755568195,11.0825088277\O,0,12.7551154416,33.9
 394612869,11.0924519033\C,0,9.8681710634,35.0614802546,12.149305403\C,
 0,10.697776096,36.3077123313,11.8574342377\O,0,8.8414102489,34.8646897
 488,11.1818594695\H,0,9.1903663859,35.1508283168,10.322330593\H,0,12.3
 453244851,34.4587140434,13.403530893\H,0,9.9867153006,32.9513542927,12
 .4201474542\H,0,9.355550621,35.1857587958,13.1108315431\H,0,11.2485055
 976,36.2049054526,10.9158603856\H,0,11.4261991572,36.5001315686,12.650
 6189162\H,0,10.0334948579,37.1744140597,11.7907698019\N,0,11.241949257
 3,32.6346275762,10.05542305\C,0,9.9591287613,32.2495147507,9.462501265
 2\C,0,9.328530178,33.316927566,8.5628292316\O,0,8.357199797,33.1188866
 317,7.8689641489\C,0,8.9464474287,31.6507229117,10.4618681679\C,0,7.69
 07975271,30.9550589543,9.895259748\C,0,7.8030922252,30.1429342229,8.60
 05023168\N,0,8.9546823715,29.2310495477,8.5672875526\C,0,9.3962503325,
 28.6710009861,7.4396584326\N,0,8.58940918,28.5975544594,6.3605643081\N
 ,0,10.6424645274,28.1910801186,7.3876394673\O,0,9.9815588973,34.509625
 7386,8.5686361752\H,0,9.5438869416,35.0681561103,7.8954431672\H,0,12.0
 155429794,32.5479874249,9.4024503745\H,0,10.2305811371,31.4465088494,8
 .7683863188\H,0,8.5842452752,32.4348557983,11.1247908565\H,0,9.5221403
 68,30.936566537,11.0555444012\H,0,7.2893429678,30.3275562586,10.698617
 3238\H,0,6.9231491092,31.7074672192,9.6984636744\H,0,6.8705931703,29.5
 722698625,8.4855908773\H,0,7.8859025388,30.8329851771,7.7560885815\H,0
 ,9.5614957559,29.1261696451,9.3969830596\H,0,8.9480493716,28.319271203
 7,5.4598077184\H,0,7.5960265542,28.7527079729,6.4381629535\H,0,11.3438
 13625,28.622794567,8.0214821509\H,0,10.9559677455,27.6702483085,6.5816
 612172\\Version=ES64L-G16RevC.01\HF=-2054.0662509\RMSD=9.890e-09\Dipol
 e=-2.4410635,-3.4147612,-3.7699335\Quadrupole=-1010.5228179,1899.63598
 17,-889.1131638,893.8951571,279.1085209,1025.9859982\PG=C01 [X(C26H39N
 8O8)]\\@
 The archive entry for this job was punched.


 THE REASON MAN'S BEST FRIEND IS A DOG IS BECAUSE
 HE WAGS HIS TAIL INSTEAD OF HIS TONGUE.
 Job cpu time:       0 days  0 hours  3 minutes 35.1 seconds.
 Elapsed time:       0 days  0 hours  0 minutes 54.8 seconds.
 File lengths (MBytes):  RWF=    376 Int=      0 D2E=      0 Chk=     56 Scr=     16
 Normal termination of Gaussian 16 at Fri May 27 05:10:01 2022.
