 Entering Gaussian System, Link 0=/opt/software/Gaussian/g16-AVX2-C.01/g16/g16
 Input=charge-conf-472.com
 Output=charge-conf-472.log
 Initial command:
 /opt/software/Gaussian/g16-AVX2-C.01/g16/l1.exe "/mnt/gs18/scratch/users/kengmith/Gau-25735.inp" -scrdir="/mnt/gs18/scratch/users/kengmith/"
 Entering Link 1 = /opt/software/Gaussian/g16-AVX2-C.01/g16/l1.exe PID=     25750.
  
 Copyright (c) 1988-2019, Gaussian, Inc.  All Rights Reserved.
  
 This is part of the Gaussian(R) 16 program.  It is based on
 the Gaussian(R) 09 system (copyright 2009, Gaussian, Inc.),
 the Gaussian(R) 03 system (copyright 2003, Gaussian, Inc.),
 the Gaussian(R) 98 system (copyright 1998, Gaussian, Inc.),
 the Gaussian(R) 94 system (copyright 1995, Gaussian, Inc.),
 the Gaussian 92(TM) system (copyright 1992, Gaussian, Inc.),
 the Gaussian 90(TM) system (copyright 1990, Gaussian, Inc.),
 the Gaussian 88(TM) system (copyright 1988, Gaussian, Inc.),
 the Gaussian 86(TM) system (copyright 1986, Carnegie Mellon
 University), and the Gaussian 82(TM) system (copyright 1983,
 Carnegie Mellon University). Gaussian is a federally registered
 trademark of Gaussian, Inc.
  
 This software contains proprietary and confidential information,
 including trade secrets, belonging to Gaussian, Inc.
  
 This software is provided under written license and may be
 used, copied, transmitted, or stored only in accord with that
 written license.
  
 The following legend is applicable only to US Government
 contracts under FAR:
  
                    RESTRICTED RIGHTS LEGEND
  
 Use, reproduction and disclosure by the US Government is
 subject to restrictions as set forth in subparagraphs (a)
 and (c) of the Commercial Computer Software - Restricted
 Rights clause in FAR 52.227-19.
  
 Gaussian, Inc.
 340 Quinnipiac St., Bldg. 40, Wallingford CT 06492
  
  
 ---------------------------------------------------------------
 Warning -- This program may not be used in any manner that
 competes with the business of Gaussian, Inc. or will provide
 assistance to any competitor of Gaussian, Inc.  The licensee
 of this program is prohibited from giving any competitor of
 Gaussian, Inc. access to this program.  By using this program,
 the user acknowledges that Gaussian, Inc. is engaged in the
 business of creating and licensing software in the field of
 computational chemistry and represents and warrants to the
 licensee that it is not a competitor of Gaussian, Inc. and that
 it will not use this program in any manner prohibited above.
 ---------------------------------------------------------------
  

 Cite this work as:
 Gaussian 16, Revision C.01,
 M. J. Frisch, G. W. Trucks, H. B. Schlegel, G. E. Scuseria, 
 M. A. Robb, J. R. Cheeseman, G. Scalmani, V. Barone, 
 G. A. Petersson, H. Nakatsuji, X. Li, M. Caricato, A. V. Marenich, 
 J. Bloino, B. G. Janesko, R. Gomperts, B. Mennucci, H. P. Hratchian, 
 J. V. Ortiz, A. F. Izmaylov, J. L. Sonnenberg, D. Williams-Young, 
 F. Ding, F. Lipparini, F. Egidi, J. Goings, B. Peng, A. Petrone, 
 T. Henderson, D. Ranasinghe, V. G. Zakrzewski, J. Gao, N. Rega, 
 G. Zheng, W. Liang, M. Hada, M. Ehara, K. Toyota, R. Fukuda, 
 J. Hasegawa, M. Ishida, T. Nakajima, Y. Honda, O. Kitao, H. Nakai, 
 T. Vreven, K. Throssell, J. A. Montgomery, Jr., J. E. Peralta, 
 F. Ogliaro, M. J. Bearpark, J. J. Heyd, E. N. Brothers, K. N. Kudin, 
 V. N. Staroverov, T. A. Keith, R. Kobayashi, J. Normand, 
 K. Raghavachari, A. P. Rendell, J. C. Burant, S. S. Iyengar, 
 J. Tomasi, M. Cossi, J. M. Millam, M. Klene, C. Adamo, R. Cammi, 
 J. W. Ochterski, R. L. Martin, K. Morokuma, O. Farkas, 
 J. B. Foresman, and D. J. Fox, Gaussian, Inc., Wallingford CT, 2019.
 
 ******************************************
 Gaussian 16:  ES64L-G16RevC.01  3-Jul-2019
                27-May-2022 
 ******************************************
 %mem=8gb
 %nproc=4
 Will use up to    4 processors via shared memory.
 %chk=conf-472.chk
 ----------------------------------------------------------------------
 # B3LYP/6-31G* empiricaldispersion=gd3 guess=read geom=check nosymm in
 tegral(ultrafinegrid)
 ----------------------------------------------------------------------
 1/29=2,38=1,172=1/1;
 2/12=2,15=1,40=1/2;
 3/5=1,6=6,7=1,11=2,14=-4,25=1,30=1,74=-5,75=-5,116=-2,124=31/1,2,3;
 4/5=1/1;
 5/5=2,38=6/2;
 6/7=2,8=2,9=2,10=2,28=1/1;
 99/5=1,9=1/99;
 ------------------------------------------------------
 Candidate Structure: Conf:472 Charge calc in gas phase
 ------------------------------------------------------
 Structure from the checkpoint file:  "conf-472.chk"
 Charge =  1 Multiplicity = 1
 Redundant internal coordinates found in file.  (old form).
 N,0,11.7981748159,32.2576359502,9.5412459831
 C,0,12.9598665838,32.7438548934,10.385704989
 C,0,13.9633536405,31.5972644848,10.6288029477
 O,0,15.1056487829,31.7245616504,10.2295101518
 C,0,12.4892148846,33.476149941,11.6525626938
 C,0,11.7897880011,34.8338827669,11.4456466512
 C,0,10.3285886669,34.7811700953,10.9939785095
 O,0,9.4986058518,35.5039520968,11.5727210396
 O,0,10.0091477424,33.991255947,10.012606751
 H,0,12.0891682047,32.143261977,8.5674687139
 H,0,13.5030771411,33.4506557801,9.7553772895
 H,0,11.847923323,32.8434867242,12.2630728303
 H,0,13.3889974471,33.6420691663,12.2545392887
 H,0,12.3433303988,35.439030925,10.7139502055
 H,0,11.8071045568,35.3765012699,12.3927991945
 H,0,11.4518391216,31.342190584,9.853279907
 H,0,10.973173618,33.0312645844,9.6358069438
 N,0,13.508761126,30.4184060314,11.1886539457
 C,0,12.4344008109,30.2654140616,12.1675256079
 C,0,12.9366479091,30.7033802052,13.5672878662
 O,0,14.1313655872,30.8452189002,13.7703815826
 C,0,11.9141136446,28.8071845497,12.1390216424
 C,0,11.013862373,28.5394897974,10.9651031716
 C,0,11.3446727109,28.569143126,9.6278395554
 C,0,9.6095787264,28.2090802096,11.0305062327
 C,0,9.1499728839,28.0523736808,9.6940240197
 C,0,8.6957107382,28.0415752745,12.0896533648
 N,0,10.2228576845,28.2983891315,8.8610478262
 C,0,7.8226314224,27.7230485833,9.3904597026
 C,0,7.3739777569,27.7248798033,11.7913563756
 C,0,6.9437510506,27.5604043368,10.4538280275
 H,0,14.3091436106,29.8261919103,11.4020608552
 H,0,11.6018232905,30.9068296767,11.8773033296
 H,0,11.3726108689,28.600891818,13.0669065253
 H,0,12.780547309,28.134167638,12.1483876732
 H,0,12.3084648715,28.7241360053,9.163158382
 H,0,10.2369836329,28.1113512692,7.8692416336
 H,0,9.0011149657,28.1640846763,13.1244825733
 H,0,7.4947877144,27.5922380457,8.3630070527
 H,0,6.6643432551,27.5749563073,12.6003706853
 H,0,5.910072556,27.2926903755,10.2565299782
 N,0,11.994247907,30.8872117517,14.5452102715
 C,0,10.56305572,31.0664812549,14.3495360851
 C,0,10.2600465057,32.5771148135,14.2204985819
 O,0,11.0454751399,33.3795122665,14.7152737347
 C,0,9.7681428989,30.3822776741,15.4970988958
 C,0,9.4600822986,31.291007977,16.6817162192
 O,0,8.580534787,29.8773051886,14.8761903936
 H,0,7.83873313,29.9303236857,15.500074092
 H,0,12.377702304,31.3622874574,15.357273195
 H,0,10.2687757225,30.5338564726,13.449960738
 H,0,10.3846800072,29.534210478,15.8249606929
 H,0,9.0085849265,30.7118485858,17.494570673
 H,0,8.7638793952,32.0827145301,16.3866544949
 H,0,10.372056966,31.7584037557,17.0663861485
 N,0,9.1503810699,33.0224470749,13.5585029235
 C,0,8.0973635051,32.3523223826,12.7972364309
 C,0,7.0416417953,31.6835831505,13.7076462946
 O,0,6.6647652937,32.2086980324,14.7238223114
 C,0,8.6400455075,31.547753559,11.5979494394
 C,0,7.6737627807,31.2597558082,10.4233294172
 C,0,6.6026259809,32.3161303874,10.1394146596
 N,0,7.1787847865,33.6552038146,9.9756797632
 C,0,6.468570315,34.7829258711,10.0861658955
 N,0,5.1235655388,34.743377108,9.9803290977
 N,0,7.1008991942,35.931216099,10.3236830126
 O,0,6.4228444071,30.5764243598,13.2280206237
 H,0,7.0193507995,30.0407768141,12.6739690468
 H,0,9.1087642024,34.0367423845,13.554941655
 H,0,7.5358470878,33.1938440688,12.3804451276
 H,0,9.0533909471,30.5926330568,11.9224249259
 H,0,9.4692977591,32.143231411,11.2183119293
 H,0,8.2809926488,31.1075994323,9.5230430731
 H,0,7.1440166088,30.3148413689,10.5718552667
 H,0,6.0566304171,32.0203430307,9.2332042165
 H,0,5.8801826359,32.3373305404,10.9649734711
 H,0,8.2062611629,33.7616441257,9.9250249186
 H,0,4.5645237767,35.5589115524,10.1828482803
 H,0,4.6581080403,33.9633059876,9.5414786321
 H,0,8.0484844597,35.8904829248,10.7552810372
 H,0,6.6090722306,36.8117419726,10.2771841054
 Recover connectivity data from disk.
                           ----------------------------
                           !    Current Parameters    !
                           ! (Angstroms and Degrees)  !
 --------------------------                            --------------------------
 ! Name  Definition              Value                                          !
 --------------------------------------------------------------------------------
 ! R1    R(1,2)                  1.5163                                         !
 ! R2    R(1,10)                 1.0227                                         !
 ! R3    R(1,16)                 1.0273                                         !
 ! R4    R(1,17)                 1.1349                                         !
 ! R5    R(2,3)                  1.543                                          !
 ! R6    R(2,5)                  1.5371                                         !
 ! R7    R(2,11)                 1.0918                                         !
 ! R8    R(3,4)                  1.2167                                         !
 ! R9    R(3,18)                 1.382                                          !
 ! R10   R(5,6)                  1.5412                                         !
 ! R11   R(5,12)                 1.0882                                         !
 ! R12   R(5,13)                 1.0952                                         !
 ! R13   R(6,7)                  1.5303                                         !
 ! R14   R(6,14)                 1.0991                                         !
 ! R15   R(6,15)                 1.0917                                         !
 ! R16   R(7,8)                  1.2435                                         !
 ! R17   R(7,9)                  1.2997                                         !
 ! R18   R(18,19)                1.4615                                         !
 ! R19   R(18,32)                1.0183                                         !
 ! R20   R(19,20)                1.5503                                         !
 ! R21   R(19,22)                1.5485                                         !
 ! R22   R(19,33)                1.0903                                         !
 ! R23   R(20,21)                1.2201                                         !
 ! R24   R(20,42)                1.3705                                         !
 ! R25   R(22,23)                1.5034                                         !
 ! R26   R(22,34)                1.094                                          !
 ! R27   R(22,35)                1.0972                                         !
 ! R28   R(23,24)                1.3779                                         !
 ! R29   R(23,25)                1.4441                                         !
 ! R30   R(24,28)                1.3855                                         !
 ! R31   R(24,36)                1.0811                                         !
 ! R32   R(25,26)                1.422                                          !
 ! R33   R(25,27)                1.4089                                         !
 ! R34   R(26,28)                1.3804                                         !
 ! R35   R(26,29)                1.4009                                         !
 ! R36   R(27,30)                1.3915                                         !
 ! R37   R(27,38)                1.0859                                         !
 ! R38   R(28,37)                1.0094                                         !
 ! R39   R(29,31)                1.3891                                         !
 ! R40   R(29,39)                1.0864                                         !
 ! R41   R(30,31)                1.4146                                         !
 ! R42   R(30,40)                1.0865                                         !
 ! R43   R(31,41)                1.0859                                         !
 ! R44   R(42,43)                1.4556                                         !
 ! R45   R(42,50)                1.016                                          !
 ! R46   R(43,44)                1.5461                                         !
 ! R47   R(43,46)                1.5546                                         !
 ! R48   R(43,51)                1.0861                                         !
 ! R49   R(44,45)                1.227                                          !
 ! R50   R(44,56)                1.3667                                         !
 ! R51   R(46,47)                1.5245                                         !
 ! R52   R(46,48)                1.4321                                         !
 ! R53   R(46,52)                1.0986                                         !
 ! R54   R(47,53)                1.0954                                         !
 ! R55   R(47,54)                1.0948                                         !
 ! R56   R(47,55)                1.0946                                         !
 ! R57   R(48,49)                0.9707                                         !
 ! R58   R(56,57)                1.462                                          !
 ! R59   R(56,69)                1.0152                                         !
 ! R60   R(57,58)                1.5462                                         !
 ! R61   R(57,60)                1.5428                                         !
 ! R62   R(57,70)                1.0942                                         !
 ! R63   R(58,59)                1.2043                                         !
 ! R64   R(58,67)                1.356                                          !
 ! R65   R(60,61)                1.548                                          !
 ! R66   R(60,71)                1.0901                                         !
 ! R67   R(60,72)                1.0892                                         !
 ! R68   R(61,62)                1.531                                          !
 ! R69   R(61,73)                1.0965                                         !
 ! R70   R(61,74)                1.0934                                         !
 ! R71   R(62,63)                1.4669                                         !
 ! R72   R(62,75)                1.0986                                         !
 ! R73   R(62,76)                1.0972                                         !
 ! R74   R(63,64)                1.3373                                         !
 ! R75   R(63,77)                1.0342                                         !
 ! R76   R(64,65)                1.3497                                         !
 ! R77   R(64,66)                1.3322                                         !
 ! R78   R(65,78)                1.0093                                         !
 ! R79   R(65,79)                1.0088                                         !
 ! R80   R(66,80)                1.042                                          !
 ! R81   R(66,81)                1.0096                                         !
 ! R82   R(67,68)                0.9745                                         !
 ! A1    A(2,1,10)             110.3738                                         !
 ! A2    A(2,1,16)             112.0171                                         !
 ! A3    A(2,1,17)             106.9743                                         !
 ! A4    A(10,1,16)            106.5867                                         !
 ! A5    A(10,1,17)            111.2467                                         !
 ! A6    A(16,1,17)            109.6977                                         !
 ! A7    A(1,2,3)              110.3487                                         !
 ! A8    A(1,2,5)              112.1601                                         !
 ! A9    A(1,2,11)             105.5011                                         !
 ! A10   A(3,2,5)              115.0437                                         !
 ! A11   A(3,2,11)             104.3861                                         !
 ! A12   A(5,2,11)             108.6485                                         !
 ! A13   A(2,3,4)              118.7584                                         !
 ! A14   A(2,3,18)             118.9332                                         !
 ! A15   A(4,3,18)             122.0738                                         !
 ! A16   A(2,5,6)              116.6147                                         !
 ! A17   A(2,5,12)             111.4596                                         !
 ! A18   A(2,5,13)             105.8799                                         !
 ! A19   A(6,5,12)             108.6651                                         !
 ! A20   A(6,5,13)             108.2497                                         !
 ! A21   A(12,5,13)            105.2992                                         !
 ! A22   A(5,6,7)              116.2691                                         !
 ! A23   A(5,6,14)             110.234                                          !
 ! A24   A(5,6,15)             108.3113                                         !
 ! A25   A(7,6,14)             107.66                                           !
 ! A26   A(7,6,15)             106.758                                          !
 ! A27   A(14,6,15)            107.2131                                         !
 ! A28   A(6,7,8)              118.681                                          !
 ! A29   A(6,7,9)              118.5867                                         !
 ! A30   A(8,7,9)              122.7292                                         !
 ! A31   A(3,18,19)            127.0466                                         !
 ! A32   A(3,18,32)            108.8117                                         !
 ! A33   A(19,18,32)           112.1215                                         !
 ! A34   A(18,19,20)           109.6957                                         !
 ! A35   A(18,19,22)           109.4659                                         !
 ! A36   A(18,19,33)           108.7523                                         !
 ! A37   A(20,19,22)           113.048                                          !
 ! A38   A(20,19,33)           108.7551                                         !
 ! A39   A(22,19,33)           107.0083                                         !
 ! A40   A(19,20,21)           120.0234                                         !
 ! A41   A(19,20,42)           117.3479                                         !
 ! A42   A(21,20,42)           122.6121                                         !
 ! A43   A(19,22,23)           112.5347                                         !
 ! A44   A(19,22,34)           109.1642                                         !
 ! A45   A(19,22,35)           108.1894                                         !
 ! A46   A(23,22,34)           109.4095                                         !
 ! A47   A(23,22,35)           111.7359                                         !
 ! A48   A(34,22,35)           105.5444                                         !
 ! A49   A(22,23,24)           127.6056                                         !
 ! A50   A(22,23,25)           125.992                                          !
 ! A51   A(24,23,25)           106.3999                                         !
 ! A52   A(23,24,28)           109.7862                                         !
 ! A53   A(23,24,36)           129.3643                                         !
 ! A54   A(28,24,36)           120.7923                                         !
 ! A55   A(23,25,26)           107.2747                                         !
 ! A56   A(23,25,27)           133.7884                                         !
 ! A57   A(26,25,27)           118.9344                                         !
 ! A58   A(25,26,28)           107.2358                                         !
 ! A59   A(25,26,29)           122.4003                                         !
 ! A60   A(28,26,29)           130.3591                                         !
 ! A61   A(25,27,30)           118.8177                                         !
 ! A62   A(25,27,38)           121.3701                                         !
 ! A63   A(30,27,38)           119.8095                                         !
 ! A64   A(24,28,26)           109.2788                                         !
 ! A65   A(24,28,37)           124.6569                                         !
 ! A66   A(26,28,37)           124.8047                                         !
 ! A67   A(26,29,31)           117.4598                                         !
 ! A68   A(26,29,39)           121.2772                                         !
 ! A69   A(31,29,39)           121.2614                                         !
 ! A70   A(27,30,31)           121.2006                                         !
 ! A71   A(27,30,40)           119.4826                                         !
 ! A72   A(31,30,40)           119.2967                                         !
 ! A73   A(29,31,30)           121.1817                                         !
 ! A74   A(29,31,41)           119.4764                                         !
 ! A75   A(30,31,41)           119.3391                                         !
 ! A76   A(20,42,43)           126.6346                                         !
 ! A77   A(20,42,50)           111.9339                                         !
 ! A78   A(43,42,50)           114.8954                                         !
 ! A79   A(42,43,44)           108.92                                           !
 ! A80   A(42,43,46)           110.4453                                         !
 ! A81   A(42,43,51)           108.5038                                         !
 ! A82   A(44,43,46)           113.0416                                         !
 ! A83   A(44,43,51)           110.9119                                         !
 ! A84   A(46,43,51)           104.8935                                         !
 ! A85   A(43,44,45)           118.6746                                         !
 ! A86   A(43,44,56)           121.1921                                         !
 ! A87   A(45,44,56)           120.1296                                         !
 ! A88   A(43,46,47)           114.4926                                         !
 ! A89   A(43,46,48)           105.0207                                         !
 ! A90   A(43,46,52)           105.8481                                         !
 ! A91   A(47,46,48)           112.3038                                         !
 ! A92   A(47,46,52)           109.9788                                         !
 ! A93   A(48,46,52)           108.82                                           !
 ! A94   A(46,47,53)           110.166                                          !
 ! A95   A(46,47,54)           110.4963                                         !
 ! A96   A(46,47,55)           111.0545                                         !
 ! A97   A(53,47,54)           108.6761                                         !
 ! A98   A(53,47,55)           107.9617                                         !
 ! A99   A(54,47,55)           108.4063                                         !
 ! A100  A(46,48,49)           109.6211                                         !
 ! A101  A(44,56,57)           133.4445                                         !
 ! A102  A(44,56,69)           111.1339                                         !
 ! A103  A(57,56,69)           115.2532                                         !
 ! A104  A(56,57,58)           112.5472                                         !
 ! A105  A(56,57,60)           112.983                                          !
 ! A106  A(56,57,70)           102.4422                                         !
 ! A107  A(58,57,60)           118.1867                                         !
 ! A108  A(58,57,70)           101.9194                                         !
 ! A109  A(60,57,70)           106.5889                                         !
 ! A110  A(57,58,59)           121.4609                                         !
 ! A111  A(57,58,67)           117.1592                                         !
 ! A112  A(59,58,67)           120.7738                                         !
 ! A113  A(57,60,61)           117.8595                                         !
 ! A114  A(57,60,71)           111.0338                                         !
 ! A115  A(57,60,72)           104.6929                                         !
 ! A116  A(61,60,71)           107.4293                                         !
 ! A117  A(61,60,72)           108.208                                          !
 ! A118  A(71,60,72)           107.1015                                         !
 ! A119  A(60,61,62)           116.6839                                         !
 ! A120  A(60,61,73)           107.6459                                         !
 ! A121  A(60,61,74)           111.1078                                         !
 ! A122  A(62,61,73)           109.3253                                         !
 ! A123  A(62,61,74)           106.4102                                         !
 ! A124  A(73,61,74)           105.0644                                         !
 ! A125  A(61,62,63)           112.0717                                         !
 ! A126  A(61,62,75)           108.3564                                         !
 ! A127  A(61,62,76)           109.5399                                         !
 ! A128  A(63,62,75)           110.4212                                         !
 ! A129  A(63,62,76)           108.9625                                         !
 ! A130  A(75,62,76)           107.3749                                         !
 ! A131  A(62,63,64)           123.5024                                         !
 ! A132  A(62,63,77)           119.3156                                         !
 ! A133  A(64,63,77)           116.4155                                         !
 ! A134  A(63,64,65)           119.8697                                         !
 ! A135  A(63,64,66)           119.3085                                         !
 ! A136  A(65,64,66)           120.8112                                         !
 ! A137  A(64,65,78)           120.8338                                         !
 ! A138  A(64,65,79)           121.0996                                         !
 ! A139  A(78,65,79)           117.1637                                         !
 ! A140  A(64,66,80)           118.149                                          !
 ! A141  A(64,66,81)           120.816                                          !
 ! A142  A(80,66,81)           119.7448                                         !
 ! A143  A(58,67,68)           111.7494                                         !
 ! D1    D(10,1,2,3)           -74.2082                                         !
 ! D2    D(10,1,2,5)           156.1084                                         !
 ! D3    D(10,1,2,11)           37.9927                                         !
 ! D4    D(16,1,2,3)            44.3888                                         !
 ! D5    D(16,1,2,5)           -85.2946                                         !
 ! D6    D(16,1,2,11)          156.5897                                         !
 ! D7    D(17,1,2,3)           164.6248                                         !
 ! D8    D(17,1,2,5)            34.9414                                         !
 ! D9    D(17,1,2,11)          -83.1743                                         !
 ! D10   D(1,2,3,4)            119.3408                                         !
 ! D11   D(1,2,3,18)           -55.2113                                         !
 ! D12   D(5,2,3,4)           -112.5374                                         !
 ! D13   D(5,2,3,18)            72.9105                                         !
 ! D14   D(11,2,3,4)             6.4235                                         !
 ! D15   D(11,2,3,18)         -168.1286                                         !
 ! D16   D(1,2,5,6)            -68.0916                                         !
 ! D17   D(1,2,5,12)            57.472                                          !
 ! D18   D(1,2,5,13)           171.4628                                         !
 ! D19   D(3,2,5,6)            164.6994                                         !
 ! D20   D(3,2,5,12)           -69.737                                          !
 ! D21   D(3,2,5,13)            44.2538                                         !
 ! D22   D(11,2,5,6)            48.1407                                         !
 ! D23   D(11,2,5,12)          173.7042                                         !
 ! D24   D(11,2,5,13)          -72.305                                          !
 ! D25   D(2,3,18,19)          -32.9374                                         !
 ! D26   D(2,3,18,32)         -172.0127                                         !
 ! D27   D(4,3,18,19)          152.6994                                         !
 ! D28   D(4,3,18,32)           13.6241                                         !
 ! D29   D(2,5,6,7)             78.081                                          !
 ! D30   D(2,5,6,14)           -44.7718                                         !
 ! D31   D(2,5,6,15)          -161.785                                          !
 ! D32   D(12,5,6,7)           -48.8742                                         !
 ! D33   D(12,5,6,14)         -171.727                                          !
 ! D34   D(12,5,6,15)           71.2598                                         !
 ! D35   D(13,5,6,7)          -162.7432                                         !
 ! D36   D(13,5,6,14)           74.404                                          !
 ! D37   D(13,5,6,15)          -42.6092                                         !
 ! D38   D(5,6,7,8)            133.3521                                         !
 ! D39   D(5,6,7,9)            -47.2715                                         !
 ! D40   D(14,6,7,8)          -102.4609                                         !
 ! D41   D(14,6,7,9)            76.9155                                         !
 ! D42   D(15,6,7,8)            12.3865                                         !
 ! D43   D(15,6,7,9)          -168.237                                          !
 ! D44   D(3,18,19,20)         -75.7618                                         !
 ! D45   D(3,18,19,22)         159.6578                                         !
 ! D46   D(3,18,19,33)          43.0659                                         !
 ! D47   D(32,18,19,20)         62.2215                                         !
 ! D48   D(32,18,19,22)        -62.3589                                         !
 ! D49   D(32,18,19,33)       -178.9508                                         !
 ! D50   D(18,19,20,21)        -14.5194                                         !
 ! D51   D(18,19,20,42)        166.9198                                         !
 ! D52   D(22,19,20,21)        107.9575                                         !
 ! D53   D(22,19,20,42)        -70.6032                                         !
 ! D54   D(33,19,20,21)       -133.3454                                         !
 ! D55   D(33,19,20,42)         48.0938                                         !
 ! D56   D(18,19,22,23)        -77.2717                                         !
 ! D57   D(18,19,22,34)        161.0534                                         !
 ! D58   D(18,19,22,35)         46.6712                                         !
 ! D59   D(20,19,22,23)        160.1233                                         !
 ! D60   D(20,19,22,34)         38.4484                                         !
 ! D61   D(20,19,22,35)        -75.9339                                         !
 ! D62   D(33,19,22,23)         40.4178                                         !
 ! D63   D(33,19,22,34)        -81.2571                                         !
 ! D64   D(33,19,22,35)        164.3606                                         !
 ! D65   D(19,20,42,43)        -17.6419                                         !
 ! D66   D(19,20,42,50)       -167.5207                                         !
 ! D67   D(21,20,42,43)        163.8375                                         !
 ! D68   D(21,20,42,50)         13.9587                                         !
 ! D69   D(19,22,23,24)         64.3343                                         !
 ! D70   D(19,22,23,25)       -115.0245                                         !
 ! D71   D(34,22,23,24)       -174.1303                                         !
 ! D72   D(34,22,23,25)          6.5108                                         !
 ! D73   D(35,22,23,24)        -57.6206                                         !
 ! D74   D(35,22,23,25)        123.0206                                         !
 ! D75   D(22,23,24,28)       -178.4742                                         !
 ! D76   D(22,23,24,36)          4.3079                                         !
 ! D77   D(25,23,24,28)          0.985                                          !
 ! D78   D(25,23,24,36)       -176.2329                                         !
 ! D79   D(22,23,25,26)        179.4324                                         !
 ! D80   D(22,23,25,27)          0.0436                                         !
 ! D81   D(24,23,25,26)         -0.0381                                         !
 ! D82   D(24,23,25,27)       -179.4269                                         !
 ! D83   D(23,24,28,26)         -1.6038                                         !
 ! D84   D(23,24,28,37)       -169.2729                                         !
 ! D85   D(36,24,28,26)        175.8925                                         !
 ! D86   D(36,24,28,37)          8.2234                                         !
 ! D87   D(23,25,26,28)         -0.9123                                         !
 ! D88   D(23,25,26,29)        179.8139                                         !
 ! D89   D(27,25,26,28)        178.5836                                         !
 ! D90   D(27,25,26,29)         -0.6902                                         !
 ! D91   D(23,25,27,30)        179.4925                                         !
 ! D92   D(23,25,27,38)          0.0972                                         !
 ! D93   D(26,25,27,30)          0.1593                                         !
 ! D94   D(26,25,27,38)       -179.236                                          !
 ! D95   D(25,26,28,24)          1.5334                                         !
 ! D96   D(25,26,28,37)        169.1801                                         !
 ! D97   D(29,26,28,24)       -179.2712                                         !
 ! D98   D(29,26,28,37)        -11.6246                                         !
 ! D99   D(25,26,29,31)          0.5238                                         !
 ! D100  D(25,26,29,39)       -179.0128                                         !
 ! D101  D(28,26,29,31)       -178.566                                          !
 ! D102  D(28,26,29,39)          1.8974                                         !
 ! D103  D(25,27,30,31)          0.5045                                         !
 ! D104  D(25,27,30,40)        178.8611                                         !
 ! D105  D(38,27,30,31)        179.9095                                         !
 ! D106  D(38,27,30,40)         -1.7339                                         !
 ! D107  D(26,29,31,30)          0.1576                                         !
 ! D108  D(26,29,31,41)       -179.2363                                         !
 ! D109  D(39,29,31,30)        179.6943                                         !
 ! D110  D(39,29,31,41)          0.3004                                         !
 ! D111  D(27,30,31,29)         -0.6809                                         !
 ! D112  D(27,30,31,41)        178.7139                                         !
 ! D113  D(40,30,31,29)       -179.0405                                         !
 ! D114  D(40,30,31,41)          0.3542                                         !
 ! D115  D(20,42,43,44)        -90.9651                                         !
 ! D116  D(20,42,43,46)        144.3298                                         !
 ! D117  D(20,42,43,51)         29.8721                                         !
 ! D118  D(50,42,43,44)         58.1581                                         !
 ! D119  D(50,42,43,46)        -66.547                                          !
 ! D120  D(50,42,43,51)        178.9954                                         !
 ! D121  D(42,43,44,45)        -23.9253                                         !
 ! D122  D(42,43,44,56)        155.3753                                         !
 ! D123  D(46,43,44,45)         99.2407                                         !
 ! D124  D(46,43,44,56)        -81.4587                                         !
 ! D125  D(51,43,44,45)       -143.2739                                         !
 ! D126  D(51,43,44,56)         36.0266                                         !
 ! D127  D(42,43,46,47)         91.5341                                         !
 ! D128  D(42,43,46,48)       -144.8209                                         !
 ! D129  D(42,43,46,52)        -29.7727                                         !
 ! D130  D(44,43,46,47)        -30.7834                                         !
 ! D131  D(44,43,46,48)         92.8616                                         !
 ! D132  D(44,43,46,52)       -152.0902                                         !
 ! D133  D(51,43,46,47)       -151.7462                                         !
 ! D134  D(51,43,46,48)        -28.1012                                         !
 ! D135  D(51,43,46,52)         86.947                                          !
 ! D136  D(43,44,56,57)         -4.2554                                         !
 ! D137  D(43,44,56,69)       -179.1803                                         !
 ! D138  D(45,44,56,57)        175.0351                                         !
 ! D139  D(45,44,56,69)          0.1102                                         !
 ! D140  D(43,46,47,53)       -173.2061                                         !
 ! D141  D(43,46,47,54)         66.6966                                         !
 ! D142  D(43,46,47,55)        -53.6419                                         !
 ! D143  D(48,46,47,53)         67.1436                                         !
 ! D144  D(48,46,47,54)        -52.9536                                         !
 ! D145  D(48,46,47,55)       -173.2922                                         !
 ! D146  D(52,46,47,53)        -54.1982                                         !
 ! D147  D(52,46,47,54)       -174.2954                                         !
 ! D148  D(52,46,47,55)         65.366                                          !
 ! D149  D(43,46,48,49)       -145.9839                                         !
 ! D150  D(47,46,48,49)        -20.9524                                         !
 ! D151  D(52,46,48,49)        101.0508                                         !
 ! D152  D(44,56,57,58)         78.3476                                         !
 ! D153  D(44,56,57,60)        -58.6751                                         !
 ! D154  D(44,56,57,70)       -172.9525                                         !
 ! D155  D(69,56,57,58)       -106.8868                                         !
 ! D156  D(69,56,57,60)        116.0905                                         !
 ! D157  D(69,56,57,70)          1.8131                                         !
 ! D158  D(56,57,58,59)         38.802                                          !
 ! D159  D(56,57,58,67)       -150.0603                                         !
 ! D160  D(60,57,58,59)        173.4014                                         !
 ! D161  D(60,57,58,67)        -15.4609                                         !
 ! D162  D(70,57,58,59)        -70.2281                                         !
 ! D163  D(70,57,58,67)        100.9096                                         !
 ! D164  D(56,57,60,61)       -156.6935                                         !
 ! D165  D(56,57,60,71)         78.8182                                         !
 ! D166  D(56,57,60,72)        -36.43                                           !
 ! D167  D(58,57,60,61)         68.8931                                         !
 ! D168  D(58,57,60,71)        -55.5952                                         !
 ! D169  D(58,57,60,72)       -170.8434                                         !
 ! D170  D(70,57,60,61)        -44.9444                                         !
 ! D171  D(70,57,60,71)       -169.4328                                         !
 ! D172  D(70,57,60,72)         75.3191                                         !
 ! D173  D(57,58,67,68)         34.1245                                         !
 ! D174  D(59,58,67,68)       -154.6733                                         !
 ! D175  D(57,60,61,62)         31.7614                                         !
 ! D176  D(57,60,61,73)        155.0283                                         !
 ! D177  D(57,60,61,74)        -90.4431                                         !
 ! D178  D(71,60,61,62)        158.0212                                         !
 ! D179  D(71,60,61,73)        -78.7119                                         !
 ! D180  D(71,60,61,74)         35.8168                                         !
 ! D181  D(72,60,61,62)        -86.6552                                         !
 ! D182  D(72,60,61,73)         36.6117                                         !
 ! D183  D(72,60,61,74)        151.1404                                         !
 ! D184  D(60,61,62,63)         52.9368                                         !
 ! D185  D(60,61,62,75)        175.0261                                         !
 ! D186  D(60,61,62,76)        -68.1263                                         !
 ! D187  D(73,61,62,63)        -69.46                                           !
 ! D188  D(73,61,62,75)         52.6293                                         !
 ! D189  D(73,61,62,76)        169.477                                          !
 ! D190  D(74,61,62,63)        177.5605                                         !
 ! D191  D(74,61,62,75)        -60.3502                                         !
 ! D192  D(74,61,62,76)         56.4975                                         !
 ! D193  D(61,62,63,64)       -161.0117                                         !
 ! D194  D(61,62,63,77)          8.5898                                         !
 ! D195  D(75,62,63,64)         78.0851                                         !
 ! D196  D(75,62,63,77)       -112.3134                                         !
 ! D197  D(76,62,63,64)        -39.616                                          !
 ! D198  D(76,62,63,77)        129.9855                                         !
 ! D199  D(62,63,64,65)        -18.8578                                         !
 ! D200  D(62,63,64,66)        159.9676                                         !
 ! D201  D(77,63,64,65)        171.263                                          !
 ! D202  D(77,63,64,66)         -9.9115                                         !
 ! D203  D(63,64,65,78)        171.7494                                         !
 ! D204  D(63,64,65,79)        -19.4349                                         !
 ! D205  D(66,64,65,78)         -7.058                                          !
 ! D206  D(66,64,65,79)        161.7576                                         !
 ! D207  D(63,64,66,80)        -22.0506                                         !
 ! D208  D(63,64,66,81)        170.9542                                         !
 ! D209  D(65,64,66,80)        156.7635                                         !
 ! D210  D(65,64,66,81)        -10.2317                                         !
 --------------------------------------------------------------------------------
 Symmetry turned off by external request.
 Stoichiometry    C26H39N8O8(1+)
 Framework group  C1[X(C26H39N8O8)]
 Deg. of freedom   237
 Full point group                 C1      NOp   1
                          Input orientation:                          
 ---------------------------------------------------------------------
 Center     Atomic      Atomic             Coordinates (Angstroms)
 Number     Number       Type             X           Y           Z
 ---------------------------------------------------------------------
      1          7           0       11.798175   32.257636    9.541246
      2          6           0       12.959867   32.743855   10.385705
      3          6           0       13.963354   31.597264   10.628803
      4          8           0       15.105649   31.724562   10.229510
      5          6           0       12.489215   33.476150   11.652563
      6          6           0       11.789788   34.833883   11.445647
      7          6           0       10.328589   34.781170   10.993979
      8          8           0        9.498606   35.503952   11.572721
      9          8           0       10.009148   33.991256   10.012607
     10          1           0       12.089168   32.143262    8.567469
     11          1           0       13.503077   33.450656    9.755377
     12          1           0       11.847923   32.843487   12.263073
     13          1           0       13.388997   33.642069   12.254539
     14          1           0       12.343330   35.439031   10.713950
     15          1           0       11.807105   35.376501   12.392799
     16          1           0       11.451839   31.342191    9.853280
     17          1           0       10.973174   33.031265    9.635807
     18          7           0       13.508761   30.418406   11.188654
     19          6           0       12.434401   30.265414   12.167526
     20          6           0       12.936648   30.703380   13.567288
     21          8           0       14.131366   30.845219   13.770382
     22          6           0       11.914114   28.807185   12.139022
     23          6           0       11.013862   28.539490   10.965103
     24          6           0       11.344673   28.569143    9.627840
     25          6           0        9.609579   28.209080   11.030506
     26          6           0        9.149973   28.052374    9.694024
     27          6           0        8.695711   28.041575   12.089653
     28          7           0       10.222858   28.298389    8.861048
     29          6           0        7.822631   27.723049    9.390460
     30          6           0        7.373978   27.724880   11.791356
     31          6           0        6.943751   27.560404   10.453828
     32          1           0       14.309144   29.826192   11.402061
     33          1           0       11.601823   30.906830   11.877303
     34          1           0       11.372611   28.600892   13.066907
     35          1           0       12.780547   28.134168   12.148388
     36          1           0       12.308465   28.724136    9.163158
     37          1           0       10.236984   28.111351    7.869242
     38          1           0        9.001115   28.164085   13.124483
     39          1           0        7.494788   27.592238    8.363007
     40          1           0        6.664343   27.574956   12.600371
     41          1           0        5.910073   27.292690   10.256530
     42          7           0       11.994248   30.887212   14.545210
     43          6           0       10.563056   31.066481   14.349536
     44          6           0       10.260047   32.577115   14.220499
     45          8           0       11.045475   33.379512   14.715274
     46          6           0        9.768143   30.382278   15.497099
     47          6           0        9.460082   31.291008   16.681716
     48          8           0        8.580535   29.877305   14.876190
     49          1           0        7.838733   29.930324   15.500074
     50          1           0       12.377702   31.362287   15.357273
     51          1           0       10.268776   30.533856   13.449961
     52          1           0       10.384680   29.534210   15.824961
     53          1           0        9.008585   30.711849   17.494571
     54          1           0        8.763879   32.082715   16.386654
     55          1           0       10.372057   31.758404   17.066386
     56          7           0        9.150381   33.022447   13.558503
     57          6           0        8.097364   32.352322   12.797236
     58          6           0        7.041642   31.683583   13.707646
     59          8           0        6.664765   32.208698   14.723822
     60          6           0        8.640046   31.547754   11.597949
     61          6           0        7.673763   31.259756   10.423329
     62          6           0        6.602626   32.316130   10.139415
     63          7           0        7.178785   33.655204    9.975680
     64          6           0        6.468570   34.782926   10.086166
     65          7           0        5.123566   34.743377    9.980329
     66          7           0        7.100899   35.931216   10.323683
     67          8           0        6.422844   30.576424   13.228021
     68          1           0        7.019351   30.040777   12.673969
     69          1           0        9.108764   34.036742   13.554942
     70          1           0        7.535847   33.193844   12.380445
     71          1           0        9.053391   30.592633   11.922425
     72          1           0        9.469298   32.143231   11.218312
     73          1           0        8.280993   31.107599    9.523043
     74          1           0        7.144017   30.314841   10.571855
     75          1           0        6.056630   32.020343    9.233204
     76          1           0        5.880183   32.337331   10.964973
     77          1           0        8.206261   33.761644    9.925025
     78          1           0        4.564524   35.558912   10.182848
     79          1           0        4.658108   33.963306    9.541479
     80          1           0        8.048484   35.890483   10.755281
     81          1           0        6.609072   36.811742   10.277184
 ---------------------------------------------------------------------
 Rotational constants (GHZ):           0.0935608           0.0816644           0.0732331
 Standard basis: 6-31G(d) (6D, 7F)
   708 basis functions,  1332 primitive gaussians,   708 cartesian basis functions
   157 alpha electrons      157 beta electrons
       nuclear repulsion energy      5904.0817420903 Hartrees.
 NAtoms=   81 NActive=   81 NUniq=   81 SFac= 1.00D+00 NAtFMM=   60 NAOKFM=T Big=T
 Integral buffers will be    131072 words long.
 Raffenetti 2 integral format.
 Two-electron integral symmetry is turned off.
 Nuclear repulsion after empirical dispersion term =     5903.9396392155 Hartrees.
 One-electron integrals computed using PRISM.
 NBasis=   708 RedAO= T EigKep=  3.67D-04  NBF=   708
 NBsUse=   708 1.00D-06 EigRej= -1.00D+00 NBFU=   708
 Initial guess from the checkpoint file:  "conf-472.chk"
 B after Tr=     0.000000    0.000000    0.000000
         Rot=    1.000000    0.000000    0.000000    0.000000 Ang=   0.00 deg.
 Requested convergence on RMS density matrix=1.00D-08 within 128 cycles.
 Requested convergence on MAX density matrix=1.00D-06.
 Requested convergence on             energy=1.00D-06.
 No special actions if energy rises.
 SCF Done:  E(RB3LYP) =  -2054.05728100     A.U. after    2 cycles
            NFock=  2  Conv=0.94D-08     -V/T= 2.0093

 **********************************************************************

            Population analysis using the SCF Density.

 **********************************************************************

 Alpha  occ. eigenvalues --  -19.28088 -19.25193 -19.24502 -19.22737 -19.22496
 Alpha  occ. eigenvalues --  -19.22473 -19.21190 -19.21160 -14.54566 -14.50873
 Alpha  occ. eigenvalues --  -14.49058 -14.48818 -14.48178 -14.46710 -14.46073
 Alpha  occ. eigenvalues --  -14.45439 -10.46021 -10.41316 -10.40791 -10.40286
 Alpha  occ. eigenvalues --  -10.38772 -10.38551 -10.37060 -10.35463 -10.35106
 Alpha  occ. eigenvalues --  -10.35101 -10.34200 -10.33747 -10.32782 -10.32579
 Alpha  occ. eigenvalues --  -10.31281 -10.31210 -10.30722 -10.30578 -10.29664
 Alpha  occ. eigenvalues --  -10.29494 -10.29321 -10.29082 -10.28848 -10.28775
 Alpha  occ. eigenvalues --  -10.28411 -10.26498  -1.18861  -1.16631  -1.15032
 Alpha  occ. eigenvalues --   -1.14554  -1.13805  -1.12984  -1.12283  -1.10844
 Alpha  occ. eigenvalues --   -1.10001  -1.08598  -1.07204  -1.04028  -1.03240
 Alpha  occ. eigenvalues --   -1.02582  -1.02395  -1.02117  -0.94349  -0.91800
 Alpha  occ. eigenvalues --   -0.91666  -0.91178  -0.87472  -0.86450  -0.85721
 Alpha  occ. eigenvalues --   -0.83952  -0.83544  -0.82243  -0.81036  -0.79890
 Alpha  occ. eigenvalues --   -0.77522  -0.76998  -0.74879  -0.73247  -0.72655
 Alpha  occ. eigenvalues --   -0.72383  -0.72166  -0.71389  -0.70846  -0.69954
 Alpha  occ. eigenvalues --   -0.69464  -0.68979  -0.68343  -0.67678  -0.66925
 Alpha  occ. eigenvalues --   -0.66239  -0.64338  -0.64289  -0.64183  -0.63324
 Alpha  occ. eigenvalues --   -0.63036  -0.62579  -0.61436  -0.60769  -0.59631
 Alpha  occ. eigenvalues --   -0.59556  -0.58919  -0.58574  -0.58415  -0.57800
 Alpha  occ. eigenvalues --   -0.57743  -0.57340  -0.56767  -0.55828  -0.55304
 Alpha  occ. eigenvalues --   -0.55000  -0.54874  -0.54739  -0.54122  -0.54056
 Alpha  occ. eigenvalues --   -0.53727  -0.53406  -0.53106  -0.52634  -0.52409
 Alpha  occ. eigenvalues --   -0.52077  -0.51874  -0.51662  -0.51195  -0.50752
 Alpha  occ. eigenvalues --   -0.50329  -0.50111  -0.49775  -0.49258  -0.48835
 Alpha  occ. eigenvalues --   -0.48335  -0.48120  -0.47636  -0.47013  -0.46713
 Alpha  occ. eigenvalues --   -0.46395  -0.46234  -0.46072  -0.45999  -0.45724
 Alpha  occ. eigenvalues --   -0.45466  -0.44964  -0.43946  -0.43598  -0.42633
 Alpha  occ. eigenvalues --   -0.41422  -0.40476  -0.39296  -0.39220  -0.38585
 Alpha  occ. eigenvalues --   -0.38010  -0.37772  -0.37583  -0.36755  -0.36619
 Alpha  occ. eigenvalues --   -0.35823  -0.35438  -0.34992  -0.34872  -0.34109
 Alpha  occ. eigenvalues --   -0.33023  -0.31044
 Alpha virt. eigenvalues --   -0.12103  -0.10791  -0.10506  -0.09420  -0.08757
 Alpha virt. eigenvalues --   -0.08479  -0.08356  -0.07985  -0.06828  -0.06522
 Alpha virt. eigenvalues --   -0.05305  -0.03660  -0.03091  -0.02579  -0.02175
 Alpha virt. eigenvalues --   -0.01589  -0.01260  -0.00662  -0.00011   0.00201
 Alpha virt. eigenvalues --    0.00809   0.01374   0.01547   0.01715   0.01890
 Alpha virt. eigenvalues --    0.02599   0.02761   0.03021   0.04007   0.04071
 Alpha virt. eigenvalues --    0.04622   0.04902   0.05201   0.05701   0.05814
 Alpha virt. eigenvalues --    0.06393   0.06582   0.06810   0.07493   0.08036
 Alpha virt. eigenvalues --    0.08344   0.08518   0.08646   0.08720   0.09378
 Alpha virt. eigenvalues --    0.09427   0.09779   0.10442   0.10605   0.10974
 Alpha virt. eigenvalues --    0.11091   0.11598   0.11785   0.12502   0.12666
 Alpha virt. eigenvalues --    0.13008   0.13217   0.13712   0.14106   0.14730
 Alpha virt. eigenvalues --    0.14768   0.15026   0.15838   0.16261   0.16647
 Alpha virt. eigenvalues --    0.17146   0.17481   0.17511   0.17923   0.19494
 Alpha virt. eigenvalues --    0.19762   0.20533   0.21540   0.22159   0.23443
 Alpha virt. eigenvalues --    0.23953   0.24088   0.25610   0.26232   0.26592
 Alpha virt. eigenvalues --    0.27010   0.27501   0.28276   0.28910   0.29397
 Alpha virt. eigenvalues --    0.30038   0.31145   0.32927   0.33972   0.34282
 Alpha virt. eigenvalues --    0.36321   0.36906   0.37269   0.39084   0.39292
 Alpha virt. eigenvalues --    0.40329   0.40949   0.41552   0.41814   0.42312
 Alpha virt. eigenvalues --    0.42400   0.43292   0.43565   0.43962   0.44287
 Alpha virt. eigenvalues --    0.44658   0.44995   0.45094   0.45804   0.46184
 Alpha virt. eigenvalues --    0.46246   0.47360   0.47799   0.47867   0.48365
 Alpha virt. eigenvalues --    0.48834   0.49086   0.49395   0.49573   0.49964
 Alpha virt. eigenvalues --    0.50583   0.50718   0.51238   0.51379   0.51846
 Alpha virt. eigenvalues --    0.52136   0.52444   0.52601   0.53111   0.53544
 Alpha virt. eigenvalues --    0.54054   0.54826   0.54962   0.55481   0.55625
 Alpha virt. eigenvalues --    0.56145   0.56261   0.56619   0.56796   0.57260
 Alpha virt. eigenvalues --    0.57512   0.58441   0.58729   0.59129   0.59900
 Alpha virt. eigenvalues --    0.59974   0.60649   0.60875   0.61570   0.62083
 Alpha virt. eigenvalues --    0.62745   0.63170   0.63696   0.64206   0.64464
 Alpha virt. eigenvalues --    0.64751   0.65091   0.66480   0.66932   0.67598
 Alpha virt. eigenvalues --    0.68286   0.68922   0.69868   0.70277   0.71001
 Alpha virt. eigenvalues --    0.71268   0.71748   0.72001   0.72213   0.72556
 Alpha virt. eigenvalues --    0.72876   0.73220   0.73703   0.74129   0.74255
 Alpha virt. eigenvalues --    0.74654   0.74871   0.74978   0.75381   0.75770
 Alpha virt. eigenvalues --    0.76091   0.76465   0.76634   0.76783   0.77585
 Alpha virt. eigenvalues --    0.77740   0.78145   0.78779   0.79190   0.79458
 Alpha virt. eigenvalues --    0.79756   0.80005   0.80242   0.80918   0.81513
 Alpha virt. eigenvalues --    0.81897   0.82070   0.82642   0.82874   0.83000
 Alpha virt. eigenvalues --    0.83296   0.83501   0.84443   0.84561   0.85201
 Alpha virt. eigenvalues --    0.85262   0.86055   0.86660   0.86853   0.87436
 Alpha virt. eigenvalues --    0.88019   0.88910   0.89043   0.89082   0.89660
 Alpha virt. eigenvalues --    0.90007   0.90682   0.91476   0.91980   0.93210
 Alpha virt. eigenvalues --    0.93575   0.94165   0.94520   0.95126   0.96060
 Alpha virt. eigenvalues --    0.96866   0.97375   0.97943   0.98575   0.99659
 Alpha virt. eigenvalues --    1.00299   1.00559   1.01461   1.01849   1.02324
 Alpha virt. eigenvalues --    1.02886   1.03112   1.03519   1.03833   1.04271
 Alpha virt. eigenvalues --    1.04658   1.05585   1.06503   1.07020   1.07646
 Alpha virt. eigenvalues --    1.07790   1.08208   1.09061   1.09759   1.10938
 Alpha virt. eigenvalues --    1.11030   1.12400   1.12497   1.13307   1.14230
 Alpha virt. eigenvalues --    1.14902   1.16231   1.17083   1.17406   1.17788
 Alpha virt. eigenvalues --    1.18418   1.19844   1.21116   1.21698   1.22812
 Alpha virt. eigenvalues --    1.23063   1.23608   1.23841   1.24444   1.25452
 Alpha virt. eigenvalues --    1.26261   1.26631   1.27628   1.28517   1.29235
 Alpha virt. eigenvalues --    1.29670   1.30014   1.31169   1.32008   1.32467
 Alpha virt. eigenvalues --    1.33240   1.33748   1.34224   1.35048   1.36232
 Alpha virt. eigenvalues --    1.36452   1.36861   1.37810   1.38868   1.39525
 Alpha virt. eigenvalues --    1.40139   1.40404   1.41702   1.42181   1.42803
 Alpha virt. eigenvalues --    1.43717   1.44027   1.44659   1.44949   1.45759
 Alpha virt. eigenvalues --    1.47266   1.47952   1.48293   1.50032   1.50220
 Alpha virt. eigenvalues --    1.50359   1.52084   1.52278   1.52787   1.54755
 Alpha virt. eigenvalues --    1.54965   1.55654   1.56620   1.56962   1.58010
 Alpha virt. eigenvalues --    1.59025   1.59376   1.60443   1.60587   1.61537
 Alpha virt. eigenvalues --    1.62557   1.62874   1.63535   1.64058   1.64388
 Alpha virt. eigenvalues --    1.64871   1.65859   1.66730   1.67072   1.67528
 Alpha virt. eigenvalues --    1.68378   1.68939   1.69618   1.69926   1.70246
 Alpha virt. eigenvalues --    1.70450   1.71305   1.71396   1.71770   1.73193
 Alpha virt. eigenvalues --    1.73562   1.73917   1.74315   1.74581   1.74873
 Alpha virt. eigenvalues --    1.75786   1.76162   1.76497   1.77129   1.77616
 Alpha virt. eigenvalues --    1.78015   1.78372   1.78755   1.79596   1.80536
 Alpha virt. eigenvalues --    1.80627   1.81145   1.81579   1.81903   1.82605
 Alpha virt. eigenvalues --    1.83158   1.83591   1.84435   1.84876   1.85133
 Alpha virt. eigenvalues --    1.85864   1.86689   1.87452   1.87900   1.88271
 Alpha virt. eigenvalues --    1.88793   1.89372   1.89719   1.90538   1.90845
 Alpha virt. eigenvalues --    1.91773   1.91999   1.92358   1.93207   1.93407
 Alpha virt. eigenvalues --    1.94056   1.94773   1.94930   1.95213   1.96293
 Alpha virt. eigenvalues --    1.96748   1.96829   1.97904   1.98950   1.99242
 Alpha virt. eigenvalues --    1.99321   1.99880   2.00740   2.01800   2.01858
 Alpha virt. eigenvalues --    2.03536   2.04474   2.04789   2.05171   2.05895
 Alpha virt. eigenvalues --    2.06922   2.08217   2.08601   2.09182   2.10307
 Alpha virt. eigenvalues --    2.11291   2.11535   2.12573   2.13730   2.14597
 Alpha virt. eigenvalues --    2.15262   2.15555   2.16737   2.16955   2.18375
 Alpha virt. eigenvalues --    2.18455   2.19811   2.19888   2.20244   2.20906
 Alpha virt. eigenvalues --    2.22012   2.23238   2.23616   2.25078   2.26240
 Alpha virt. eigenvalues --    2.26583   2.27767   2.29046   2.29840   2.30298
 Alpha virt. eigenvalues --    2.30669   2.31273   2.32177   2.33216   2.33934
 Alpha virt. eigenvalues --    2.34889   2.36135   2.36853   2.36903   2.38340
 Alpha virt. eigenvalues --    2.39177   2.40224   2.40764   2.40987   2.41922
 Alpha virt. eigenvalues --    2.42324   2.43097   2.43986   2.44587   2.45194
 Alpha virt. eigenvalues --    2.45446   2.45997   2.47066   2.48079   2.48194
 Alpha virt. eigenvalues --    2.49256   2.50733   2.51487   2.51926   2.53046
 Alpha virt. eigenvalues --    2.53731   2.54277   2.55107   2.55618   2.55943
 Alpha virt. eigenvalues --    2.56904   2.57037   2.57938   2.58779   2.59671
 Alpha virt. eigenvalues --    2.60088   2.60792   2.61847   2.62542   2.62910
 Alpha virt. eigenvalues --    2.64519   2.66061   2.66607   2.67535   2.68436
 Alpha virt. eigenvalues --    2.68971   2.69462   2.72319   2.72994   2.74205
 Alpha virt. eigenvalues --    2.76628   2.81276   2.83027   2.83392   2.83968
 Alpha virt. eigenvalues --    2.85405   2.89173   2.89619   2.89913   2.91329
 Alpha virt. eigenvalues --    2.92107   2.92579   2.92825   2.93798   2.96151
 Alpha virt. eigenvalues --    2.99234   3.00045   3.00955   3.01630   3.01887
 Alpha virt. eigenvalues --    3.06087   3.11441   3.14168   3.33594   3.68391
 Alpha virt. eigenvalues --    3.75927   3.78409   3.79807   3.82708   3.87466
 Alpha virt. eigenvalues --    3.92527   3.92745   3.95928   3.96940   4.02436
 Alpha virt. eigenvalues --    4.03320   4.05179   4.06764   4.07016   4.08780
 Alpha virt. eigenvalues --    4.09586   4.11479   4.13916   4.15696   4.17299
 Alpha virt. eigenvalues --    4.19362   4.21675   4.23963   4.24944   4.26810
 Alpha virt. eigenvalues --    4.29389   4.30717   4.32424   4.35287   4.37814
 Alpha virt. eigenvalues --    4.39717   4.43340   4.46693   4.48443   4.52658
 Alpha virt. eigenvalues --    4.56145   4.59058   4.62669   4.64832   4.70237
 Alpha virt. eigenvalues --    4.73940
          Condensed to atoms (all electrons):
 Mulliken charges:
               1
     1  N   -0.812450
     2  C   -0.096936
     3  C    0.590492
     4  O   -0.452365
     5  C   -0.324024
     6  C   -0.366246
     7  C    0.636082
     8  O   -0.553123
     9  O   -0.647682
    10  H    0.390825
    11  H    0.214552
    12  H    0.173938
    13  H    0.221075
    14  H    0.180839
    15  H    0.213997
    16  H    0.396626
    17  H    0.464060
    18  N   -0.586351
    19  C   -0.096976
    20  C    0.608207
    21  O   -0.482132
    22  C   -0.370562
    23  C    0.066098
    24  C   -0.029716
    25  C    0.066349
    26  C    0.317168
    27  C   -0.244694
    28  N   -0.688468
    29  C   -0.165531
    30  C   -0.185131
    31  C   -0.151612
    32  H    0.359629
    33  H    0.128697
    34  H    0.185969
    35  H    0.186543
    36  H    0.175614
    37  H    0.344671
    38  H    0.176871
    39  H    0.147037
    40  H    0.163114
    41  H    0.153940
    42  N   -0.582581
    43  C   -0.112430
    44  C    0.616105
    45  O   -0.517621
    46  C    0.153919
    47  C   -0.517199
    48  O   -0.653180
    49  H    0.425372
    50  H    0.358175
    51  H    0.162702
    52  H    0.159072
    53  H    0.170992
    54  H    0.199993
    55  H    0.178344
    56  N   -0.605936
    57  C   -0.049466
    58  C    0.620136
    59  O   -0.444929
    60  C   -0.373300
    61  C   -0.312063
    62  C   -0.160896
    63  N   -0.638969
    64  C    0.781504
    65  N   -0.758228
    66  N   -0.787137
    67  O   -0.605840
    68  H    0.439272
    69  H    0.364437
    70  H    0.184042
    71  H    0.191850
    72  H    0.150849
    73  H    0.153483
    74  H    0.182313
    75  H    0.170210
    76  H    0.183717
    77  H    0.421298
    78  H    0.375840
    79  H    0.378782
    80  H    0.430551
    81  H    0.358423
 Sum of Mulliken charges =   1.00000
 Mulliken charges with hydrogens summed into heavy atoms:
               1
     1  N    0.439061
     2  C    0.117616
     3  C    0.590492
     4  O   -0.452365
     5  C    0.070989
     6  C    0.028591
     7  C    0.636082
     8  O   -0.553123
     9  O   -0.647682
    18  N   -0.226722
    19  C    0.031721
    20  C    0.608207
    21  O   -0.482132
    22  C    0.001950
    23  C    0.066098
    24  C    0.145899
    25  C    0.066349
    26  C    0.317168
    27  C   -0.067823
    28  N   -0.343796
    29  C   -0.018494
    30  C   -0.022017
    31  C    0.002329
    42  N   -0.224407
    43  C    0.050271
    44  C    0.616105
    45  O   -0.517621
    46  C    0.312991
    47  C    0.032129
    48  O   -0.227808
    56  N   -0.241499
    57  C    0.134576
    58  C    0.620136
    59  O   -0.444929
    60  C   -0.030601
    61  C    0.023734
    62  C    0.193031
    63  N   -0.217670
    64  C    0.781504
    65  N   -0.003606
    66  N    0.001837
    67  O   -0.166568
 Electronic spatial extent (au):  <R**2>=        1395438.8439
 Charge=              1.0000 electrons
 Dipole moment (field-independent basis, Debye):
    X=             37.9885    Y=            153.6817    Z=             45.5977  Tot=            164.7433
 Quadrupole moment (field-independent basis, Debye-Ang):
   XX=             70.9767   YY=           4719.7234   ZZ=            205.6467
   XY=           1189.0100   XZ=            355.6871   YZ=           1450.2137
 Traceless Quadrupole moment (field-independent basis, Debye-Ang):
   XX=          -1594.4722   YY=           3054.2745   ZZ=          -1459.8022
   XY=           1189.0100   XZ=            355.6871   YZ=           1450.2137
 Octapole moment (field-independent basis, Debye-Ang**2):
  XXX=          -4737.8145  YYY=         138890.6758  ZZZ=          -3977.1425  XYY=          35145.5468
  XXY=           2032.7530  XXZ=            -94.3655  XZZ=           1114.9736  YZZ=           6416.9971
  YYZ=          43676.4305  XYZ=          11036.0978
 Hexadecapole moment (field-independent basis, Debye-Ang**3):
 XXXX=        -136888.4665 YYYY=        3878806.6356 ZZZZ=        -158146.2769 XXXY=        -151292.1335
 XXXZ=         -66561.1738 YYYX=         970982.8135 YYYZ=        1238095.4505 ZZZX=         -47917.8456
 ZZZY=        -129248.3501 XXYY=          34112.5986 XXZZ=         -34187.9727 YYZZ=         167779.1728
 XXYZ=          -5834.2326 YYXZ=         316849.4138 ZZXY=          31737.2801
 N-N= 5.903939639215D+03 E-N=-1.656296745849D+04  KE= 2.035219567984D+03
 Unable to Open any file for archive entry.
 1\1\GINC-LAC-313\SP\RB3LYP\6-31G(d)\C26H39N8O8(1+)\KENGMITH\27-May-202
 2\0\\# B3LYP/6-31G* empiricaldispersion=gd3 guess=read geom=check nosy
 mm integral(ultrafinegrid)\\Candidate Structure: Conf:472 Charge calc 
 in gas phase\\1,1\N,0,11.7981748159,32.2576359502,9.5412459831\C,0,12.
 9598665838,32.7438548934,10.385704989\C,0,13.9633536405,31.5972644848,
 10.6288029477\O,0,15.1056487829,31.7245616504,10.2295101518\C,0,12.489
 2148846,33.476149941,11.6525626938\C,0,11.7897880011,34.8338827669,11.
 4456466512\C,0,10.3285886669,34.7811700953,10.9939785095\O,0,9.4986058
 518,35.5039520968,11.5727210396\O,0,10.0091477424,33.991255947,10.0126
 06751\H,0,12.0891682047,32.143261977,8.5674687139\H,0,13.5030771411,33
 .4506557801,9.7553772895\H,0,11.847923323,32.8434867242,12.2630728303\
 H,0,13.3889974471,33.6420691663,12.2545392887\H,0,12.3433303988,35.439
 030925,10.7139502055\H,0,11.8071045568,35.3765012699,12.3927991945\H,0
 ,11.4518391216,31.342190584,9.853279907\H,0,10.973173618,33.0312645844
 ,9.6358069438\N,0,13.508761126,30.4184060314,11.1886539457\C,0,12.4344
 008109,30.2654140616,12.1675256079\C,0,12.9366479091,30.7033802052,13.
 5672878662\O,0,14.1313655872,30.8452189002,13.7703815826\C,0,11.914113
 6446,28.8071845497,12.1390216424\C,0,11.013862373,28.5394897974,10.965
 1031716\C,0,11.3446727109,28.569143126,9.6278395554\C,0,9.6095787264,2
 8.2090802096,11.0305062327\C,0,9.1499728839,28.0523736808,9.6940240197
 \C,0,8.6957107382,28.0415752745,12.0896533648\N,0,10.2228576845,28.298
 3891315,8.8610478262\C,0,7.8226314224,27.7230485833,9.3904597026\C,0,7
 .3739777569,27.7248798033,11.7913563756\C,0,6.9437510506,27.5604043368
 ,10.4538280275\H,0,14.3091436106,29.8261919103,11.4020608552\H,0,11.60
 18232905,30.9068296767,11.8773033296\H,0,11.3726108689,28.600891818,13
 .0669065253\H,0,12.780547309,28.134167638,12.1483876732\H,0,12.3084648
 715,28.7241360053,9.163158382\H,0,10.2369836329,28.1113512692,7.869241
 6336\H,0,9.0011149657,28.1640846763,13.1244825733\H,0,7.4947877144,27.
 5922380457,8.3630070527\H,0,6.6643432551,27.5749563073,12.6003706853\H
 ,0,5.910072556,27.2926903755,10.2565299782\N,0,11.994247907,30.8872117
 517,14.5452102715\C,0,10.56305572,31.0664812549,14.3495360851\C,0,10.2
 600465057,32.5771148135,14.2204985819\O,0,11.0454751399,33.3795122665,
 14.7152737347\C,0,9.7681428989,30.3822776741,15.4970988958\C,0,9.46008
 22986,31.291007977,16.6817162192\O,0,8.580534787,29.8773051886,14.8761
 903936\H,0,7.83873313,29.9303236857,15.500074092\H,0,12.377702304,31.3
 622874574,15.357273195\H,0,10.2687757225,30.5338564726,13.449960738\H,
 0,10.3846800072,29.534210478,15.8249606929\H,0,9.0085849265,30.7118485
 858,17.494570673\H,0,8.7638793952,32.0827145301,16.3866544949\H,0,10.3
 72056966,31.7584037557,17.0663861485\N,0,9.1503810699,33.0224470749,13
 .5585029235\C,0,8.0973635051,32.3523223826,12.7972364309\C,0,7.0416417
 953,31.6835831505,13.7076462946\O,0,6.6647652937,32.2086980324,14.7238
 223114\C,0,8.6400455075,31.547753559,11.5979494394\C,0,7.6737627807,31
 .2597558082,10.4233294172\C,0,6.6026259809,32.3161303874,10.1394146596
 \N,0,7.1787847865,33.6552038146,9.9756797632\C,0,6.468570315,34.782925
 8711,10.0861658955\N,0,5.1235655388,34.743377108,9.9803290977\N,0,7.10
 08991942,35.931216099,10.3236830126\O,0,6.4228444071,30.5764243598,13.
 2280206237\H,0,7.0193507995,30.0407768141,12.6739690468\H,0,9.10876420
 24,34.0367423845,13.554941655\H,0,7.5358470878,33.1938440688,12.380445
 1276\H,0,9.0533909471,30.5926330568,11.9224249259\H,0,9.4692977591,32.
 143231411,11.2183119293\H,0,8.2809926488,31.1075994323,9.5230430731\H,
 0,7.1440166088,30.3148413689,10.5718552667\H,0,6.0566304171,32.0203430
 307,9.2332042165\H,0,5.8801826359,32.3373305404,10.9649734711\H,0,8.20
 62611629,33.7616441257,9.9250249186\H,0,4.5645237767,35.5589115524,10.
 1828482803\H,0,4.6581080403,33.9633059876,9.5414786321\H,0,8.048484459
 7,35.8904829248,10.7552810372\H,0,6.6090722306,36.8117419726,10.277184
 1054\\Version=ES64L-G16RevC.01\HF=-2054.057281\RMSD=9.410e-09\Dipole=-
 3.567582,0.9842885,-4.5278559\Quadrupole=-1185.451034,2270.7782083,-10
 85.3271743,883.9998096,264.4446482,1078.1983448\PG=C01 [X(C26H39N8O8)]
 \\@
 The archive entry for this job was punched.


 Discoveries are often made by not following instructions,
 by going off the main road, by trying the untried.
 -- Frank Tyger
 Job cpu time:       0 days  0 hours  5 minutes 54.9 seconds.
 Elapsed time:       0 days  0 hours  1 minutes 29.8 seconds.
 File lengths (MBytes):  RWF=    376 Int=      0 D2E=      0 Chk=     56 Scr=     16
 Normal termination of Gaussian 16 at Fri May 27 05:10:31 2022.
