 Entering Gaussian System, Link 0=/opt/software/Gaussian/g16-AVX2-C.01/g16/g16
 Input=charge-conf-727.com
 Output=charge-conf-727.log
 Initial command:
 /opt/software/Gaussian/g16-AVX2-C.01/g16/l1.exe "/mnt/gs18/scratch/users/kengmith/Gau-4190.inp" -scrdir="/mnt/gs18/scratch/users/kengmith/"
 Entering Link 1 = /opt/software/Gaussian/g16-AVX2-C.01/g16/l1.exe PID=      4240.
  
 Copyright (c) 1988-2019, Gaussian, Inc.  All Rights Reserved.
  
 This is part of the Gaussian(R) 16 program.  It is based on
 the Gaussian(R) 09 system (copyright 2009, Gaussian, Inc.),
 the Gaussian(R) 03 system (copyright 2003, Gaussian, Inc.),
 the Gaussian(R) 98 system (copyright 1998, Gaussian, Inc.),
 the Gaussian(R) 94 system (copyright 1995, Gaussian, Inc.),
 the Gaussian 92(TM) system (copyright 1992, Gaussian, Inc.),
 the Gaussian 90(TM) system (copyright 1990, Gaussian, Inc.),
 the Gaussian 88(TM) system (copyright 1988, Gaussian, Inc.),
 the Gaussian 86(TM) system (copyright 1986, Carnegie Mellon
 University), and the Gaussian 82(TM) system (copyright 1983,
 Carnegie Mellon University). Gaussian is a federally registered
 trademark of Gaussian, Inc.
  
 This software contains proprietary and confidential information,
 including trade secrets, belonging to Gaussian, Inc.
  
 This software is provided under written license and may be
 used, copied, transmitted, or stored only in accord with that
 written license.
  
 The following legend is applicable only to US Government
 contracts under FAR:
  
                    RESTRICTED RIGHTS LEGEND
  
 Use, reproduction and disclosure by the US Government is
 subject to restrictions as set forth in subparagraphs (a)
 and (c) of the Commercial Computer Software - Restricted
 Rights clause in FAR 52.227-19.
  
 Gaussian, Inc.
 340 Quinnipiac St., Bldg. 40, Wallingford CT 06492
  
  
 ---------------------------------------------------------------
 Warning -- This program may not be used in any manner that
 competes with the business of Gaussian, Inc. or will provide
 assistance to any competitor of Gaussian, Inc.  The licensee
 of this program is prohibited from giving any competitor of
 Gaussian, Inc. access to this program.  By using this program,
 the user acknowledges that Gaussian, Inc. is engaged in the
 business of creating and licensing software in the field of
 computational chemistry and represents and warrants to the
 licensee that it is not a competitor of Gaussian, Inc. and that
 it will not use this program in any manner prohibited above.
 ---------------------------------------------------------------
  

 Cite this work as:
 Gaussian 16, Revision C.01,
 M. J. Frisch, G. W. Trucks, H. B. Schlegel, G. E. Scuseria, 
 M. A. Robb, J. R. Cheeseman, G. Scalmani, V. Barone, 
 G. A. Petersson, H. Nakatsuji, X. Li, M. Caricato, A. V. Marenich, 
 J. Bloino, B. G. Janesko, R. Gomperts, B. Mennucci, H. P. Hratchian, 
 J. V. Ortiz, A. F. Izmaylov, J. L. Sonnenberg, D. Williams-Young, 
 F. Ding, F. Lipparini, F. Egidi, J. Goings, B. Peng, A. Petrone, 
 T. Henderson, D. Ranasinghe, V. G. Zakrzewski, J. Gao, N. Rega, 
 G. Zheng, W. Liang, M. Hada, M. Ehara, K. Toyota, R. Fukuda, 
 J. Hasegawa, M. Ishida, T. Nakajima, Y. Honda, O. Kitao, H. Nakai, 
 T. Vreven, K. Throssell, J. A. Montgomery, Jr., J. E. Peralta, 
 F. Ogliaro, M. J. Bearpark, J. J. Heyd, E. N. Brothers, K. N. Kudin, 
 V. N. Staroverov, T. A. Keith, R. Kobayashi, J. Normand, 
 K. Raghavachari, A. P. Rendell, J. C. Burant, S. S. Iyengar, 
 J. Tomasi, M. Cossi, J. M. Millam, M. Klene, C. Adamo, R. Cammi, 
 J. W. Ochterski, R. L. Martin, K. Morokuma, O. Farkas, 
 J. B. Foresman, and D. J. Fox, Gaussian, Inc., Wallingford CT, 2019.
 
 ******************************************
 Gaussian 16:  ES64L-G16RevC.01  3-Jul-2019
                27-May-2022 
 ******************************************
 %mem=8gb
 %nproc=4
 Will use up to    4 processors via shared memory.
 %chk=conf-727.chk
 ----------------------------------------------------------------------
 # B3LYP/6-31G* empiricaldispersion=gd3 guess=read geom=check nosymm in
 tegral(ultrafinegrid)
 ----------------------------------------------------------------------
 1/29=2,38=1,172=1/1;
 2/12=2,15=1,40=1/2;
 3/5=1,6=6,7=1,11=2,14=-4,25=1,30=1,74=-5,75=-5,116=-2,124=31/1,2,3;
 4/5=1/1;
 5/5=2,38=6/2;
 6/7=2,8=2,9=2,10=2,28=1/1;
 99/5=1,9=1/99;
 ------------------------------------------------------
 Candidate Structure: Conf:727 Charge calc in gas phase
 ------------------------------------------------------
 Structure from the checkpoint file:  "conf-727.chk"
 Charge =  1 Multiplicity = 1
 Redundant internal coordinates found in file.  (old form).
 N,0,9.6983374993,28.9967950429,13.455540216
 C,0,10.0638789825,27.9183453016,12.5026390939
 C,0,11.5732133634,27.6416007885,12.3057935673
 O,0,12.0226207038,26.5613597412,12.6637124633
 C,0,9.3430242095,28.0959916992,11.1523690284
 C,0,7.8122983273,27.8808919618,11.2114575717
 C,0,6.9810039646,29.0853548228,11.6245212081
 O,0,5.9458865321,29.3839481698,11.0315800934
 O,0,7.3917359657,29.8277254283,12.637618685
 H,0,8.2824595025,29.4727587725,13.0733982035
 H,0,9.7071481813,26.9865470264,12.9485136593
 H,0,9.5719901867,29.0757753754,10.7138621656
 H,0,9.7571479743,27.3548340776,10.4614606251
 H,0,7.5798577427,27.0609614794,11.9054819487
 H,0,7.4359399781,27.5749188276,10.2329484895
 H,0,9.8519104683,28.689108178,14.415119433
 H,0,10.2954531064,29.816348193,13.3543764899
 N,0,12.3462628975,28.5274451439,11.5982406588
 C,0,12.2632327229,29.9681281843,11.4640420707
 C,0,12.7803903593,30.3393238691,10.0598950851
 O,0,13.5603757811,29.6002501547,9.4808430875
 C,0,13.1404832036,30.674727715,12.5472104089
 C,0,12.5977085339,30.4961973001,13.9282048849
 C,0,12.7654139314,29.4164885655,14.7629292876
 C,0,11.6658683017,31.3837120409,14.5830355581
 C,0,11.3004811404,30.7746374222,15.8160500847
 C,0,11.1055835124,32.6297060759,14.2450832226
 N,0,11.9719587559,29.5668070124,15.8858485639
 C,0,10.399357284,31.3700778676,16.7050299907
 C,0,10.210367167,33.2236354104,15.1266263366
 C,0,9.8583542564,32.5984640455,16.3419900665
 H,0,13.2547433928,28.148483854,11.3448911644
 H,0,11.2228330613,30.2807071337,11.5770978154
 H,0,13.2129220157,31.7425822089,12.3162274035
 H,0,14.1536585687,30.2683301037,12.4532575188
 H,0,13.3624610593,28.5254491639,14.6263666513
 H,0,12.0207265679,28.9770806709,16.7040694609
 H,0,11.3866501289,33.1372086833,13.3260451817
 H,0,10.1363596727,30.8955445193,17.6461043742
 H,0,9.7838565665,34.193553764,14.8868890496
 H,0,9.1613102125,33.0914133822,17.0128793067
 N,0,12.3845033718,31.5321005669,9.511571719
 C,0,11.4824289436,32.5442732904,10.0249706696
 C,0,10.5252115151,32.9385371213,8.8839256282
 O,0,10.9493871781,32.8751394923,7.7361448102
 C,0,12.2906904315,33.7874797104,10.496925598
 C,0,12.9596676988,34.5872586688,9.388126724
 O,0,11.3670206772,34.604213249,11.256651899
 H,0,11.8638752352,35.3343381261,11.6629241265
 H,0,12.6779780473,31.6672152241,8.5484611741
 H,0,10.9503641696,32.1543328684,10.8883262088
 H,0,13.0538277596,33.4091184478,11.1867410851
 H,0,13.6433355461,33.9539644569,8.8156326622
 H,0,13.5484173937,35.4037365227,9.8211114963
 H,0,12.2246471531,35.0101997253,8.6983722973
 N,0,9.2670821654,33.4465602535,9.1013696622
 C,0,8.2915577046,33.5930030415,10.1930576242
 C,0,8.0170415937,35.0867612903,10.4611584751
 O,0,6.8757619567,35.5226542593,10.4787351511
 C,0,8.5726506898,32.8283905363,11.4971111409
 C,0,7.6190442628,33.1210770292,12.6746667762
 C,0,6.0985780671,33.1580328594,12.4198565798
 N,0,5.6241576073,32.1713733256,11.4486776333
 C,0,4.8905808573,32.4161909362,10.3625157865
 N,0,4.7462420599,33.6562102384,9.8685094126
 N,0,4.2675309529,31.3810396355,9.7603977298
 O,0,9.0563383254,35.871526361,10.684759791
 H,0,9.9068762071,35.361262677,10.6822318545
 H,0,8.8776144088,33.7087326718,8.1996669224
 H,0,7.3549446464,33.2082943747,9.7885781276
 H,0,9.5695843526,33.0689976701,11.8646958433
 H,0,8.5471484408,31.7578981857,11.2654612448
 H,0,7.8417097204,32.3673291667,13.4342481743
 H,0,7.8824184981,34.0873722461,13.1212393871
 H,0,5.580974056,32.9729636764,13.3675899561
 H,0,5.7980655246,34.1481411161,12.0854268457
 H,0,5.75984884,31.1799076548,11.6628332538
 H,0,4.0780387794,33.8294281704,9.1319474209
 H,0,5.3919102796,34.4134546778,10.1170965208
 H,0,4.4907678552,30.4449461627,10.088475947
 H,0,4.0018043752,31.464831216,8.7893328164
 Recover connectivity data from disk.
                           ----------------------------
                           !    Current Parameters    !
                           ! (Angstroms and Degrees)  !
 --------------------------                            --------------------------
 ! Name  Definition              Value                                          !
 --------------------------------------------------------------------------------
 ! R1    R(1,2)                  1.4848                                         !
 ! R2    R(1,10)                 1.5418                                         !
 ! R3    R(1,16)                 1.0193                                         !
 ! R4    R(1,17)                 1.019                                          !
 ! R5    R(2,3)                  1.5471                                         !
 ! R6    R(2,5)                  1.5409                                         !
 ! R7    R(2,11)                 1.0928                                         !
 ! R8    R(3,4)                  1.2235                                         !
 ! R9    R(3,18)                 1.3722                                         !
 ! R10   R(5,6)                  1.5469                                         !
 ! R11   R(5,12)                 1.0976                                         !
 ! R12   R(5,13)                 1.0946                                         !
 ! R13   R(6,7)                  1.5207                                         !
 ! R14   R(6,14)                 1.0991                                         !
 ! R15   R(6,15)                 1.0921                                         !
 ! R16   R(7,8)                  1.2297                                         !
 ! R17   R(7,9)                  1.3214                                         !
 ! R18   R(18,19)                1.4493                                         !
 ! R19   R(18,32)                1.0164                                         !
 ! R20   R(19,20)                1.5417                                         !
 ! R21   R(19,22)                1.5627                                         !
 ! R22   R(19,33)                1.0922                                         !
 ! R23   R(20,21)                1.2206                                         !
 ! R24   R(20,42)                1.3712                                         !
 ! R25   R(22,23)                1.4945                                         !
 ! R26   R(22,34)                1.0949                                         !
 ! R27   R(22,35)                1.0957                                         !
 ! R28   R(23,24)                1.375                                          !
 ! R29   R(23,25)                1.4439                                         !
 ! R30   R(24,28)                1.3832                                         !
 ! R31   R(24,36)                1.0812                                         !
 ! R32   R(25,26)                1.423                                          !
 ! R33   R(25,27)                1.4073                                         !
 ! R34   R(26,28)                1.3837                                         !
 ! R35   R(26,29)                1.3989                                         !
 ! R36   R(27,30)                1.3897                                         !
 ! R37   R(27,38)                1.0868                                         !
 ! R38   R(28,37)                1.0098                                         !
 ! R39   R(29,31)                1.3905                                         !
 ! R40   R(29,39)                1.0863                                         !
 ! R41   R(30,31)                1.4113                                         !
 ! R42   R(30,40)                1.0863                                         !
 ! R43   R(31,41)                1.0858                                         !
 ! R44   R(42,43)                1.4498                                         !
 ! R45   R(42,50)                1.0159                                         !
 ! R46   R(43,44)                1.5407                                         !
 ! R47   R(43,46)                1.5561                                         !
 ! R48   R(43,51)                1.0865                                         !
 ! R49   R(44,45)                1.2253                                         !
 ! R50   R(44,56)                1.3741                                         !
 ! R51   R(46,47)                1.522                                          !
 ! R52   R(46,48)                1.4482                                         !
 ! R53   R(46,52)                1.0961                                         !
 ! R54   R(47,53)                1.0937                                         !
 ! R55   R(47,54)                1.0958                                         !
 ! R56   R(47,55)                1.0931                                         !
 ! R57   R(48,49)                0.9721                                         !
 ! R58   R(56,57)                1.4714                                         !
 ! R59   R(56,69)                1.0166                                         !
 ! R60   R(57,58)                1.5423                                         !
 ! R61   R(57,60)                1.5376                                         !
 ! R62   R(57,70)                1.0903                                         !
 ! R63   R(58,59)                1.2218                                         !
 ! R64   R(58,67)                1.3214                                         !
 ! R65   R(60,61)                1.5433                                         !
 ! R66   R(60,71)                1.0894                                         !
 ! R67   R(60,72)                1.0956                                         !
 ! R68   R(61,62)                1.5421                                         !
 ! R69   R(61,73)                1.093                                          !
 ! R70   R(61,74)                1.0966                                         !
 ! R71   R(62,63)                1.4635                                         !
 ! R72   R(62,75)                1.0956                                         !
 ! R73   R(62,76)                1.0874                                         !
 ! R74   R(63,64)                1.3333                                         !
 ! R75   R(63,77)                1.0234                                         !
 ! R76   R(64,65)                1.3426                                         !
 ! R77   R(64,66)                1.3499                                         !
 ! R78   R(65,78)                1.0095                                         !
 ! R79   R(65,79)                1.0257                                         !
 ! R80   R(66,80)                1.0167                                         !
 ! R81   R(66,81)                1.0102                                         !
 ! R82   R(67,68)                0.9919                                         !
 ! A1    A(2,1,10)             106.9313                                         !
 ! A2    A(2,1,16)             110.3534                                         !
 ! A3    A(2,1,17)             112.0965                                         !
 ! A4    A(10,1,16)            117.7004                                         !
 ! A5    A(10,1,17)            105.3797                                         !
 ! A6    A(16,1,17)            104.3552                                         !
 ! A7    A(1,2,3)              116.8568                                         !
 ! A8    A(1,2,5)              111.3128                                         !
 ! A9    A(1,2,11)             106.0864                                         !
 ! A10   A(3,2,5)              111.44                                           !
 ! A11   A(3,2,11)             102.5829                                         !
 ! A12   A(5,2,11)             107.6445                                         !
 ! A13   A(2,3,4)              118.6242                                         !
 ! A14   A(2,3,18)             119.9833                                         !
 ! A15   A(4,3,18)             120.9224                                         !
 ! A16   A(2,5,6)              114.4197                                         !
 ! A17   A(2,5,12)             110.8189                                         !
 ! A18   A(2,5,13)             107.3407                                         !
 ! A19   A(6,5,12)             110.2318                                         !
 ! A20   A(6,5,13)             107.7181                                         !
 ! A21   A(12,5,13)            105.8625                                         !
 ! A22   A(5,6,7)              116.1799                                         !
 ! A23   A(5,6,14)             109.7022                                         !
 ! A24   A(5,6,15)             110.227                                          !
 ! A25   A(7,6,14)             107.6832                                         !
 ! A26   A(7,6,15)             106.075                                          !
 ! A27   A(14,6,15)            106.4919                                         !
 ! A28   A(6,7,8)              121.4334                                         !
 ! A29   A(6,7,9)              118.902                                          !
 ! A30   A(8,7,9)              119.6627                                         !
 ! A31   A(3,18,19)            131.0861                                         !
 ! A32   A(3,18,32)            113.0394                                         !
 ! A33   A(19,18,32)           113.4997                                         !
 ! A34   A(18,19,20)           107.7253                                         !
 ! A35   A(18,19,22)           110.6789                                         !
 ! A36   A(18,19,33)           109.237                                          !
 ! A37   A(20,19,22)           109.5185                                         !
 ! A38   A(20,19,33)           110.1758                                         !
 ! A39   A(22,19,33)           109.4863                                         !
 ! A40   A(19,20,21)           120.0418                                         !
 ! A41   A(19,20,42)           118.4771                                         !
 ! A42   A(21,20,42)           121.4333                                         !
 ! A43   A(19,22,23)           112.4941                                         !
 ! A44   A(19,22,34)           109.3836                                         !
 ! A45   A(19,22,35)           106.9745                                         !
 ! A46   A(23,22,34)           109.6001                                         !
 ! A47   A(23,22,35)           111.7622                                         !
 ! A48   A(34,22,35)           106.4075                                         !
 ! A49   A(22,23,24)           127.6224                                         !
 ! A50   A(22,23,25)           125.452                                          !
 ! A51   A(24,23,25)           106.6221                                         !
 ! A52   A(23,24,28)           109.7274                                         !
 ! A53   A(23,24,36)           129.6267                                         !
 ! A54   A(28,24,36)           120.5885                                         !
 ! A55   A(23,25,26)           107.1935                                         !
 ! A56   A(23,25,27)           133.8062                                         !
 ! A57   A(26,25,27)           119.0002                                         !
 ! A58   A(25,26,28)           107.0216                                         !
 ! A59   A(25,26,29)           122.2682                                         !
 ! A60   A(28,26,29)           130.7005                                         !
 ! A61   A(25,27,30)           118.8493                                         !
 ! A62   A(25,27,38)           120.8989                                         !
 ! A63   A(30,27,38)           120.2273                                         !
 ! A64   A(24,28,26)           109.4082                                         !
 ! A65   A(24,28,37)           124.5185                                         !
 ! A66   A(26,28,37)           125.0369                                         !
 ! A67   A(26,29,31)           117.4355                                         !
 ! A68   A(26,29,39)           121.3705                                         !
 ! A69   A(31,29,39)           121.1927                                         !
 ! A70   A(27,30,31)           121.1723                                         !
 ! A71   A(27,30,40)           119.6369                                         !
 ! A72   A(31,30,40)           119.1836                                         !
 ! A73   A(29,31,30)           121.2734                                         !
 ! A74   A(29,31,41)           119.3095                                         !
 ! A75   A(30,31,41)           119.4125                                         !
 ! A76   A(20,42,43)           130.1933                                         !
 ! A77   A(20,42,50)           114.2942                                         !
 ! A78   A(43,42,50)           115.0011                                         !
 ! A79   A(42,43,44)           107.6364                                         !
 ! A80   A(42,43,46)           109.9978                                         !
 ! A81   A(42,43,51)           109.6046                                         !
 ! A82   A(44,43,46)           110.0522                                         !
 ! A83   A(44,43,51)           112.0916                                         !
 ! A84   A(46,43,51)           107.462                                          !
 ! A85   A(43,44,45)           117.7385                                         !
 ! A86   A(43,44,56)           123.1106                                         !
 ! A87   A(45,44,56)           118.9676                                         !
 ! A88   A(43,46,47)           115.2864                                         !
 ! A89   A(43,46,48)           106.163                                          !
 ! A90   A(43,46,52)           106.0648                                         !
 ! A91   A(47,46,48)           111.4782                                         !
 ! A92   A(47,46,52)           109.5025                                         !
 ! A93   A(48,46,52)           107.9737                                         !
 ! A94   A(46,47,53)           110.5978                                         !
 ! A95   A(46,47,54)           109.8662                                         !
 ! A96   A(46,47,55)           111.5583                                         !
 ! A97   A(53,47,54)           107.603                                          !
 ! A98   A(53,47,55)           108.3041                                         !
 ! A99   A(54,47,55)           108.803                                          !
 ! A100  A(46,48,49)           108.471                                          !
 ! A101  A(44,56,57)           139.5739                                         !
 ! A102  A(44,56,69)           107.8033                                         !
 ! A103  A(57,56,69)           112.2365                                         !
 ! A104  A(56,57,58)           110.0838                                         !
 ! A105  A(56,57,60)           117.2946                                         !
 ! A106  A(56,57,70)           105.021                                          !
 ! A107  A(58,57,60)           111.5152                                         !
 ! A108  A(58,57,70)           104.6743                                         !
 ! A109  A(60,57,70)           107.2296                                         !
 ! A110  A(57,58,59)           120.951                                          !
 ! A111  A(57,58,67)           117.6874                                         !
 ! A112  A(59,58,67)           121.3575                                         !
 ! A113  A(57,60,61)           116.0949                                         !
 ! A114  A(57,60,71)           110.0977                                         !
 ! A115  A(57,60,72)           107.5966                                         !
 ! A116  A(61,60,71)           105.4328                                         !
 ! A117  A(61,60,72)           109.4064                                         !
 ! A118  A(71,60,72)           107.9654                                         !
 ! A119  A(60,61,62)           119.19                                           !
 ! A120  A(60,61,73)           105.8783                                         !
 ! A121  A(60,61,74)           109.235                                          !
 ! A122  A(62,61,73)           109.4031                                         !
 ! A123  A(62,61,74)           106.4379                                         !
 ! A124  A(73,61,74)           106.0056                                         !
 ! A125  A(61,62,63)           114.4009                                         !
 ! A126  A(61,62,75)           108.5917                                         !
 ! A127  A(61,62,76)           110.1887                                         !
 ! A128  A(63,62,75)           107.879                                          !
 ! A129  A(63,62,76)           108.674                                          !
 ! A130  A(75,62,76)           106.8148                                         !
 ! A131  A(62,63,64)           126.5233                                         !
 ! A132  A(62,63,77)           118.1199                                         !
 ! A133  A(64,63,77)           114.9172                                         !
 ! A134  A(63,64,65)           121.9023                                         !
 ! A135  A(63,64,66)           118.4561                                         !
 ! A136  A(65,64,66)           119.6371                                         !
 ! A137  A(64,65,78)           119.8762                                         !
 ! A138  A(64,65,79)           121.669                                          !
 ! A139  A(78,65,79)           117.8287                                         !
 ! A140  A(64,66,80)           117.435                                          !
 ! A141  A(64,66,81)           119.1135                                         !
 ! A142  A(80,66,81)           116.3773                                         !
 ! A143  A(58,67,68)           111.6232                                         !
 ! D1    D(10,1,2,3)           157.4162                                         !
 ! D2    D(10,1,2,5)            27.8212                                         !
 ! D3    D(10,1,2,11)          -88.9949                                         !
 ! D4    D(16,1,2,3)           -73.4451                                         !
 ! D5    D(16,1,2,5)           156.9599                                         !
 ! D6    D(16,1,2,11)           40.1438                                         !
 ! D7    D(17,1,2,3)            42.4048                                         !
 ! D8    D(17,1,2,5)           -87.1902                                         !
 ! D9    D(17,1,2,11)          155.9937                                         !
 ! D10   D(1,2,3,4)            114.724                                          !
 ! D11   D(1,2,3,18)           -73.0685                                         !
 ! D12   D(5,2,3,4)           -115.7412                                         !
 ! D13   D(5,2,3,18)            56.4663                                         !
 ! D14   D(11,2,3,4)            -0.8237                                         !
 ! D15   D(11,2,3,18)          171.3838                                         !
 ! D16   D(1,2,5,6)            -68.0275                                         !
 ! D17   D(1,2,5,12)            57.3504                                         !
 ! D18   D(1,2,5,13)           172.5058                                         !
 ! D19   D(3,2,5,6)            159.5816                                         !
 ! D20   D(3,2,5,12)           -75.0406                                         !
 ! D21   D(3,2,5,13)            40.1148                                         !
 ! D22   D(11,2,5,6)            47.8345                                         !
 ! D23   D(11,2,5,12)          173.2123                                         !
 ! D24   D(11,2,5,13)          -71.6323                                         !
 ! D25   D(2,3,18,19)           32.5407                                         !
 ! D26   D(2,3,18,32)         -166.426                                          !
 ! D27   D(4,3,18,19)         -155.4338                                         !
 ! D28   D(4,3,18,32)            5.5995                                         !
 ! D29   D(2,5,6,7)             84.8483                                         !
 ! D30   D(2,5,6,14)           -37.5344                                         !
 ! D31   D(2,5,6,15)          -154.4896                                         !
 ! D32   D(12,5,6,7)           -40.8373                                         !
 ! D33   D(12,5,6,14)         -163.22                                           !
 ! D34   D(12,5,6,15)           79.8247                                         !
 ! D35   D(13,5,6,7)          -155.8968                                         !
 ! D36   D(13,5,6,14)           81.7204                                         !
 ! D37   D(13,5,6,15)          -35.2348                                         !
 ! D38   D(5,6,7,8)            135.9869                                         !
 ! D39   D(5,6,7,9)            -43.5255                                         !
 ! D40   D(14,6,7,8)          -100.5748                                         !
 ! D41   D(14,6,7,9)            79.9129                                         !
 ! D42   D(15,6,7,8)            13.1255                                         !
 ! D43   D(15,6,7,9)          -166.3868                                         !
 ! D44   D(3,18,19,20)        -148.776                                          !
 ! D45   D(3,18,19,22)          91.5173                                         !
 ! D46   D(3,18,19,33)         -29.1035                                         !
 ! D47   D(32,18,19,20)         50.2589                                         !
 ! D48   D(32,18,19,22)        -69.4478                                         !
 ! D49   D(32,18,19,33)        169.9314                                         !
 ! D50   D(18,19,20,21)        -25.0521                                         !
 ! D51   D(18,19,20,42)        157.4259                                         !
 ! D52   D(22,19,20,21)         95.3879                                         !
 ! D53   D(22,19,20,42)        -82.1341                                         !
 ! D54   D(33,19,20,21)       -144.1272                                         !
 ! D55   D(33,19,20,42)         38.3509                                         !
 ! D56   D(18,19,22,23)        -68.3715                                         !
 ! D57   D(18,19,22,34)        169.5834                                         !
 ! D58   D(18,19,22,35)         54.7189                                         !
 ! D59   D(20,19,22,23)        173.0046                                         !
 ! D60   D(20,19,22,34)         50.9595                                         !
 ! D61   D(20,19,22,35)        -63.905                                          !
 ! D62   D(33,19,22,23)         52.1007                                         !
 ! D63   D(33,19,22,34)        -69.9443                                         !
 ! D64   D(33,19,22,35)        175.1912                                         !
 ! D65   D(19,20,42,43)         -2.3788                                         !
 ! D66   D(19,20,42,50)       -173.6456                                         !
 ! D67   D(21,20,42,43)       -179.8647                                         !
 ! D68   D(21,20,42,50)          8.8685                                         !
 ! D69   D(19,22,23,24)         82.1963                                         !
 ! D70   D(19,22,23,25)        -90.6153                                         !
 ! D71   D(34,22,23,24)       -155.8814                                         !
 ! D72   D(34,22,23,25)         31.307                                          !
 ! D73   D(35,22,23,24)        -38.1711                                         !
 ! D74   D(35,22,23,25)        149.0173                                         !
 ! D75   D(22,23,24,28)       -172.6736                                         !
 ! D76   D(22,23,24,36)          4.5309                                         !
 ! D77   D(25,23,24,28)          1.2198                                         !
 ! D78   D(25,23,24,36)        178.4244                                         !
 ! D79   D(22,23,25,26)        173.783                                          !
 ! D80   D(22,23,25,27)         -6.0874                                         !
 ! D81   D(24,23,25,26)         -0.28                                           !
 ! D82   D(24,23,25,27)        179.8495                                         !
 ! D83   D(23,24,28,26)         -1.7419                                         !
 ! D84   D(23,24,28,37)       -170.5735                                         !
 ! D85   D(36,24,28,26)       -179.2409                                         !
 ! D86   D(36,24,28,37)         11.9274                                         !
 ! D87   D(23,25,26,28)         -0.7479                                         !
 ! D88   D(23,25,26,29)       -179.7282                                         !
 ! D89   D(27,25,26,28)        179.1452                                         !
 ! D90   D(27,25,26,29)          0.1649                                         !
 ! D91   D(23,25,27,30)        179.7172                                         !
 ! D92   D(23,25,27,38)         -2.0778                                         !
 ! D93   D(26,25,27,30)         -0.1412                                         !
 ! D94   D(26,25,27,38)        178.0637                                         !
 ! D95   D(25,26,28,24)          1.5125                                         !
 ! D96   D(25,26,28,37)        170.2728                                         !
 ! D97   D(29,26,28,24)       -179.6248                                         !
 ! D98   D(29,26,28,37)        -10.8645                                         !
 ! D99   D(25,26,29,31)          0.0694                                         !
 ! D100  D(25,26,29,39)       -179.5357                                         !
 ! D101  D(28,26,29,31)       -178.6445                                         !
 ! D102  D(28,26,29,39)          1.7505                                         !
 ! D103  D(25,27,30,31)         -0.1109                                         !
 ! D104  D(25,27,30,40)        178.9098                                         !
 ! D105  D(38,27,30,31)       -178.3283                                         !
 ! D106  D(38,27,30,40)          0.6925                                         !
 ! D107  D(26,29,31,30)         -0.3268                                         !
 ! D108  D(26,29,31,41)       -179.5445                                         !
 ! D109  D(39,29,31,30)        179.2789                                         !
 ! D110  D(39,29,31,41)          0.0613                                         !
 ! D111  D(27,30,31,29)          0.3574                                         !
 ! D112  D(27,30,31,41)        179.5742                                         !
 ! D113  D(40,30,31,29)       -178.6677                                         !
 ! D114  D(40,30,31,41)          0.5491                                         !
 ! D115  D(20,42,43,44)       -133.6659                                         !
 ! D116  D(20,42,43,46)        106.4286                                         !
 ! D117  D(20,42,43,51)        -11.5146                                         !
 ! D118  D(50,42,43,44)         37.5509                                         !
 ! D119  D(50,42,43,46)        -82.3545                                         !
 ! D120  D(50,42,43,51)        159.7022                                         !
 ! D121  D(42,43,44,45)        -30.833                                          !
 ! D122  D(42,43,44,56)        154.1443                                         !
 ! D123  D(46,43,44,45)         89.0379                                         !
 ! D124  D(46,43,44,56)        -85.9848                                         !
 ! D125  D(51,43,44,45)       -151.4309                                         !
 ! D126  D(51,43,44,56)         33.5464                                         !
 ! D127  D(42,43,46,47)         68.5527                                         !
 ! D128  D(42,43,46,48)       -167.4932                                         !
 ! D129  D(42,43,46,52)        -52.7976                                         !
 ! D130  D(44,43,46,47)        -49.8754                                         !
 ! D131  D(44,43,46,48)         74.0787                                         !
 ! D132  D(44,43,46,52)       -171.2257                                         !
 ! D133  D(51,43,46,47)       -172.1866                                         !
 ! D134  D(51,43,46,48)        -48.2326                                         !
 ! D135  D(51,43,46,52)         66.4631                                         !
 ! D136  D(43,44,56,57)        -13.5971                                         !
 ! D137  D(43,44,56,69)        174.5509                                         !
 ! D138  D(45,44,56,57)        171.4383                                         !
 ! D139  D(45,44,56,69)         -0.4137                                         !
 ! D140  D(43,46,47,53)        -58.1256                                         !
 ! D141  D(43,46,47,54)       -176.7663                                         !
 ! D142  D(43,46,47,55)         62.487                                          !
 ! D143  D(48,46,47,53)       -179.2383                                         !
 ! D144  D(48,46,47,54)         62.1211                                         !
 ! D145  D(48,46,47,55)        -58.6257                                         !
 ! D146  D(52,46,47,53)         61.3457                                         !
 ! D147  D(52,46,47,54)        -57.295                                          !
 ! D148  D(52,46,47,55)       -178.0418                                         !
 ! D149  D(43,46,48,49)        172.924                                          !
 ! D150  D(47,46,48,49)        -60.7807                                         !
 ! D151  D(52,46,48,49)         59.5384                                         !
 ! D152  D(44,56,57,58)        118.1305                                         !
 ! D153  D(44,56,57,60)        -10.7787                                         !
 ! D154  D(44,56,57,70)       -129.6979                                         !
 ! D155  D(69,56,57,58)        -70.2522                                         !
 ! D156  D(69,56,57,60)        160.8385                                         !
 ! D157  D(69,56,57,70)         41.9194                                         !
 ! D158  D(56,57,58,59)        127.3702                                         !
 ! D159  D(56,57,58,67)        -53.3551                                         !
 ! D160  D(60,57,58,59)       -100.6427                                         !
 ! D161  D(60,57,58,67)         78.6319                                         !
 ! D162  D(70,57,58,59)         14.9744                                         !
 ! D163  D(70,57,58,67)       -165.7509                                         !
 ! D164  D(56,57,60,61)        173.5314                                         !
 ! D165  D(56,57,60,71)         53.8788                                         !
 ! D166  D(56,57,60,72)        -63.5478                                         !
 ! D167  D(58,57,60,61)         45.304                                          !
 ! D168  D(58,57,60,71)        -74.3486                                         !
 ! D169  D(58,57,60,72)        168.2248                                         !
 ! D170  D(70,57,60,61)        -68.7342                                         !
 ! D171  D(70,57,60,71)        171.6132                                         !
 ! D172  D(70,57,60,72)         54.1866                                         !
 ! D173  D(57,58,67,68)         -2.2008                                         !
 ! D174  D(59,58,67,68)        177.0708                                         !
 ! D175  D(57,60,61,62)         45.7761                                         !
 ! D176  D(57,60,61,73)        169.4552                                         !
 ! D177  D(57,60,61,74)        -76.7872                                         !
 ! D178  D(71,60,61,62)        167.9268                                         !
 ! D179  D(71,60,61,73)        -68.3941                                         !
 ! D180  D(71,60,61,74)         45.3636                                         !
 ! D181  D(72,60,61,62)        -76.192                                          !
 ! D182  D(72,60,61,73)         47.487                                          !
 ! D183  D(72,60,61,74)        161.2447                                         !
 ! D184  D(60,61,62,63)         36.9462                                         !
 ! D185  D(60,61,62,75)        157.4952                                         !
 ! D186  D(60,61,62,76)        -85.8333                                         !
 ! D187  D(73,61,62,63)        -84.9938                                         !
 ! D188  D(73,61,62,75)         35.5552                                         !
 ! D189  D(73,61,62,76)        152.2267                                         !
 ! D190  D(74,61,62,63)        160.8825                                         !
 ! D191  D(74,61,62,75)        -78.5685                                         !
 ! D192  D(74,61,62,76)         38.1029                                         !
 ! D193  D(61,62,63,64)       -126.527                                          !
 ! D194  D(61,62,63,77)         61.5007                                         !
 ! D195  D(75,62,63,64)        112.5293                                         !
 ! D196  D(75,62,63,77)        -59.4431                                         !
 ! D197  D(76,62,63,64)         -2.9304                                         !
 ! D198  D(76,62,63,77)       -174.9028                                         !
 ! D199  D(62,63,64,65)         15.2589                                         !
 ! D200  D(62,63,64,66)       -163.962                                          !
 ! D201  D(77,63,64,65)       -172.5465                                         !
 ! D202  D(77,63,64,66)          8.2326                                         !
 ! D203  D(63,64,65,78)       -170.8823                                         !
 ! D204  D(63,64,65,79)         18.3873                                         !
 ! D205  D(66,64,65,78)          8.3296                                         !
 ! D206  D(66,64,65,79)       -162.4008                                         !
 ! D207  D(63,64,66,80)         -8.2434                                         !
 ! D208  D(63,64,66,81)       -157.7932                                         !
 ! D209  D(65,64,66,80)        172.5176                                         !
 ! D210  D(65,64,66,81)         22.9678                                         !
 --------------------------------------------------------------------------------
 Symmetry turned off by external request.
 Stoichiometry    C26H39N8O8(1+)
 Framework group  C1[X(C26H39N8O8)]
 Deg. of freedom   237
 Full point group                 C1      NOp   1
                          Input orientation:                          
 ---------------------------------------------------------------------
 Center     Atomic      Atomic             Coordinates (Angstroms)
 Number     Number       Type             X           Y           Z
 ---------------------------------------------------------------------
      1          7           0        9.698337   28.996795   13.455540
      2          6           0       10.063879   27.918345   12.502639
      3          6           0       11.573213   27.641601   12.305794
      4          8           0       12.022621   26.561360   12.663712
      5          6           0        9.343024   28.095992   11.152369
      6          6           0        7.812298   27.880892   11.211458
      7          6           0        6.981004   29.085355   11.624521
      8          8           0        5.945887   29.383948   11.031580
      9          8           0        7.391736   29.827725   12.637619
     10          1           0        8.282460   29.472759   13.073398
     11          1           0        9.707148   26.986547   12.948514
     12          1           0        9.571990   29.075775   10.713862
     13          1           0        9.757148   27.354834   10.461461
     14          1           0        7.579858   27.060961   11.905482
     15          1           0        7.435940   27.574919   10.232948
     16          1           0        9.851910   28.689108   14.415119
     17          1           0       10.295453   29.816348   13.354376
     18          7           0       12.346263   28.527445   11.598241
     19          6           0       12.263233   29.968128   11.464042
     20          6           0       12.780390   30.339324   10.059895
     21          8           0       13.560376   29.600250    9.480843
     22          6           0       13.140483   30.674728   12.547210
     23          6           0       12.597709   30.496197   13.928205
     24          6           0       12.765414   29.416489   14.762929
     25          6           0       11.665868   31.383712   14.583036
     26          6           0       11.300481   30.774637   15.816050
     27          6           0       11.105584   32.629706   14.245083
     28          7           0       11.971959   29.566807   15.885849
     29          6           0       10.399357   31.370078   16.705030
     30          6           0       10.210367   33.223635   15.126626
     31          6           0        9.858354   32.598464   16.341990
     32          1           0       13.254743   28.148484   11.344891
     33          1           0       11.222833   30.280707   11.577098
     34          1           0       13.212922   31.742582   12.316227
     35          1           0       14.153659   30.268330   12.453258
     36          1           0       13.362461   28.525449   14.626367
     37          1           0       12.020727   28.977081   16.704069
     38          1           0       11.386650   33.137209   13.326045
     39          1           0       10.136360   30.895545   17.646104
     40          1           0        9.783857   34.193554   14.886889
     41          1           0        9.161310   33.091413   17.012879
     42          7           0       12.384503   31.532101    9.511572
     43          6           0       11.482429   32.544273   10.024971
     44          6           0       10.525212   32.938537    8.883926
     45          8           0       10.949387   32.875139    7.736145
     46          6           0       12.290690   33.787480   10.496926
     47          6           0       12.959668   34.587259    9.388127
     48          8           0       11.367021   34.604213   11.256652
     49          1           0       11.863875   35.334338   11.662924
     50          1           0       12.677978   31.667215    8.548461
     51          1           0       10.950364   32.154333   10.888326
     52          1           0       13.053828   33.409118   11.186741
     53          1           0       13.643336   33.953964    8.815633
     54          1           0       13.548417   35.403737    9.821111
     55          1           0       12.224647   35.010200    8.698372
     56          7           0        9.267082   33.446560    9.101370
     57          6           0        8.291558   33.593003   10.193058
     58          6           0        8.017042   35.086761   10.461158
     59          8           0        6.875762   35.522654   10.478735
     60          6           0        8.572651   32.828391   11.497111
     61          6           0        7.619044   33.121077   12.674667
     62          6           0        6.098578   33.158033   12.419857
     63          7           0        5.624158   32.171373   11.448678
     64          6           0        4.890581   32.416191   10.362516
     65          7           0        4.746242   33.656210    9.868509
     66          7           0        4.267531   31.381040    9.760398
     67          8           0        9.056338   35.871526   10.684760
     68          1           0        9.906876   35.361263   10.682232
     69          1           0        8.877614   33.708733    8.199667
     70          1           0        7.354945   33.208294    9.788578
     71          1           0        9.569584   33.068998   11.864696
     72          1           0        8.547148   31.757898   11.265461
     73          1           0        7.841710   32.367329   13.434248
     74          1           0        7.882418   34.087372   13.121239
     75          1           0        5.580974   32.972964   13.367590
     76          1           0        5.798066   34.148141   12.085427
     77          1           0        5.759849   31.179908   11.662833
     78          1           0        4.078039   33.829428    9.131947
     79          1           0        5.391910   34.413455   10.117097
     80          1           0        4.490768   30.444946   10.088476
     81          1           0        4.001804   31.464831    8.789333
 ---------------------------------------------------------------------
 Rotational constants (GHZ):           0.0978469           0.0703837           0.0628283
 Standard basis: 6-31G(d) (6D, 7F)
   708 basis functions,  1332 primitive gaussians,   708 cartesian basis functions
   157 alpha electrons      157 beta electrons
       nuclear repulsion energy      5731.4410567229 Hartrees.
 NAtoms=   81 NActive=   81 NUniq=   81 SFac= 1.00D+00 NAtFMM=   60 NAOKFM=T Big=T
 Integral buffers will be    131072 words long.
 Raffenetti 2 integral format.
 Two-electron integral symmetry is turned off.
 Nuclear repulsion after empirical dispersion term =     5731.3109296481 Hartrees.
 One-electron integrals computed using PRISM.
 NBasis=   708 RedAO= T EigKep=  3.52D-04  NBF=   708
 NBsUse=   708 1.00D-06 EigRej= -1.00D+00 NBFU=   708
 Initial guess from the checkpoint file:  "conf-727.chk"
 B after Tr=     0.000000    0.000000    0.000000
         Rot=    1.000000    0.000000    0.000000    0.000000 Ang=   0.00 deg.
 Requested convergence on RMS density matrix=1.00D-08 within 128 cycles.
 Requested convergence on MAX density matrix=1.00D-06.
 Requested convergence on             energy=1.00D-06.
 No special actions if energy rises.
 SCF Done:  E(RB3LYP) =  -2054.07156253     A.U. after    1 cycles
            NFock=  1  Conv=0.68D-08     -V/T= 2.0093

 **********************************************************************

            Population analysis using the SCF Density.

 **********************************************************************

 Alpha  occ. eigenvalues --  -19.30146 -19.29632 -19.27842 -19.25358 -19.24539
 Alpha  occ. eigenvalues --  -19.23018 -19.21236 -19.20405 -14.49096 -14.49084
 Alpha  occ. eigenvalues --  -14.49059 -14.48404 -14.48172 -14.46371 -14.46247
 Alpha  occ. eigenvalues --  -14.44979 -10.45878 -10.43451 -10.42790 -10.41006
 Alpha  occ. eigenvalues --  -10.39017 -10.38177 -10.37108 -10.36627 -10.35987
 Alpha  occ. eigenvalues --  -10.34770 -10.34097 -10.33796 -10.32033 -10.31894
 Alpha  occ. eigenvalues --  -10.31534 -10.30766 -10.30721 -10.30405 -10.30157
 Alpha  occ. eigenvalues --  -10.28765 -10.28728 -10.28647 -10.28528 -10.28459
 Alpha  occ. eigenvalues --  -10.28209 -10.28115  -1.21318  -1.19833  -1.16712
 Alpha  occ. eigenvalues --   -1.15481  -1.14331  -1.13617  -1.12877  -1.12440
 Alpha  occ. eigenvalues --   -1.11168  -1.07993  -1.04173  -1.03579  -1.03034
 Alpha  occ. eigenvalues --   -1.02638  -1.02282  -1.01470  -0.93879  -0.92041
 Alpha  occ. eigenvalues --   -0.90830  -0.90156  -0.89480  -0.86479  -0.85904
 Alpha  occ. eigenvalues --   -0.83501  -0.83055  -0.82265  -0.81694  -0.80445
 Alpha  occ. eigenvalues --   -0.77212  -0.76598  -0.74508  -0.74061  -0.73107
 Alpha  occ. eigenvalues --   -0.72606  -0.72057  -0.71268  -0.70266  -0.69990
 Alpha  occ. eigenvalues --   -0.69583  -0.69026  -0.68284  -0.67782  -0.66225
 Alpha  occ. eigenvalues --   -0.65818  -0.64655  -0.64004  -0.63813  -0.63095
 Alpha  occ. eigenvalues --   -0.62766  -0.62400  -0.61534  -0.60654  -0.60233
 Alpha  occ. eigenvalues --   -0.59769  -0.59206  -0.58562  -0.58192  -0.58014
 Alpha  occ. eigenvalues --   -0.57692  -0.57309  -0.56949  -0.56701  -0.56506
 Alpha  occ. eigenvalues --   -0.55929  -0.55697  -0.55259  -0.54846  -0.54447
 Alpha  occ. eigenvalues --   -0.54091  -0.53428  -0.53342  -0.52976  -0.52316
 Alpha  occ. eigenvalues --   -0.52025  -0.51747  -0.51471  -0.51108  -0.50959
 Alpha  occ. eigenvalues --   -0.50590  -0.50024  -0.49667  -0.49298  -0.48722
 Alpha  occ. eigenvalues --   -0.48471  -0.48099  -0.47990  -0.47867  -0.47411
 Alpha  occ. eigenvalues --   -0.47166  -0.47104  -0.46226  -0.45863  -0.45544
 Alpha  occ. eigenvalues --   -0.45432  -0.45161  -0.44912  -0.43352  -0.43245
 Alpha  occ. eigenvalues --   -0.42387  -0.41781  -0.41663  -0.40658  -0.40376
 Alpha  occ. eigenvalues --   -0.40156  -0.38415  -0.38266  -0.37781  -0.37271
 Alpha  occ. eigenvalues --   -0.36552  -0.35622  -0.35278  -0.34164  -0.33276
 Alpha  occ. eigenvalues --   -0.32421  -0.30371
 Alpha virt. eigenvalues --   -0.11605  -0.11265  -0.10336  -0.09855  -0.09652
 Alpha virt. eigenvalues --   -0.08270  -0.07907  -0.07599  -0.06401  -0.05583
 Alpha virt. eigenvalues --   -0.05133  -0.03882  -0.02555  -0.02261  -0.01403
 Alpha virt. eigenvalues --   -0.00997  -0.00660  -0.00537   0.00486   0.00940
 Alpha virt. eigenvalues --    0.01094   0.01773   0.02017   0.02380   0.02714
 Alpha virt. eigenvalues --    0.02746   0.03174   0.03515   0.03922   0.04477
 Alpha virt. eigenvalues --    0.04693   0.05149   0.05287   0.05892   0.06136
 Alpha virt. eigenvalues --    0.06531   0.07009   0.07326   0.07514   0.07986
 Alpha virt. eigenvalues --    0.08106   0.08267   0.08513   0.08527   0.09028
 Alpha virt. eigenvalues --    0.09101   0.09683   0.09876   0.10102   0.10433
 Alpha virt. eigenvalues --    0.11013   0.11575   0.11923   0.12078   0.12542
 Alpha virt. eigenvalues --    0.12641   0.13224   0.13486   0.13900   0.14231
 Alpha virt. eigenvalues --    0.14504   0.15216   0.15508   0.15651   0.15751
 Alpha virt. eigenvalues --    0.16322   0.17135   0.17429   0.17994   0.18478
 Alpha virt. eigenvalues --    0.19082   0.20448   0.21038   0.22712   0.23944
 Alpha virt. eigenvalues --    0.24233   0.24567   0.24839   0.25895   0.26694
 Alpha virt. eigenvalues --    0.27387   0.28150   0.28923   0.29129   0.29543
 Alpha virt. eigenvalues --    0.30675   0.31054   0.31994   0.32722   0.34204
 Alpha virt. eigenvalues --    0.35919   0.37530   0.38045   0.38719   0.39078
 Alpha virt. eigenvalues --    0.39714   0.39931   0.41015   0.41347   0.41595
 Alpha virt. eigenvalues --    0.42596   0.42694   0.43261   0.43516   0.43826
 Alpha virt. eigenvalues --    0.44340   0.44439   0.44941   0.45263   0.45854
 Alpha virt. eigenvalues --    0.46319   0.46579   0.47127   0.47311   0.47661
 Alpha virt. eigenvalues --    0.48128   0.48613   0.48820   0.49102   0.49177
 Alpha virt. eigenvalues --    0.49451   0.49956   0.50291   0.50623   0.51062
 Alpha virt. eigenvalues --    0.51628   0.51963   0.52718   0.52891   0.53236
 Alpha virt. eigenvalues --    0.53458   0.53668   0.54035   0.54514   0.54907
 Alpha virt. eigenvalues --    0.55203   0.55587   0.56447   0.56622   0.56908
 Alpha virt. eigenvalues --    0.57196   0.57782   0.58146   0.58224   0.58910
 Alpha virt. eigenvalues --    0.59243   0.59614   0.60432   0.60967   0.61615
 Alpha virt. eigenvalues --    0.62060   0.62212   0.63541   0.64015   0.64443
 Alpha virt. eigenvalues --    0.64724   0.65427   0.66043   0.66745   0.67043
 Alpha virt. eigenvalues --    0.67661   0.67830   0.68889   0.69700   0.70996
 Alpha virt. eigenvalues --    0.71198   0.71459   0.71917   0.72168   0.72262
 Alpha virt. eigenvalues --    0.73089   0.73222   0.73587   0.73963   0.74229
 Alpha virt. eigenvalues --    0.74829   0.74898   0.75307   0.75483   0.75914
 Alpha virt. eigenvalues --    0.76106   0.76295   0.76568   0.77134   0.77218
 Alpha virt. eigenvalues --    0.77412   0.77909   0.78242   0.78416   0.78591
 Alpha virt. eigenvalues --    0.79101   0.79256   0.80425   0.80792   0.81069
 Alpha virt. eigenvalues --    0.81473   0.81725   0.82516   0.82996   0.83383
 Alpha virt. eigenvalues --    0.83902   0.84071   0.84390   0.84885   0.85480
 Alpha virt. eigenvalues --    0.85634   0.86077   0.86852   0.87055   0.87389
 Alpha virt. eigenvalues --    0.87589   0.88561   0.89108   0.89252   0.89795
 Alpha virt. eigenvalues --    0.90232   0.90828   0.91909   0.92129   0.92186
 Alpha virt. eigenvalues --    0.92830   0.94306   0.94773   0.95328   0.95837
 Alpha virt. eigenvalues --    0.96589   0.97630   0.98008   0.98289   0.98836
 Alpha virt. eigenvalues --    0.99312   1.00223   1.00617   1.00684   1.01637
 Alpha virt. eigenvalues --    1.02006   1.02676   1.02928   1.03524   1.03684
 Alpha virt. eigenvalues --    1.04308   1.05768   1.05989   1.06098   1.06926
 Alpha virt. eigenvalues --    1.07122   1.07838   1.08589   1.09110   1.09726
 Alpha virt. eigenvalues --    1.10493   1.10971   1.12318   1.13024   1.13410
 Alpha virt. eigenvalues --    1.14387   1.14509   1.15166   1.15439   1.16466
 Alpha virt. eigenvalues --    1.18287   1.18802   1.19708   1.20558   1.21339
 Alpha virt. eigenvalues --    1.22234   1.23047   1.23469   1.24133   1.24910
 Alpha virt. eigenvalues --    1.25494   1.25554   1.26978   1.27600   1.28135
 Alpha virt. eigenvalues --    1.29079   1.29401   1.29962   1.30438   1.31419
 Alpha virt. eigenvalues --    1.32107   1.32382   1.33479   1.33958   1.34298
 Alpha virt. eigenvalues --    1.34803   1.35525   1.36437   1.37114   1.37523
 Alpha virt. eigenvalues --    1.38696   1.39752   1.40128   1.41131   1.41216
 Alpha virt. eigenvalues --    1.42793   1.43101   1.43702   1.44496   1.44884
 Alpha virt. eigenvalues --    1.46360   1.47128   1.47755   1.48180   1.48981
 Alpha virt. eigenvalues --    1.49705   1.50902   1.51080   1.51532   1.51919
 Alpha virt. eigenvalues --    1.52145   1.53930   1.54166   1.54271   1.56217
 Alpha virt. eigenvalues --    1.57097   1.58499   1.59416   1.59649   1.59855
 Alpha virt. eigenvalues --    1.60806   1.61107   1.62569   1.63087   1.63632
 Alpha virt. eigenvalues --    1.64551   1.65403   1.65939   1.66436   1.66899
 Alpha virt. eigenvalues --    1.67325   1.67814   1.68264   1.68762   1.69197
 Alpha virt. eigenvalues --    1.69561   1.70465   1.70672   1.70717   1.71016
 Alpha virt. eigenvalues --    1.71575   1.72149   1.72372   1.72882   1.73200
 Alpha virt. eigenvalues --    1.73945   1.74472   1.74782   1.75500   1.76691
 Alpha virt. eigenvalues --    1.77405   1.77753   1.77806   1.78530   1.78814
 Alpha virt. eigenvalues --    1.79507   1.80699   1.81065   1.81444   1.81813
 Alpha virt. eigenvalues --    1.82792   1.82996   1.83836   1.84150   1.84464
 Alpha virt. eigenvalues --    1.85020   1.85547   1.85819   1.86027   1.86869
 Alpha virt. eigenvalues --    1.87913   1.88126   1.88544   1.89007   1.90028
 Alpha virt. eigenvalues --    1.90426   1.91376   1.91925   1.92391   1.92697
 Alpha virt. eigenvalues --    1.93049   1.93587   1.94350   1.94459   1.95345
 Alpha virt. eigenvalues --    1.96199   1.96864   1.97076   1.97599   1.98454
 Alpha virt. eigenvalues --    1.98861   1.99291   2.00035   2.00986   2.01784
 Alpha virt. eigenvalues --    2.02308   2.03987   2.04344   2.04469   2.05253
 Alpha virt. eigenvalues --    2.06351   2.06733   2.07715   2.08349   2.09337
 Alpha virt. eigenvalues --    2.09708   2.10440   2.12692   2.13705   2.14907
 Alpha virt. eigenvalues --    2.15164   2.15644   2.16445   2.16715   2.17004
 Alpha virt. eigenvalues --    2.17424   2.17837   2.18594   2.19449   2.21314
 Alpha virt. eigenvalues --    2.21398   2.22524   2.23867   2.24184   2.24944
 Alpha virt. eigenvalues --    2.26979   2.27544   2.27853   2.28390   2.28816
 Alpha virt. eigenvalues --    2.29596   2.30479   2.31016   2.31526   2.31814
 Alpha virt. eigenvalues --    2.33505   2.33823   2.34239   2.35824   2.36375
 Alpha virt. eigenvalues --    2.37519   2.38062   2.38493   2.39407   2.39683
 Alpha virt. eigenvalues --    2.41855   2.42792   2.43593   2.43901   2.44624
 Alpha virt. eigenvalues --    2.45459   2.46735   2.47101   2.48080   2.48511
 Alpha virt. eigenvalues --    2.49277   2.49948   2.50945   2.51412   2.52260
 Alpha virt. eigenvalues --    2.52677   2.53048   2.54273   2.54909   2.55089
 Alpha virt. eigenvalues --    2.55351   2.56823   2.57838   2.58140   2.59011
 Alpha virt. eigenvalues --    2.60471   2.60565   2.61326   2.62984   2.63411
 Alpha virt. eigenvalues --    2.64241   2.65326   2.66298   2.66812   2.67127
 Alpha virt. eigenvalues --    2.67924   2.69597   2.70994   2.72197   2.74124
 Alpha virt. eigenvalues --    2.77077   2.77378   2.78040   2.80145   2.84162
 Alpha virt. eigenvalues --    2.86564   2.88282   2.88670   2.89406   2.91524
 Alpha virt. eigenvalues --    2.91825   2.92800   2.92992   2.95096   2.96945
 Alpha virt. eigenvalues --    2.98594   2.98947   2.99950   3.01910   3.03544
 Alpha virt. eigenvalues --    3.05994   3.12059   3.15408   3.34303   3.70611
 Alpha virt. eigenvalues --    3.77424   3.79126   3.83360   3.85433   3.88378
 Alpha virt. eigenvalues --    3.91437   3.93629   3.95753   3.96874   3.99636
 Alpha virt. eigenvalues --    4.00321   4.01527   4.01935   4.03198   4.05345
 Alpha virt. eigenvalues --    4.06296   4.07636   4.12393   4.15239   4.15885
 Alpha virt. eigenvalues --    4.16768   4.19633   4.21452   4.24154   4.24646
 Alpha virt. eigenvalues --    4.27134   4.29220   4.31497   4.32463   4.34427
 Alpha virt. eigenvalues --    4.39111   4.40828   4.45583   4.47063   4.48295
 Alpha virt. eigenvalues --    4.49143   4.57488   4.59473   4.61806   4.65914
 Alpha virt. eigenvalues --    4.71613
          Condensed to atoms (all electrons):
 Mulliken charges:
               1
     1  N   -0.838162
     2  C   -0.057889
     3  C    0.578741
     4  O   -0.488408
     5  C   -0.308413
     6  C   -0.376122
     7  C    0.621526
     8  O   -0.533473
     9  O   -0.616067
    10  H    0.479967
    11  H    0.192642
    12  H    0.150701
    13  H    0.200340
    14  H    0.195760
    15  H    0.196199
    16  H    0.359283
    17  H    0.372039
    18  N   -0.575173
    19  C   -0.087596
    20  C    0.623719
    21  O   -0.484711
    22  C   -0.364934
    23  C    0.046642
    24  C    0.000932
    25  C    0.042357
    26  C    0.301891
    27  C   -0.230400
    28  N   -0.686108
    29  C   -0.161922
    30  C   -0.150103
    31  C   -0.152380
    32  H    0.358040
    33  H    0.134591
    34  H    0.157645
    35  H    0.185013
    36  H    0.195369
    37  H    0.349697
    38  H    0.135416
    39  H    0.150499
    40  H    0.133704
    41  H    0.149390
    42  N   -0.613075
    43  C   -0.076983
    44  C    0.619477
    45  O   -0.494187
    46  C    0.115229
    47  C   -0.476992
    48  O   -0.653521
    49  H    0.431923
    50  H    0.369057
    51  H    0.162136
    52  H    0.170164
    53  H    0.187833
    54  H    0.164394
    55  H    0.187479
    56  N   -0.639958
    57  C   -0.063714
    58  C    0.628281
    59  O   -0.483112
    60  C   -0.326752
    61  C   -0.292932
    62  C   -0.170594
    63  N   -0.616119
    64  C    0.760780
    65  N   -0.790794
    66  N   -0.768838
    67  O   -0.572317
    68  H    0.460040
    69  H    0.352507
    70  H    0.168342
    71  H    0.190631
    72  H    0.160103
    73  H    0.185321
    74  H    0.169465
    75  H    0.191338
    76  H    0.196622
    77  H    0.404697
    78  H    0.367144
    79  H    0.424238
    80  H    0.411814
    81  H    0.360634
 Sum of Mulliken charges =   1.00000
 Mulliken charges with hydrogens summed into heavy atoms:
               1
     1  N   -0.106840
     2  C    0.134753
     3  C    0.578741
     4  O   -0.488408
     5  C    0.042628
     6  C    0.015838
     7  C    0.621526
     8  O   -0.533473
     9  O   -0.136100
    18  N   -0.217133
    19  C    0.046995
    20  C    0.623719
    21  O   -0.484711
    22  C   -0.022275
    23  C    0.046642
    24  C    0.196301
    25  C    0.042357
    26  C    0.301891
    27  C   -0.094984
    28  N   -0.336411
    29  C   -0.011423
    30  C   -0.016399
    31  C   -0.002990
    42  N   -0.244017
    43  C    0.085153
    44  C    0.619477
    45  O   -0.494187
    46  C    0.285394
    47  C    0.062714
    48  O   -0.221599
    56  N   -0.287451
    57  C    0.104627
    58  C    0.628281
    59  O   -0.483112
    60  C    0.023982
    61  C    0.061853
    62  C    0.217366
    63  N   -0.211422
    64  C    0.760780
    65  N    0.000587
    66  N    0.003610
    67  O   -0.112278
 Electronic spatial extent (au):  <R**2>=        1393700.3360
 Charge=              1.0000 electrons
 Dipole moment (field-independent basis, Debye):
    X=             39.3744    Y=            154.1094    Z=             58.0447  Tot=            169.3199
 Quadrupole moment (field-independent basis, Debye-Ang):
   XX=            129.8154   YY=           4711.2419   ZZ=            495.3381
   XY=           1279.1125   XZ=            515.3081   YZ=           1840.6516
 Traceless Quadrupole moment (field-independent basis, Debye-Ang):
   XX=          -1648.9831   YY=           2932.4435   ZZ=          -1283.4604
   XY=           1279.1125   XZ=            515.3081   YZ=           1840.6516
 Octapole moment (field-independent basis, Debye-Ang**2):
  XXX=          -3264.5705  YYY=         136644.8288  ZZZ=           1309.3082  XYY=          39235.7352
  XXY=           4697.2987  XXZ=           2250.7823  XZZ=           4559.6500  YZZ=          15466.8043
  YYZ=          55645.7257  XYZ=          16454.5151
 Hexadecapole moment (field-independent basis, Debye-Ang**3):
 XXXX=        -107291.6606 YYYY=        3698294.8553 ZZZZ=         -69993.1388 XXXY=         -92814.5774
 XXXZ=         -30407.1975 YYYX=        1132973.3114 YYYZ=        1595248.4699 ZZZX=          11934.2126
 ZZZY=          36488.3397 XXYY=         141774.2505 XXZZ=          10965.8874 YYZZ=         448667.9867
 XXYZ=          75454.3678 YYXZ=         498375.7957 ZZXY=         143201.0427
 N-N= 5.731310929648D+03 E-N=-1.621689843769D+04  KE= 2.035178239177D+03
 Unable to Open any file for archive entry.
 1\1\GINC-VIM-002\SP\RB3LYP\6-31G(d)\C26H39N8O8(1+)\KENGMITH\27-May-202
 2\0\\# B3LYP/6-31G* empiricaldispersion=gd3 guess=read geom=check nosy
 mm integral(ultrafinegrid)\\Candidate Structure: Conf:727 Charge calc 
 in gas phase\\1,1\N,0,9.6983374993,28.9967950429,13.455540216\C,0,10.0
 638789825,27.9183453016,12.5026390939\C,0,11.5732133634,27.6416007885,
 12.3057935673\O,0,12.0226207038,26.5613597412,12.6637124633\C,0,9.3430
 242095,28.0959916992,11.1523690284\C,0,7.8122983273,27.8808919618,11.2
 114575717\C,0,6.9810039646,29.0853548228,11.6245212081\O,0,5.945886532
 1,29.3839481698,11.0315800934\O,0,7.3917359657,29.8277254283,12.637618
 685\H,0,8.2824595025,29.4727587725,13.0733982035\H,0,9.7071481813,26.9
 865470264,12.9485136593\H,0,9.5719901867,29.0757753754,10.7138621656\H
 ,0,9.7571479743,27.3548340776,10.4614606251\H,0,7.5798577427,27.060961
 4794,11.9054819487\H,0,7.4359399781,27.5749188276,10.2329484895\H,0,9.
 8519104683,28.689108178,14.415119433\H,0,10.2954531064,29.816348193,13
 .3543764899\N,0,12.3462628975,28.5274451439,11.5982406588\C,0,12.26323
 27229,29.9681281843,11.4640420707\C,0,12.7803903593,30.3393238691,10.0
 598950851\O,0,13.5603757811,29.6002501547,9.4808430875\C,0,13.14048320
 36,30.674727715,12.5472104089\C,0,12.5977085339,30.4961973001,13.92820
 48849\C,0,12.7654139314,29.4164885655,14.7629292876\C,0,11.6658683017,
 31.3837120409,14.5830355581\C,0,11.3004811404,30.7746374222,15.8160500
 847\C,0,11.1055835124,32.6297060759,14.2450832226\N,0,11.9719587559,29
 .5668070124,15.8858485639\C,0,10.399357284,31.3700778676,16.7050299907
 \C,0,10.210367167,33.2236354104,15.1266263366\C,0,9.8583542564,32.5984
 640455,16.3419900665\H,0,13.2547433928,28.148483854,11.3448911644\H,0,
 11.2228330613,30.2807071337,11.5770978154\H,0,13.2129220157,31.7425822
 089,12.3162274035\H,0,14.1536585687,30.2683301037,12.4532575188\H,0,13
 .3624610593,28.5254491639,14.6263666513\H,0,12.0207265679,28.977080670
 9,16.7040694609\H,0,11.3866501289,33.1372086833,13.3260451817\H,0,10.1
 363596727,30.8955445193,17.6461043742\H,0,9.7838565665,34.193553764,14
 .8868890496\H,0,9.1613102125,33.0914133822,17.0128793067\N,0,12.384503
 3718,31.5321005669,9.511571719\C,0,11.4824289436,32.5442732904,10.0249
 706696\C,0,10.5252115151,32.9385371213,8.8839256282\O,0,10.9493871781,
 32.8751394923,7.7361448102\C,0,12.2906904315,33.7874797104,10.49692559
 8\C,0,12.9596676988,34.5872586688,9.388126724\O,0,11.3670206772,34.604
 213249,11.256651899\H,0,11.8638752352,35.3343381261,11.6629241265\H,0,
 12.6779780473,31.6672152241,8.5484611741\H,0,10.9503641696,32.15433286
 84,10.8883262088\H,0,13.0538277596,33.4091184478,11.1867410851\H,0,13.
 6433355461,33.9539644569,8.8156326622\H,0,13.5484173937,35.4037365227,
 9.8211114963\H,0,12.2246471531,35.0101997253,8.6983722973\N,0,9.267082
 1654,33.4465602535,9.1013696622\C,0,8.2915577046,33.5930030415,10.1930
 576242\C,0,8.0170415937,35.0867612903,10.4611584751\O,0,6.8757619567,3
 5.5226542593,10.4787351511\C,0,8.5726506898,32.8283905363,11.497111140
 9\C,0,7.6190442628,33.1210770292,12.6746667762\C,0,6.0985780671,33.158
 0328594,12.4198565798\N,0,5.6241576073,32.1713733256,11.4486776333\C,0
 ,4.8905808573,32.4161909362,10.3625157865\N,0,4.7462420599,33.65621023
 84,9.8685094126\N,0,4.2675309529,31.3810396355,9.7603977298\O,0,9.0563
 383254,35.871526361,10.684759791\H,0,9.9068762071,35.361262677,10.6822
 318545\H,0,8.8776144088,33.7087326718,8.1996669224\H,0,7.3549446464,33
 .2082943747,9.7885781276\H,0,9.5695843526,33.0689976701,11.8646958433\
 H,0,8.5471484408,31.7578981857,11.2654612448\H,0,7.8417097204,32.36732
 91667,13.4342481743\H,0,7.8824184981,34.0873722461,13.1212393871\H,0,5
 .580974056,32.9729636764,13.3675899561\H,0,5.7980655246,34.1481411161,
 12.0854268457\H,0,5.75984884,31.1799076548,11.6628332538\H,0,4.0780387
 794,33.8294281704,9.1319474209\H,0,5.3919102796,34.4134546778,10.11709
 65208\H,0,4.4907678552,30.4449461627,10.088475947\H,0,4.0018043752,31.
 464831216,8.7893328164\\Version=ES64L-G16RevC.01\HF=-2054.0715625\RMSD
 =6.815e-09\Dipole=-2.9284619,1.1288605,0.5853646\Quadrupole=-1225.9784
 997,2180.1998406,-954.2213409,950.9887773,383.1189573,1368.4793555\PG=
 C01 [X(C26H39N8O8)]\\@
 The archive entry for this job was punched.


 FOR THE NATURE OF THE CHEMICAL BOND
 IS THE PROBLEM AT THE HEART OF ALL CHEMISTRY.

                     -- BRYCE CRAWFORD, JR., 1953
 Job cpu time:       0 days  0 hours  3 minutes 23.0 seconds.
 Elapsed time:       0 days  0 hours  0 minutes 51.9 seconds.
 File lengths (MBytes):  RWF=    376 Int=      0 D2E=      0 Chk=     56 Scr=     16
 Normal termination of Gaussian 16 at Fri May 27 05:09:58 2022.
