 Entering Gaussian System, Link 0=/opt/software/Gaussian/g16-AVX2-C.01/g16/g16
 Input=charge-conf-883.com
 Output=charge-conf-883.log
 Initial command:
 /opt/software/Gaussian/g16-AVX2-C.01/g16/l1.exe "/mnt/gs18/scratch/users/kengmith/Gau-3847.inp" -scrdir="/mnt/gs18/scratch/users/kengmith/"
 Entering Link 1 = /opt/software/Gaussian/g16-AVX2-C.01/g16/l1.exe PID=      4105.
  
 Copyright (c) 1988-2019, Gaussian, Inc.  All Rights Reserved.
  
 This is part of the Gaussian(R) 16 program.  It is based on
 the Gaussian(R) 09 system (copyright 2009, Gaussian, Inc.),
 the Gaussian(R) 03 system (copyright 2003, Gaussian, Inc.),
 the Gaussian(R) 98 system (copyright 1998, Gaussian, Inc.),
 the Gaussian(R) 94 system (copyright 1995, Gaussian, Inc.),
 the Gaussian 92(TM) system (copyright 1992, Gaussian, Inc.),
 the Gaussian 90(TM) system (copyright 1990, Gaussian, Inc.),
 the Gaussian 88(TM) system (copyright 1988, Gaussian, Inc.),
 the Gaussian 86(TM) system (copyright 1986, Carnegie Mellon
 University), and the Gaussian 82(TM) system (copyright 1983,
 Carnegie Mellon University). Gaussian is a federally registered
 trademark of Gaussian, Inc.
  
 This software contains proprietary and confidential information,
 including trade secrets, belonging to Gaussian, Inc.
  
 This software is provided under written license and may be
 used, copied, transmitted, or stored only in accord with that
 written license.
  
 The following legend is applicable only to US Government
 contracts under FAR:
  
                    RESTRICTED RIGHTS LEGEND
  
 Use, reproduction and disclosure by the US Government is
 subject to restrictions as set forth in subparagraphs (a)
 and (c) of the Commercial Computer Software - Restricted
 Rights clause in FAR 52.227-19.
  
 Gaussian, Inc.
 340 Quinnipiac St., Bldg. 40, Wallingford CT 06492
  
  
 ---------------------------------------------------------------
 Warning -- This program may not be used in any manner that
 competes with the business of Gaussian, Inc. or will provide
 assistance to any competitor of Gaussian, Inc.  The licensee
 of this program is prohibited from giving any competitor of
 Gaussian, Inc. access to this program.  By using this program,
 the user acknowledges that Gaussian, Inc. is engaged in the
 business of creating and licensing software in the field of
 computational chemistry and represents and warrants to the
 licensee that it is not a competitor of Gaussian, Inc. and that
 it will not use this program in any manner prohibited above.
 ---------------------------------------------------------------
  

 Cite this work as:
 Gaussian 16, Revision C.01,
 M. J. Frisch, G. W. Trucks, H. B. Schlegel, G. E. Scuseria, 
 M. A. Robb, J. R. Cheeseman, G. Scalmani, V. Barone, 
 G. A. Petersson, H. Nakatsuji, X. Li, M. Caricato, A. V. Marenich, 
 J. Bloino, B. G. Janesko, R. Gomperts, B. Mennucci, H. P. Hratchian, 
 J. V. Ortiz, A. F. Izmaylov, J. L. Sonnenberg, D. Williams-Young, 
 F. Ding, F. Lipparini, F. Egidi, J. Goings, B. Peng, A. Petrone, 
 T. Henderson, D. Ranasinghe, V. G. Zakrzewski, J. Gao, N. Rega, 
 G. Zheng, W. Liang, M. Hada, M. Ehara, K. Toyota, R. Fukuda, 
 J. Hasegawa, M. Ishida, T. Nakajima, Y. Honda, O. Kitao, H. Nakai, 
 T. Vreven, K. Throssell, J. A. Montgomery, Jr., J. E. Peralta, 
 F. Ogliaro, M. J. Bearpark, J. J. Heyd, E. N. Brothers, K. N. Kudin, 
 V. N. Staroverov, T. A. Keith, R. Kobayashi, J. Normand, 
 K. Raghavachari, A. P. Rendell, J. C. Burant, S. S. Iyengar, 
 J. Tomasi, M. Cossi, J. M. Millam, M. Klene, C. Adamo, R. Cammi, 
 J. W. Ochterski, R. L. Martin, K. Morokuma, O. Farkas, 
 J. B. Foresman, and D. J. Fox, Gaussian, Inc., Wallingford CT, 2019.
 
 ******************************************
 Gaussian 16:  ES64L-G16RevC.01  3-Jul-2019
                27-May-2022 
 ******************************************
 %mem=8gb
 %nproc=4
 Will use up to    4 processors via shared memory.
 %chk=conf-883.chk
 ----------------------------------------------------------------------
 # B3LYP/6-31G* empiricaldispersion=gd3 guess=read geom=check nosymm in
 tegral(ultrafinegrid)
 ----------------------------------------------------------------------
 1/29=2,38=1,172=1/1;
 2/12=2,15=1,40=1/2;
 3/5=1,6=6,7=1,11=2,14=-4,25=1,30=1,74=-5,75=-5,116=-2,124=31/1,2,3;
 4/5=1/1;
 5/5=2,38=6/2;
 6/7=2,8=2,9=2,10=2,28=1/1;
 99/5=1,9=1/99;
 ------------------------------------------------------
 Candidate Structure: Conf:883 Charge calc in gas phase
 ------------------------------------------------------
 Structure from the checkpoint file:  "conf-883.chk"
 Charge =  1 Multiplicity = 1
 Redundant internal coordinates found in file.  (old form).
 N,0,10.2500172694,28.7752951852,12.4578439108
 C,0,11.6975259905,28.4545723132,12.1681183554
 C,0,12.7142821524,28.8684265945,13.2576691386
 O,0,13.3578272015,27.9848330107,13.8057262627
 C,0,12.1184669129,28.9745733313,10.7828796525
 C,0,11.5089975988,28.2151242024,9.5901146303
 C,0,10.0869084116,28.6166440169,9.18918996
 O,0,9.780364689,28.5580978649,7.9924179414
 O,0,9.2705920713,29.0029436114,10.1260136026
 H,0,9.7114892242,28.8215100961,11.4533934977
 H,0,11.7569384024,27.3648077871,12.1660166019
 H,0,11.9157408834,30.049200483,10.6975637083
 H,0,13.207359615,28.8695588928,10.7381965046
 H,0,11.5123535935,27.1344776157,9.7913118775
 H,0,12.1346263445,28.3562101815,8.7054136717
 H,0,9.8396476409,28.0866272254,13.0926661706
 H,0,10.1281047384,29.6723806062,12.9364309987
 N,0,13.0098209477,30.1918961436,13.4400025216
 C,0,12.1687903704,31.3675082679,13.3262764418
 C,0,13.0627162227,32.5442228904,12.8804137523
 O,0,14.2634528974,32.5144005708,13.0959560775
 C,0,11.4893007077,31.6864172237,14.6955842516
 C,0,10.4971424959,30.6403421637,15.1000183795
 C,0,10.7575596569,29.3841150883,15.6005009894
 C,0,9.0633657283,30.7290086377,14.9318905212
 C,0,8.5154342395,29.479060815,15.3328223974
 C,0,8.1917736674,31.7568053592,14.5234990979
 N,0,9.5772326028,28.6674330282,15.7010587416
 C,0,7.1393183581,29.2262182172,15.3207329462
 C,0,6.8245975574,31.51282138,14.5238298222
 C,0,6.3042237875,30.2590946581,14.9107244163
 H,0,13.8561317771,30.345999855,13.9821584294
 H,0,11.4048013262,31.1883426049,12.5659819561
 H,0,10.9904533866,32.6590231185,14.6397668996
 H,0,12.2925271732,31.7925973892,15.4333874235
 H,0,11.7002625904,28.9245846122,15.8629201731
 H,0,9.485199782,27.7971793466,16.2063690614
 H,0,8.5741310125,32.7334100852,14.2380167569
 H,0,6.7370633168,28.2680908436,15.637023112
 H,0,6.138701426,32.3017282457,14.2293531524
 H,0,5.2298700482,30.1027745506,14.9027629178
 N,0,12.4593150059,33.6110206759,12.2710613601
 C,0,11.0539513638,33.8415609463,11.9956746724
 C,0,10.9202079368,34.2836301128,10.5266521158
 O,0,11.8369250764,34.9398542248,10.0467173684
 C,0,10.5007438513,34.9395780821,12.9481744106
 C,0,11.0112474382,36.3490299846,12.6839166935
 O,0,9.0589757221,34.8684852446,12.841955887
 H,0,8.6726909626,35.5061167376,13.4659935772
 H,0,13.0999787913,34.2967521868,11.882902614
 H,0,10.49704603,32.9323530942,12.1966318855
 H,0,10.7842699029,34.6322734253,13.9624140324
 H,0,10.7204768376,36.7014288368,11.691042316
 H,0,12.1021800138,36.3847481763,12.7538815959
 H,0,10.609917749,37.0375572193,13.4361984037
 N,0,9.7942823231,34.0496592026,9.7753805795
 C,0,8.5484669112,33.2661060409,9.8392209717
 C,0,7.3271539203,34.2069246821,9.866564431
 O,0,6.410575044,34.0718404705,9.0729367206
 C,0,8.4559456419,32.1913950679,10.9352145831
 C,0,7.0851346216,31.5017406484,11.0990073646
 C,0,6.348011828,31.0116004203,9.8397087972
 N,0,7.2453736778,30.4852890023,8.814482749
 C,0,7.2250537913,30.8067874208,7.5179063757
 N,0,6.552994515,31.8921656795,7.0837099386
 N,0,7.8647011362,30.013858167,6.6457381244
 O,0,7.3031901496,35.1514525669,10.7945883786
 H,0,8.0953801135,35.1008476405,11.3863454667
 H,0,9.9194216785,34.5022266143,8.8736395223
 H,0,8.4816768468,32.754552505,8.8783067392
 H,0,8.6724965954,32.6319798998,11.9073378162
 H,0,9.2173786678,31.4345545392,10.7152338353
 H,0,7.2506665096,30.6591934514,11.777065119
 H,0,6.4011390663,32.1736710379,11.6299741917
 H,0,5.6461996542,30.2198074504,10.128370371
 H,0,5.7532353134,31.8175547073,9.4183339375
 H,0,7.9070257342,29.7630549136,9.1325072623
 H,0,6.4739072547,32.0614456846,6.0918701216
 H,0,6.3602585694,32.6759991735,7.7110384572
 H,0,8.4861584736,29.2888056818,7.0411405971
 H,0,8.1275864225,30.3926422209,5.7463608424
 Recover connectivity data from disk.
                           ----------------------------
                           !    Current Parameters    !
                           ! (Angstroms and Degrees)  !
 --------------------------                            --------------------------
 ! Name  Definition              Value                                          !
 --------------------------------------------------------------------------------
 ! R1    R(1,2)                  1.5107                                         !
 ! R2    R(1,10)                 1.1406                                         !
 ! R3    R(1,16)                 1.0226                                         !
 ! R4    R(1,17)                 1.024                                          !
 ! R5    R(2,3)                  1.5467                                         !
 ! R6    R(2,5)                  1.5383                                         !
 ! R7    R(2,11)                 1.0914                                         !
 ! R8    R(3,4)                  1.2228                                         !
 ! R9    R(3,18)                 1.3683                                         !
 ! R10   R(5,6)                  1.5398                                         !
 ! R11   R(5,12)                 1.0969                                         !
 ! R12   R(5,13)                 1.0949                                         !
 ! R13   R(6,7)                  1.5311                                         !
 ! R14   R(6,14)                 1.0992                                         !
 ! R15   R(6,15)                 1.0927                                         !
 ! R16   R(7,8)                  1.2368                                         !
 ! R17   R(7,9)                  1.3012                                         !
 ! R18   R(18,19)                1.4499                                         !
 ! R19   R(18,32)                1.0168                                         !
 ! R20   R(19,20)                1.5436                                         !
 ! R21   R(19,22)                1.5615                                         !
 ! R22   R(19,33)                1.0926                                         !
 ! R23   R(20,21)                1.2203                                         !
 ! R24   R(20,42)                1.3687                                         !
 ! R25   R(22,23)                1.4974                                         !
 ! R26   R(22,34)                1.0945                                         !
 ! R27   R(22,35)                1.0958                                         !
 ! R28   R(23,24)                1.3771                                         !
 ! R29   R(23,25)                1.4463                                         !
 ! R30   R(24,28)                1.3845                                         !
 ! R31   R(24,36)                1.0811                                         !
 ! R32   R(25,26)                1.4224                                         !
 ! R33   R(25,27)                1.4081                                         !
 ! R34   R(26,28)                1.3863                                         !
 ! R35   R(26,29)                1.3992                                         !
 ! R36   R(27,30)                1.3888                                         !
 ! R37   R(27,38)                1.0869                                         !
 ! R38   R(28,37)                1.0105                                         !
 ! R39   R(29,31)                1.3901                                         !
 ! R40   R(29,39)                1.0862                                         !
 ! R41   R(30,31)                1.4115                                         !
 ! R42   R(30,40)                1.0861                                         !
 ! R43   R(31,41)                1.0857                                         !
 ! R44   R(42,43)                1.4505                                         !
 ! R45   R(42,50)                1.0156                                         !
 ! R46   R(43,44)                1.5399                                         !
 ! R47   R(43,46)                1.5553                                         !
 ! R48   R(43,51)                1.085                                          !
 ! R49   R(44,45)                1.2253                                         !
 ! R50   R(44,56)                1.3736                                         !
 ! R51   R(46,47)                1.5222                                         !
 ! R52   R(46,48)                1.4474                                         !
 ! R53   R(46,52)                1.097                                          !
 ! R54   R(47,53)                1.0929                                         !
 ! R55   R(47,54)                1.0938                                         !
 ! R56   R(47,55)                1.0959                                         !
 ! R57   R(48,49)                0.9722                                         !
 ! R58   R(56,57)                1.4731                                         !
 ! R59   R(56,69)                1.0167                                         !
 ! R60   R(57,58)                1.5419                                         !
 ! R61   R(57,60)                1.5378                                         !
 ! R62   R(57,70)                1.0906                                         !
 ! R63   R(58,59)                1.2199                                         !
 ! R64   R(58,67)                1.3244                                         !
 ! R65   R(60,61)                1.5432                                         !
 ! R66   R(60,71)                1.0891                                         !
 ! R67   R(60,72)                1.0959                                         !
 ! R68   R(61,62)                1.5393                                         !
 ! R69   R(61,73)                1.0941                                         !
 ! R70   R(61,74)                1.096                                          !
 ! R71   R(62,63)                1.4606                                         !
 ! R72   R(62,75)                1.0967                                         !
 ! R73   R(62,76)                1.0867                                         !
 ! R74   R(63,64)                1.336                                          !
 ! R75   R(63,77)                1.0298                                         !
 ! R76   R(64,65)                1.3484                                         !
 ! R77   R(64,66)                1.3411                                         !
 ! R78   R(65,78)                1.0093                                         !
 ! R79   R(65,79)                1.0223                                         !
 ! R80   R(66,80)                1.0336                                         !
 ! R81   R(66,81)                1.0107                                         !
 ! R82   R(67,68)                0.9901                                         !
 ! A1    A(2,1,10)             106.984                                          !
 ! A2    A(2,1,16)             111.138                                          !
 ! A3    A(2,1,17)             112.9352                                         !
 ! A4    A(10,1,16)            112.6126                                         !
 ! A5    A(10,1,17)            108.6537                                         !
 ! A6    A(16,1,17)            104.5993                                         !
 ! A7    A(1,2,3)              115.9757                                         !
 ! A8    A(1,2,5)              111.2926                                         !
 ! A9    A(1,2,11)             105.3386                                         !
 ! A10   A(3,2,5)              111.3467                                         !
 ! A11   A(3,2,11)             103.4591                                         !
 ! A12   A(5,2,11)             108.7171                                         !
 ! A13   A(2,3,4)              117.9274                                         !
 ! A14   A(2,3,18)             119.6488                                         !
 ! A15   A(4,3,18)             121.7043                                         !
 ! A16   A(2,5,6)              114.9933                                         !
 ! A17   A(2,5,12)             110.5258                                         !
 ! A18   A(2,5,13)             106.0497                                         !
 ! A19   A(6,5,12)             110.4751                                         !
 ! A20   A(6,5,13)             108.3451                                         !
 ! A21   A(12,5,13)            105.9384                                         !
 ! A22   A(5,6,7)              116.1761                                         !
 ! A23   A(5,6,14)             109.9922                                         !
 ! A24   A(5,6,15)             109.6863                                         !
 ! A25   A(7,6,14)             107.9733                                         !
 ! A26   A(7,6,15)             106.6136                                         !
 ! A27   A(14,6,15)            105.8655                                         !
 ! A28   A(6,7,8)              118.1103                                         !
 ! A29   A(6,7,9)              118.1641                                         !
 ! A30   A(8,7,9)              123.7254                                         !
 ! A31   A(3,18,19)            130.4297                                         !
 ! A32   A(3,18,32)            113.4169                                         !
 ! A33   A(19,18,32)           113.6856                                         !
 ! A34   A(18,19,20)           107.7485                                         !
 ! A35   A(18,19,22)           110.4389                                         !
 ! A36   A(18,19,33)           109.0993                                         !
 ! A37   A(20,19,22)           110.4634                                         !
 ! A38   A(20,19,33)           109.2053                                         !
 ! A39   A(22,19,33)           109.8409                                         !
 ! A40   A(19,20,21)           120.0134                                         !
 ! A41   A(19,20,42)           117.8693                                         !
 ! A42   A(21,20,42)           122.1042                                         !
 ! A43   A(19,22,23)           112.4878                                         !
 ! A44   A(19,22,34)           109.578                                          !
 ! A45   A(19,22,35)           106.9322                                         !
 ! A46   A(23,22,34)           109.4251                                         !
 ! A47   A(23,22,35)           111.8091                                         !
 ! A48   A(34,22,35)           106.3984                                         !
 ! A49   A(22,23,24)           127.5993                                         !
 ! A50   A(22,23,25)           125.6347                                         !
 ! A51   A(24,23,25)           106.5969                                         !
 ! A52   A(23,24,28)           109.7175                                         !
 ! A53   A(23,24,36)           129.8574                                         !
 ! A54   A(28,24,36)           120.3801                                         !
 ! A55   A(23,25,26)           107.1712                                         !
 ! A56   A(23,25,27)           133.7938                                         !
 ! A57   A(26,25,27)           118.9932                                         !
 ! A58   A(25,26,28)           107.1158                                         !
 ! A59   A(25,26,29)           122.3578                                         !
 ! A60   A(28,26,29)           130.5262                                         !
 ! A61   A(25,27,30)           118.7537                                         !
 ! A62   A(25,27,38)           120.9469                                         !
 ! A63   A(30,27,38)           120.279                                          !
 ! A64   A(24,28,26)           109.3061                                         !
 ! A65   A(24,28,37)           124.0383                                         !
 ! A66   A(26,28,37)           124.5606                                         !
 ! A67   A(26,29,31)           117.3303                                         !
 ! A68   A(26,29,39)           121.4059                                         !
 ! A69   A(31,29,39)           121.2536                                         !
 ! A70   A(27,30,31)           121.2684                                         !
 ! A71   A(27,30,40)           119.6064                                         !
 ! A72   A(31,30,40)           119.1232                                         !
 ! A73   A(29,31,30)           121.2888                                         !
 ! A74   A(29,31,41)           119.318                                          !
 ! A75   A(30,31,41)           119.3864                                         !
 ! A76   A(20,42,43)           129.4579                                         !
 ! A77   A(20,42,50)           114.7289                                         !
 ! A78   A(43,42,50)           115.5518                                         !
 ! A79   A(42,43,44)           108.1126                                         !
 ! A80   A(42,43,46)           109.9106                                         !
 ! A81   A(42,43,51)           109.2052                                         !
 ! A82   A(44,43,46)           110.5282                                         !
 ! A83   A(44,43,51)           111.8808                                         !
 ! A84   A(46,43,51)           107.1941                                         !
 ! A85   A(43,44,45)           117.5438                                         !
 ! A86   A(43,44,56)           122.9589                                         !
 ! A87   A(45,44,56)           119.3568                                         !
 ! A88   A(43,46,47)           115.3468                                         !
 ! A89   A(43,46,48)           105.9433                                         !
 ! A90   A(43,46,52)           106.052                                          !
 ! A91   A(47,46,48)           111.5189                                         !
 ! A92   A(47,46,52)           109.4633                                         !
 ! A93   A(48,46,52)           108.151                                          !
 ! A94   A(46,47,53)           111.5331                                         !
 ! A95   A(46,47,54)           110.7105                                         !
 ! A96   A(46,47,55)           109.8617                                         !
 ! A97   A(53,47,54)           108.2363                                         !
 ! A98   A(53,47,55)           108.88                                           !
 ! A99   A(54,47,55)           107.5074                                         !
 ! A100  A(46,48,49)           108.4486                                         !
 ! A101  A(44,56,57)           139.4722                                         !
 ! A102  A(44,56,69)           107.9619                                         !
 ! A103  A(57,56,69)           112.2908                                         !
 ! A104  A(56,57,58)           110.2477                                         !
 ! A105  A(56,57,60)           116.9684                                         !
 ! A106  A(56,57,70)           105.2534                                         !
 ! A107  A(58,57,60)           111.4772                                         !
 ! A108  A(58,57,70)           104.6733                                         !
 ! A109  A(60,57,70)           107.2448                                         !
 ! A110  A(57,58,59)           121.0656                                         !
 ! A111  A(57,58,67)           117.5113                                         !
 ! A112  A(59,58,67)           121.4157                                         !
 ! A113  A(57,60,61)           116.1936                                         !
 ! A114  A(57,60,71)           109.9678                                         !
 ! A115  A(57,60,72)           107.3246                                         !
 ! A116  A(61,60,71)           105.2291                                         !
 ! A117  A(61,60,72)           109.2599                                         !
 ! A118  A(71,60,72)           108.6881                                         !
 ! A119  A(60,61,62)           118.74                                           !
 ! A120  A(60,61,73)           105.9935                                         !
 ! A121  A(60,61,74)           109.3775                                         !
 ! A122  A(62,61,73)           109.5272                                         !
 ! A123  A(62,61,74)           107.0191                                         !
 ! A124  A(73,61,74)           105.444                                          !
 ! A125  A(61,62,63)           113.2519                                         !
 ! A126  A(61,62,75)           108.7232                                         !
 ! A127  A(61,62,76)           110.0702                                         !
 ! A128  A(63,62,75)           108.5268                                         !
 ! A129  A(63,62,76)           109.3502                                         !
 ! A130  A(75,62,76)           106.6944                                         !
 ! A131  A(62,63,64)           125.8138                                         !
 ! A132  A(62,63,77)           115.5107                                         !
 ! A133  A(64,63,77)           118.5705                                         !
 ! A134  A(63,64,65)           120.9162                                         !
 ! A135  A(63,64,66)           118.7907                                         !
 ! A136  A(65,64,66)           120.2796                                         !
 ! A137  A(64,65,78)           119.3733                                         !
 ! A138  A(64,65,79)           120.8998                                         !
 ! A139  A(78,65,79)           117.3657                                         !
 ! A140  A(64,66,80)           116.9206                                         !
 ! A141  A(64,66,81)           118.763                                          !
 ! A142  A(80,66,81)           116.5481                                         !
 ! A143  A(58,67,68)           111.5849                                         !
 ! D1    D(10,1,2,3)           157.0857                                         !
 ! D2    D(10,1,2,5)            28.4429                                         !
 ! D3    D(10,1,2,11)          -89.2044                                         !
 ! D4    D(16,1,2,3)           -79.6076                                         !
 ! D5    D(16,1,2,5)           151.7497                                         !
 ! D6    D(16,1,2,11)           34.1024                                         !
 ! D7    D(17,1,2,3)            37.5886                                         !
 ! D8    D(17,1,2,5)           -91.0541                                         !
 ! D9    D(17,1,2,11)          151.2985                                         !
 ! D10   D(1,2,3,4)            117.4874                                         !
 ! D11   D(1,2,3,18)           -72.0629                                         !
 ! D12   D(5,2,3,4)           -113.8964                                         !
 ! D13   D(5,2,3,18)            56.5534                                         !
 ! D14   D(11,2,3,4)             2.7059                                         !
 ! D15   D(11,2,3,18)          173.1557                                         !
 ! D16   D(1,2,5,6)            -70.6782                                         !
 ! D17   D(1,2,5,12)            55.2403                                         !
 ! D18   D(1,2,5,13)           169.6224                                         !
 ! D19   D(3,2,5,6)            158.2487                                         !
 ! D20   D(3,2,5,12)           -75.8328                                         !
 ! D21   D(3,2,5,13)            38.5493                                         !
 ! D22   D(11,2,5,6)            44.9038                                         !
 ! D23   D(11,2,5,12)          170.8223                                         !
 ! D24   D(11,2,5,13)          -74.7956                                         !
 ! D25   D(2,3,18,19)           35.2231                                         !
 ! D26   D(2,3,18,32)         -164.0279                                         !
 ! D27   D(4,3,18,19)         -154.6987                                         !
 ! D28   D(4,3,18,32)            6.0503                                         !
 ! D29   D(2,5,6,7)             81.7942                                         !
 ! D30   D(2,5,6,14)           -41.211                                          !
 ! D31   D(2,5,6,15)          -157.2597                                         !
 ! D32   D(12,5,6,7)           -44.1505                                         !
 ! D33   D(12,5,6,14)         -167.1557                                         !
 ! D34   D(12,5,6,15)           76.7956                                         !
 ! D35   D(13,5,6,7)          -159.785                                          !
 ! D36   D(13,5,6,14)           77.2098                                         !
 ! D37   D(13,5,6,15)          -38.8389                                         !
 ! D38   D(5,6,7,8)            146.9067                                         !
 ! D39   D(5,6,7,9)            -32.9365                                         !
 ! D40   D(14,6,7,8)           -89.0399                                         !
 ! D41   D(14,6,7,9)            91.1169                                         !
 ! D42   D(15,6,7,8)            24.3332                                         !
 ! D43   D(15,6,7,9)          -155.51                                           !
 ! D44   D(3,18,19,20)        -149.7547                                         !
 ! D45   D(3,18,19,22)          89.5131                                         !
 ! D46   D(3,18,19,33)         -31.3077                                         !
 ! D47   D(32,18,19,20)         49.5372                                         !
 ! D48   D(32,18,19,22)        -71.1949                                         !
 ! D49   D(32,18,19,33)        167.9842                                         !
 ! D50   D(18,19,20,21)        -23.3946                                         !
 ! D51   D(18,19,20,42)        157.8969                                         !
 ! D52   D(22,19,20,21)         97.3222                                         !
 ! D53   D(22,19,20,42)        -81.3864                                         !
 ! D54   D(33,19,20,21)       -141.7735                                         !
 ! D55   D(33,19,20,42)         39.518                                          !
 ! D56   D(18,19,22,23)        -67.1042                                         !
 ! D57   D(18,19,22,34)        170.9405                                         !
 ! D58   D(18,19,22,35)         56.0118                                         !
 ! D59   D(20,19,22,23)        173.7984                                         !
 ! D60   D(20,19,22,34)         51.8431                                         !
 ! D61   D(20,19,22,35)        -63.0856                                         !
 ! D62   D(33,19,22,23)         53.2733                                         !
 ! D63   D(33,19,22,34)        -68.682                                          !
 ! D64   D(33,19,22,35)        176.3893                                         !
 ! D65   D(19,20,42,43)          1.8819                                         !
 ! D66   D(19,20,42,50)       -171.9115                                         !
 ! D67   D(21,20,42,43)       -176.798                                          !
 ! D68   D(21,20,42,50)          9.4087                                         !
 ! D69   D(19,22,23,24)         75.5021                                         !
 ! D70   D(19,22,23,25)        -99.1263                                         !
 ! D71   D(34,22,23,24)       -162.456                                          !
 ! D72   D(34,22,23,25)         22.9157                                         !
 ! D73   D(35,22,23,24)        -44.8398                                         !
 ! D74   D(35,22,23,25)        140.5318                                         !
 ! D75   D(22,23,24,28)       -172.9769                                         !
 ! D76   D(22,23,24,36)          4.5427                                         !
 ! D77   D(25,23,24,28)          2.4694                                         !
 ! D78   D(25,23,24,36)        179.989                                          !
 ! D79   D(22,23,25,26)        174.7236                                         !
 ! D80   D(22,23,25,27)         -7.7421                                         !
 ! D81   D(24,23,25,26)         -0.8375                                         !
 ! D82   D(24,23,25,27)        176.6968                                         !
 ! D83   D(23,24,28,26)         -3.2396                                         !
 ! D84   D(23,24,28,37)       -167.3919                                         !
 ! D85   D(36,24,28,26)        178.9674                                         !
 ! D86   D(36,24,28,37)         14.8151                                         !
 ! D87   D(23,25,26,28)         -1.0759                                         !
 ! D88   D(23,25,26,29)        178.7821                                         !
 ! D89   D(27,25,26,28)       -179.0413                                         !
 ! D90   D(27,25,26,29)          0.8167                                         !
 ! D91   D(23,25,27,30)       -177.4352                                         !
 ! D92   D(23,25,27,38)          0.9251                                         !
 ! D93   D(26,25,27,30)         -0.1287                                         !
 ! D94   D(26,25,27,38)        178.2317                                         !
 ! D95   D(25,26,28,24)          2.6146                                         !
 ! D96   D(25,26,28,37)        166.6654                                         !
 ! D97   D(29,26,28,24)       -177.2276                                         !
 ! D98   D(29,26,28,37)        -13.1768                                         !
 ! D99   D(25,26,29,31)         -0.7049                                         !
 ! D100  D(25,26,29,39)       -179.555                                          !
 ! D101  D(28,26,29,31)        179.1165                                         !
 ! D102  D(28,26,29,39)          0.2665                                         !
 ! D103  D(25,27,30,31)         -0.6306                                         !
 ! D104  D(25,27,30,40)        178.8531                                         !
 ! D105  D(38,27,30,31)       -179.0023                                         !
 ! D106  D(38,27,30,40)          0.4815                                         !
 ! D107  D(26,29,31,30)         -0.0733                                         !
 ! D108  D(26,29,31,41)       -179.1182                                         !
 ! D109  D(39,29,31,30)        178.7786                                         !
 ! D110  D(39,29,31,41)         -0.2663                                         !
 ! D111  D(27,30,31,29)          0.7507                                         !
 ! D112  D(27,30,31,41)        179.7949                                         !
 ! D113  D(40,30,31,29)       -178.7355                                         !
 ! D114  D(40,30,31,41)          0.3087                                         !
 ! D115  D(20,42,43,44)       -131.8035                                         !
 ! D116  D(20,42,43,46)        107.4739                                         !
 ! D117  D(20,42,43,51)         -9.8552                                         !
 ! D118  D(50,42,43,44)         41.9476                                         !
 ! D119  D(50,42,43,46)        -78.7749                                         !
 ! D120  D(50,42,43,51)        163.896                                          !
 ! D121  D(42,43,44,45)        -32.7018                                         !
 ! D122  D(42,43,44,56)        151.6415                                         !
 ! D123  D(46,43,44,45)         87.6351                                         !
 ! D124  D(46,43,44,56)        -88.0216                                         !
 ! D125  D(51,43,44,45)       -152.989                                          !
 ! D126  D(51,43,44,56)         31.3543                                         !
 ! D127  D(42,43,46,47)         70.0013                                         !
 ! D128  D(42,43,46,48)       -166.1196                                         !
 ! D129  D(42,43,46,52)        -51.3276                                         !
 ! D130  D(44,43,46,47)        -49.2536                                         !
 ! D131  D(44,43,46,48)         74.6255                                         !
 ! D132  D(44,43,46,52)       -170.5825                                         !
 ! D133  D(51,43,46,47)       -171.4234                                         !
 ! D134  D(51,43,46,48)        -47.5444                                         !
 ! D135  D(51,43,46,52)         67.2477                                         !
 ! D136  D(43,44,56,57)        -11.5974                                         !
 ! D137  D(43,44,56,69)        175.2728                                         !
 ! D138  D(45,44,56,57)        172.8212                                         !
 ! D139  D(45,44,56,69)         -0.3087                                         !
 ! D140  D(43,46,47,53)         62.2659                                         !
 ! D141  D(43,46,47,54)        -58.3207                                         !
 ! D142  D(43,46,47,55)       -176.91                                           !
 ! D143  D(48,46,47,53)        -58.631                                          !
 ! D144  D(48,46,47,54)       -179.2175                                         !
 ! D145  D(48,46,47,55)         62.1932                                         !
 ! D146  D(52,46,47,53)       -178.2678                                         !
 ! D147  D(52,46,47,54)         61.1456                                         !
 ! D148  D(52,46,47,55)        -57.4437                                         !
 ! D149  D(43,46,48,49)        176.6048                                         !
 ! D150  D(47,46,48,49)        -57.1516                                         !
 ! D151  D(52,46,48,49)         63.2586                                         !
 ! D152  D(44,56,57,58)        116.556                                          !
 ! D153  D(44,56,57,60)        -12.167                                          !
 ! D154  D(44,56,57,70)       -131.083                                          !
 ! D155  D(69,56,57,58)        -70.5081                                         !
 ! D156  D(69,56,57,60)        160.7689                                         !
 ! D157  D(69,56,57,70)         41.8529                                         !
 ! D158  D(56,57,58,59)        127.3475                                         !
 ! D159  D(56,57,58,67)        -53.6214                                         !
 ! D160  D(60,57,58,59)       -101.0031                                         !
 ! D161  D(60,57,58,67)         78.028                                          !
 ! D162  D(70,57,58,59)         14.6131                                         !
 ! D163  D(70,57,58,67)       -166.3559                                         !
 ! D164  D(56,57,60,61)        172.7465                                         !
 ! D165  D(56,57,60,71)         53.3929                                         !
 ! D166  D(56,57,60,72)        -64.6705                                         !
 ! D167  D(58,57,60,61)         44.6141                                         !
 ! D168  D(58,57,60,71)        -74.7395                                         !
 ! D169  D(58,57,60,72)        167.1971                                         !
 ! D170  D(70,57,60,61)        -69.412                                          !
 ! D171  D(70,57,60,71)        171.2344                                         !
 ! D172  D(70,57,60,72)         53.171                                          !
 ! D173  D(57,58,67,68)         -1.9042                                         !
 ! D174  D(59,58,67,68)        177.1232                                         !
 ! D175  D(57,60,61,62)         46.2593                                         !
 ! D176  D(57,60,61,73)        169.8837                                         !
 ! D177  D(57,60,61,74)        -76.8839                                         !
 ! D178  D(71,60,61,62)        168.153                                          !
 ! D179  D(71,60,61,73)        -68.2226                                         !
 ! D180  D(71,60,61,74)         45.0098                                         !
 ! D181  D(72,60,61,62)        -75.3027                                         !
 ! D182  D(72,60,61,73)         48.3216                                         !
 ! D183  D(72,60,61,74)        161.554                                          !
 ! D184  D(60,61,62,63)         36.3273                                         !
 ! D185  D(60,61,62,75)        157.044                                          !
 ! D186  D(60,61,62,76)        -86.4199                                         !
 ! D187  D(73,61,62,63)        -85.5366                                         !
 ! D188  D(73,61,62,75)         35.1801                                         !
 ! D189  D(73,61,62,76)        151.7162                                         !
 ! D190  D(74,61,62,63)        160.6322                                         !
 ! D191  D(74,61,62,75)        -78.6512                                         !
 ! D192  D(74,61,62,76)         37.8849                                         !
 ! D193  D(61,62,63,64)       -131.4926                                         !
 ! D194  D(61,62,63,77)         52.3053                                         !
 ! D195  D(75,62,63,64)        107.6796                                         !
 ! D196  D(75,62,63,77)        -68.5226                                         !
 ! D197  D(76,62,63,64)         -8.3474                                         !
 ! D198  D(76,62,63,77)        175.4505                                         !
 ! D199  D(62,63,64,65)         15.3537                                         !
 ! D200  D(62,63,64,66)       -163.3125                                         !
 ! D201  D(77,63,64,65)       -168.5493                                         !
 ! D202  D(77,63,64,66)         12.7845                                         !
 ! D203  D(63,64,65,78)       -173.8058                                         !
 ! D204  D(63,64,65,79)         24.095                                          !
 ! D205  D(66,64,65,78)          4.8406                                         !
 ! D206  D(66,64,65,79)       -157.2586                                         !
 ! D207  D(63,64,66,80)        -10.9125                                         !
 ! D208  D(63,64,66,81)       -159.1841                                         !
 ! D209  D(65,64,66,80)        170.4126                                         !
 ! D210  D(65,64,66,81)         22.141                                          !
 --------------------------------------------------------------------------------
 Symmetry turned off by external request.
 Stoichiometry    C26H39N8O8(1+)
 Framework group  C1[X(C26H39N8O8)]
 Deg. of freedom   237
 Full point group                 C1      NOp   1
                          Input orientation:                          
 ---------------------------------------------------------------------
 Center     Atomic      Atomic             Coordinates (Angstroms)
 Number     Number       Type             X           Y           Z
 ---------------------------------------------------------------------
      1          7           0       10.250017   28.775295   12.457844
      2          6           0       11.697526   28.454572   12.168118
      3          6           0       12.714282   28.868427   13.257669
      4          8           0       13.357827   27.984833   13.805726
      5          6           0       12.118467   28.974573   10.782880
      6          6           0       11.508998   28.215124    9.590115
      7          6           0       10.086908   28.616644    9.189190
      8          8           0        9.780365   28.558098    7.992418
      9          8           0        9.270592   29.002944   10.126014
     10          1           0        9.711489   28.821510   11.453393
     11          1           0       11.756938   27.364808   12.166017
     12          1           0       11.915741   30.049200   10.697564
     13          1           0       13.207360   28.869559   10.738197
     14          1           0       11.512354   27.134478    9.791312
     15          1           0       12.134626   28.356210    8.705414
     16          1           0        9.839648   28.086627   13.092666
     17          1           0       10.128105   29.672381   12.936431
     18          7           0       13.009821   30.191896   13.440003
     19          6           0       12.168790   31.367508   13.326276
     20          6           0       13.062716   32.544223   12.880414
     21          8           0       14.263453   32.514401   13.095956
     22          6           0       11.489301   31.686417   14.695584
     23          6           0       10.497142   30.640342   15.100018
     24          6           0       10.757560   29.384115   15.600501
     25          6           0        9.063366   30.729009   14.931891
     26          6           0        8.515434   29.479061   15.332822
     27          6           0        8.191774   31.756805   14.523499
     28          7           0        9.577233   28.667433   15.701059
     29          6           0        7.139318   29.226218   15.320733
     30          6           0        6.824598   31.512821   14.523830
     31          6           0        6.304224   30.259095   14.910724
     32          1           0       13.856132   30.346000   13.982158
     33          1           0       11.404801   31.188343   12.565982
     34          1           0       10.990453   32.659023   14.639767
     35          1           0       12.292527   31.792597   15.433387
     36          1           0       11.700263   28.924585   15.862920
     37          1           0        9.485200   27.797179   16.206369
     38          1           0        8.574131   32.733410   14.238017
     39          1           0        6.737063   28.268091   15.637023
     40          1           0        6.138701   32.301728   14.229353
     41          1           0        5.229870   30.102775   14.902763
     42          7           0       12.459315   33.611021   12.271061
     43          6           0       11.053951   33.841561   11.995675
     44          6           0       10.920208   34.283630   10.526652
     45          8           0       11.836925   34.939854   10.046717
     46          6           0       10.500744   34.939578   12.948174
     47          6           0       11.011247   36.349030   12.683917
     48          8           0        9.058976   34.868485   12.841956
     49          1           0        8.672691   35.506117   13.465994
     50          1           0       13.099979   34.296752   11.882903
     51          1           0       10.497046   32.932353   12.196632
     52          1           0       10.784270   34.632273   13.962414
     53          1           0       10.720477   36.701429   11.691042
     54          1           0       12.102180   36.384748   12.753882
     55          1           0       10.609918   37.037557   13.436198
     56          7           0        9.794282   34.049659    9.775381
     57          6           0        8.548467   33.266106    9.839221
     58          6           0        7.327154   34.206925    9.866564
     59          8           0        6.410575   34.071840    9.072937
     60          6           0        8.455946   32.191395   10.935215
     61          6           0        7.085135   31.501741   11.099007
     62          6           0        6.348012   31.011600    9.839709
     63          7           0        7.245374   30.485289    8.814483
     64          6           0        7.225054   30.806787    7.517906
     65          7           0        6.552995   31.892166    7.083710
     66          7           0        7.864701   30.013858    6.645738
     67          8           0        7.303190   35.151453   10.794588
     68          1           0        8.095380   35.100848   11.386345
     69          1           0        9.919422   34.502227    8.873640
     70          1           0        8.481677   32.754553    8.878307
     71          1           0        8.672497   32.631980   11.907338
     72          1           0        9.217379   31.434555   10.715234
     73          1           0        7.250667   30.659193   11.777065
     74          1           0        6.401139   32.173671   11.629974
     75          1           0        5.646200   30.219807   10.128370
     76          1           0        5.753235   31.817555    9.418334
     77          1           0        7.907026   29.763055    9.132507
     78          1           0        6.473907   32.061446    6.091870
     79          1           0        6.360259   32.675999    7.711038
     80          1           0        8.486158   29.288806    7.041141
     81          1           0        8.127586   30.392642    5.746361
 ---------------------------------------------------------------------
 Rotational constants (GHZ):           0.0936986           0.0730240           0.0654743
 Standard basis: 6-31G(d) (6D, 7F)
   708 basis functions,  1332 primitive gaussians,   708 cartesian basis functions
   157 alpha electrons      157 beta electrons
       nuclear repulsion energy      5753.3296895535 Hartrees.
 NAtoms=   81 NActive=   81 NUniq=   81 SFac= 1.00D+00 NAtFMM=   60 NAOKFM=T Big=T
 Integral buffers will be    131072 words long.
 Raffenetti 2 integral format.
 Two-electron integral symmetry is turned off.
 Nuclear repulsion after empirical dispersion term =     5753.1975308568 Hartrees.
 One-electron integrals computed using PRISM.
 NBasis=   708 RedAO= T EigKep=  3.56D-04  NBF=   708
 NBsUse=   708 1.00D-06 EigRej= -1.00D+00 NBFU=   708
 Initial guess from the checkpoint file:  "conf-883.chk"
 B after Tr=     0.000000    0.000000    0.000000
         Rot=    1.000000    0.000000    0.000000    0.000000 Ang=   0.00 deg.
 Requested convergence on RMS density matrix=1.00D-08 within 128 cycles.
 Requested convergence on MAX density matrix=1.00D-06.
 Requested convergence on             energy=1.00D-06.
 No special actions if energy rises.
 SCF Done:  E(RB3LYP) =  -2054.06928601     A.U. after    1 cycles
            NFock=  1  Conv=0.81D-08     -V/T= 2.0093

 **********************************************************************

            Population analysis using the SCF Density.

 **********************************************************************

 Alpha  occ. eigenvalues --  -19.30307 -19.29422 -19.24994 -19.23142 -19.22999
 Alpha  occ. eigenvalues --  -19.22240 -19.22064 -19.20973 -14.53277 -14.49528
 Alpha  occ. eigenvalues --  -14.48363 -14.47839 -14.47572 -14.46954 -14.46756
 Alpha  occ. eigenvalues --  -14.46595 -10.44334 -10.43124 -10.41024 -10.40232
 Alpha  occ. eigenvalues --  -10.39876 -10.39475 -10.37399 -10.36589 -10.36390
 Alpha  occ. eigenvalues --  -10.36254 -10.36040 -10.33379 -10.33253 -10.33205
 Alpha  occ. eigenvalues --  -10.31377 -10.31363 -10.31206 -10.30325 -10.29984
 Alpha  occ. eigenvalues --  -10.29939 -10.29796 -10.29627 -10.29266 -10.29165
 Alpha  occ. eigenvalues --  -10.28968 -10.28801  -1.21011  -1.16869  -1.15496
 Alpha  occ. eigenvalues --   -1.15221  -1.14721  -1.14028  -1.12838  -1.12470
 Alpha  occ. eigenvalues --   -1.09461  -1.08783  -1.05947  -1.04110  -1.03664
 Alpha  occ. eigenvalues --   -1.03460  -1.02210  -1.00592  -0.94953  -0.92106
 Alpha  occ. eigenvalues --   -0.91792  -0.90971  -0.89849  -0.87121  -0.86005
 Alpha  occ. eigenvalues --   -0.84548  -0.83295  -0.83248  -0.82694  -0.80015
 Alpha  occ. eigenvalues --   -0.78375  -0.75600  -0.74573  -0.74278  -0.73169
 Alpha  occ. eigenvalues --   -0.72822  -0.72454  -0.71847  -0.70274  -0.70216
 Alpha  occ. eigenvalues --   -0.69740  -0.69206  -0.68204  -0.67304  -0.66679
 Alpha  occ. eigenvalues --   -0.66128  -0.65757  -0.64832  -0.64569  -0.63724
 Alpha  occ. eigenvalues --   -0.62920  -0.62289  -0.61363  -0.61227  -0.60358
 Alpha  occ. eigenvalues --   -0.59746  -0.59612  -0.59206  -0.58810  -0.58235
 Alpha  occ. eigenvalues --   -0.57732  -0.57436  -0.57156  -0.56980  -0.56696
 Alpha  occ. eigenvalues --   -0.55811  -0.55481  -0.55045  -0.54669  -0.54181
 Alpha  occ. eigenvalues --   -0.54065  -0.53870  -0.53678  -0.53317  -0.52817
 Alpha  occ. eigenvalues --   -0.52655  -0.52403  -0.52034  -0.51638  -0.51207
 Alpha  occ. eigenvalues --   -0.51142  -0.50934  -0.50003  -0.49777  -0.49307
 Alpha  occ. eigenvalues --   -0.48971  -0.48773  -0.48571  -0.48405  -0.47957
 Alpha  occ. eigenvalues --   -0.47403  -0.47027  -0.46739  -0.46460  -0.46188
 Alpha  occ. eigenvalues --   -0.45608  -0.45486  -0.45162  -0.44371  -0.44110
 Alpha  occ. eigenvalues --   -0.42108  -0.41994  -0.40026  -0.39158  -0.39070
 Alpha  occ. eigenvalues --   -0.38218  -0.37791  -0.37436  -0.37015  -0.36758
 Alpha  occ. eigenvalues --   -0.36334  -0.36117  -0.35782  -0.35172  -0.34577
 Alpha  occ. eigenvalues --   -0.33592  -0.31652
 Alpha virt. eigenvalues --   -0.12562  -0.11411  -0.10291  -0.09721  -0.09224
 Alpha virt. eigenvalues --   -0.08928  -0.08608  -0.07022  -0.06531  -0.06237
 Alpha virt. eigenvalues --   -0.05195  -0.04153  -0.04007  -0.02603  -0.01799
 Alpha virt. eigenvalues --   -0.01670  -0.01204  -0.00465   0.00341   0.00374
 Alpha virt. eigenvalues --    0.00452   0.01087   0.01396   0.02135   0.02338
 Alpha virt. eigenvalues --    0.02548   0.03065   0.03501   0.04221   0.04378
 Alpha virt. eigenvalues --    0.04705   0.04904   0.05069   0.05341   0.05950
 Alpha virt. eigenvalues --    0.06059   0.06543   0.06753   0.07084   0.07404
 Alpha virt. eigenvalues --    0.07947   0.08066   0.08230   0.08437   0.08613
 Alpha virt. eigenvalues --    0.08686   0.08970   0.09215   0.09695   0.10300
 Alpha virt. eigenvalues --    0.10502   0.11184   0.11477   0.11776   0.12051
 Alpha virt. eigenvalues --    0.12343   0.13403   0.13667   0.13913   0.14216
 Alpha virt. eigenvalues --    0.14460   0.14849   0.15122   0.15407   0.15887
 Alpha virt. eigenvalues --    0.16462   0.16840   0.17046   0.17635   0.17820
 Alpha virt. eigenvalues --    0.18142   0.19615   0.20254   0.21626   0.23253
 Alpha virt. eigenvalues --    0.23721   0.24281   0.24910   0.25765   0.26483
 Alpha virt. eigenvalues --    0.27379   0.28352   0.28711   0.29461   0.30002
 Alpha virt. eigenvalues --    0.30337   0.31301   0.31689   0.32898   0.33716
 Alpha virt. eigenvalues --    0.35572   0.37142   0.37764   0.38645   0.38719
 Alpha virt. eigenvalues --    0.39755   0.40126   0.40394   0.40704   0.41185
 Alpha virt. eigenvalues --    0.41872   0.42461   0.42877   0.43351   0.43931
 Alpha virt. eigenvalues --    0.44272   0.44438   0.44917   0.45210   0.45537
 Alpha virt. eigenvalues --    0.45930   0.46234   0.46747   0.47218   0.47636
 Alpha virt. eigenvalues --    0.47847   0.47974   0.48619   0.49046   0.49247
 Alpha virt. eigenvalues --    0.49293   0.49419   0.49889   0.50218   0.50707
 Alpha virt. eigenvalues --    0.51213   0.51434   0.52023   0.52201   0.52938
 Alpha virt. eigenvalues --    0.53110   0.53731   0.54086   0.54394   0.55044
 Alpha virt. eigenvalues --    0.55273   0.55583   0.56039   0.56398   0.56518
 Alpha virt. eigenvalues --    0.57144   0.57518   0.57571   0.57913   0.58309
 Alpha virt. eigenvalues --    0.58576   0.59294   0.59939   0.60195   0.61274
 Alpha virt. eigenvalues --    0.61837   0.61970   0.63268   0.63526   0.64473
 Alpha virt. eigenvalues --    0.64801   0.65206   0.65584   0.66175   0.66699
 Alpha virt. eigenvalues --    0.67528   0.68508   0.69101   0.69517   0.69715
 Alpha virt. eigenvalues --    0.70573   0.71052   0.71584   0.72191   0.72591
 Alpha virt. eigenvalues --    0.72727   0.72886   0.73242   0.73763   0.73973
 Alpha virt. eigenvalues --    0.74150   0.74577   0.75061   0.75147   0.75669
 Alpha virt. eigenvalues --    0.75946   0.76358   0.76403   0.76696   0.76846
 Alpha virt. eigenvalues --    0.77399   0.77630   0.78222   0.78272   0.78621
 Alpha virt. eigenvalues --    0.78840   0.79937   0.80266   0.80844   0.81035
 Alpha virt. eigenvalues --    0.81277   0.81681   0.82443   0.82754   0.82895
 Alpha virt. eigenvalues --    0.83378   0.83804   0.84188   0.84512   0.84701
 Alpha virt. eigenvalues --    0.85234   0.85646   0.86089   0.86626   0.86890
 Alpha virt. eigenvalues --    0.87232   0.88051   0.88056   0.88575   0.89269
 Alpha virt. eigenvalues --    0.89902   0.90261   0.91795   0.91951   0.92631
 Alpha virt. eigenvalues --    0.92891   0.93582   0.94376   0.94426   0.94851
 Alpha virt. eigenvalues --    0.96337   0.96635   0.96978   0.97936   0.98321
 Alpha virt. eigenvalues --    0.99315   0.99511   1.00024   1.00634   1.00862
 Alpha virt. eigenvalues --    1.01572   1.01897   1.02557   1.03055   1.03513
 Alpha virt. eigenvalues --    1.03957   1.04045   1.05364   1.05645   1.06286
 Alpha virt. eigenvalues --    1.07086   1.08102   1.08209   1.09009   1.09691
 Alpha virt. eigenvalues --    1.09853   1.10362   1.12477   1.12798   1.13237
 Alpha virt. eigenvalues --    1.14696   1.15783   1.15894   1.16252   1.17763
 Alpha virt. eigenvalues --    1.18803   1.19739   1.20119   1.20509   1.21030
 Alpha virt. eigenvalues --    1.21800   1.22721   1.23751   1.24237   1.24687
 Alpha virt. eigenvalues --    1.25782   1.26400   1.27044   1.27888   1.28385
 Alpha virt. eigenvalues --    1.28491   1.29276   1.29926   1.30610   1.31587
 Alpha virt. eigenvalues --    1.32146   1.32785   1.33595   1.33718   1.33947
 Alpha virt. eigenvalues --    1.34818   1.35870   1.36502   1.37170   1.37515
 Alpha virt. eigenvalues --    1.38531   1.39358   1.39492   1.40347   1.40615
 Alpha virt. eigenvalues --    1.42255   1.42912   1.43282   1.44781   1.45502
 Alpha virt. eigenvalues --    1.46075   1.46352   1.47066   1.47980   1.48645
 Alpha virt. eigenvalues --    1.49481   1.50605   1.51378   1.51754   1.52407
 Alpha virt. eigenvalues --    1.53157   1.54116   1.54536   1.55427   1.56332
 Alpha virt. eigenvalues --    1.57074   1.58305   1.58668   1.59623   1.60515
 Alpha virt. eigenvalues --    1.60725   1.61884   1.63179   1.63422   1.63665
 Alpha virt. eigenvalues --    1.65524   1.65620   1.66448   1.66787   1.67013
 Alpha virt. eigenvalues --    1.67547   1.68067   1.68384   1.68907   1.69255
 Alpha virt. eigenvalues --    1.69748   1.70453   1.70876   1.70939   1.71436
 Alpha virt. eigenvalues --    1.71751   1.71972   1.72955   1.73224   1.73676
 Alpha virt. eigenvalues --    1.73984   1.74908   1.75447   1.75910   1.76437
 Alpha virt. eigenvalues --    1.76748   1.77039   1.77513   1.78456   1.78964
 Alpha virt. eigenvalues --    1.79865   1.80266   1.80487   1.81242   1.81656
 Alpha virt. eigenvalues --    1.82400   1.83213   1.83251   1.83857   1.84458
 Alpha virt. eigenvalues --    1.84901   1.85252   1.85477   1.86205   1.86518
 Alpha virt. eigenvalues --    1.86954   1.87574   1.88886   1.89534   1.90046
 Alpha virt. eigenvalues --    1.91205   1.91620   1.91811   1.92346   1.92521
 Alpha virt. eigenvalues --    1.93165   1.93743   1.94259   1.94979   1.95209
 Alpha virt. eigenvalues --    1.96003   1.96392   1.96948   1.97505   1.98037
 Alpha virt. eigenvalues --    1.98262   1.99117   1.99595   2.00577   2.00977
 Alpha virt. eigenvalues --    2.02228   2.03184   2.03777   2.04209   2.04612
 Alpha virt. eigenvalues --    2.05223   2.05574   2.06608   2.07162   2.08101
 Alpha virt. eigenvalues --    2.08996   2.09506   2.11792   2.14036   2.14307
 Alpha virt. eigenvalues --    2.14635   2.15166   2.15594   2.16202   2.16629
 Alpha virt. eigenvalues --    2.17251   2.17926   2.18911   2.19442   2.20824
 Alpha virt. eigenvalues --    2.21461   2.22524   2.24022   2.24255   2.24708
 Alpha virt. eigenvalues --    2.26380   2.27532   2.27839   2.27912   2.28634
 Alpha virt. eigenvalues --    2.28866   2.29771   2.30456   2.31004   2.31703
 Alpha virt. eigenvalues --    2.31912   2.34341   2.34864   2.35629   2.36382
 Alpha virt. eigenvalues --    2.36581   2.38106   2.38796   2.39187   2.40187
 Alpha virt. eigenvalues --    2.41644   2.42164   2.43290   2.43512   2.44106
 Alpha virt. eigenvalues --    2.45129   2.45836   2.46149   2.46826   2.48572
 Alpha virt. eigenvalues --    2.49227   2.49365   2.50065   2.51411   2.51464
 Alpha virt. eigenvalues --    2.52533   2.52968   2.54467   2.55212   2.55559
 Alpha virt. eigenvalues --    2.56130   2.56688   2.57438   2.58228   2.58651
 Alpha virt. eigenvalues --    2.59185   2.60284   2.60578   2.62413   2.63684
 Alpha virt. eigenvalues --    2.63975   2.65370   2.65620   2.66509   2.66653
 Alpha virt. eigenvalues --    2.67794   2.69796   2.70850   2.73000   2.73994
 Alpha virt. eigenvalues --    2.76758   2.77353   2.79912   2.81747   2.82898
 Alpha virt. eigenvalues --    2.85821   2.87605   2.88645   2.90106   2.90470
 Alpha virt. eigenvalues --    2.91988   2.92588   2.93886   2.94978   2.96685
 Alpha virt. eigenvalues --    2.98016   2.99776   3.00926   3.01404   3.02926
 Alpha virt. eigenvalues --    3.05959   3.10766   3.13708   3.33249   3.73702
 Alpha virt. eigenvalues --    3.77651   3.80488   3.81835   3.84549   3.87793
 Alpha virt. eigenvalues --    3.91091   3.93821   3.94218   3.97095   3.98979
 Alpha virt. eigenvalues --    4.00613   4.01991   4.02929   4.03974   4.05476
 Alpha virt. eigenvalues --    4.06825   4.07186   4.12781   4.14848   4.17288
 Alpha virt. eigenvalues --    4.18345   4.20750   4.22450   4.24407   4.24575
 Alpha virt. eigenvalues --    4.26957   4.28640   4.30831   4.32397   4.34482
 Alpha virt. eigenvalues --    4.39621   4.39923   4.45054   4.47411   4.48671
 Alpha virt. eigenvalues --    4.49159   4.55751   4.59015   4.61505   4.65370
 Alpha virt. eigenvalues --    4.70405
          Condensed to atoms (all electrons):
 Mulliken charges:
               1
     1  N   -0.822101
     2  C   -0.085458
     3  C    0.578533
     4  O   -0.481612
     5  C   -0.306942
     6  C   -0.375967
     7  C    0.634888
     8  O   -0.541440
     9  O   -0.661720
    10  H    0.462404
    11  H    0.210486
    12  H    0.160758
    13  H    0.203739
    14  H    0.183132
    15  H    0.196811
    16  H    0.392207
    17  H    0.400224
    18  N   -0.565303
    19  C   -0.098272
    20  C    0.626617
    21  O   -0.482077
    22  C   -0.360907
    23  C    0.028806
    24  C   -0.013238
    25  C    0.048936
    26  C    0.287557
    27  C   -0.224458
    28  N   -0.688168
    29  C   -0.163322
    30  C   -0.147480
    31  C   -0.151404
    32  H    0.364274
    33  H    0.133977
    34  H    0.163924
    35  H    0.190056
    36  H    0.204234
    37  H    0.354173
    38  H    0.141607
    39  H    0.154230
    40  H    0.143376
    41  H    0.155787
    42  N   -0.608938
    43  C   -0.080607
    44  C    0.621536
    45  O   -0.494603
    46  C    0.119853
    47  C   -0.478571
    48  O   -0.651700
    49  H    0.431091
    50  H    0.369815
    51  H    0.158598
    52  H    0.166112
    53  H    0.190237
    54  H    0.186420
    55  H    0.164845
    56  N   -0.639067
    57  C   -0.062443
    58  C    0.624562
    59  O   -0.477464
    60  C   -0.334542
    61  C   -0.292126
    62  C   -0.163986
    63  N   -0.628713
    64  C    0.750065
    65  N   -0.788310
    66  N   -0.773414
    67  O   -0.575781
    68  H    0.457060
    69  H    0.354356
    70  H    0.175850
    71  H    0.184062
    72  H    0.164369
    73  H    0.167790
    74  H    0.169483
    75  H    0.184205
    76  H    0.195268
    77  H    0.413263
    78  H    0.362417
    79  H    0.415368
    80  H    0.421922
    81  H    0.350851
 Sum of Mulliken charges =   1.00000
 Mulliken charges with hydrogens summed into heavy atoms:
               1
     1  N    0.432734
     2  C    0.125028
     3  C    0.578533
     4  O   -0.481612
     5  C    0.057555
     6  C    0.003976
     7  C    0.634888
     8  O   -0.541440
     9  O   -0.661720
    18  N   -0.201030
    19  C    0.035705
    20  C    0.626617
    21  O   -0.482077
    22  C   -0.006927
    23  C    0.028806
    24  C    0.190996
    25  C    0.048936
    26  C    0.287557
    27  C   -0.082852
    28  N   -0.333995
    29  C   -0.009092
    30  C   -0.004103
    31  C    0.004382
    42  N   -0.239123
    43  C    0.077991
    44  C    0.621536
    45  O   -0.494603
    46  C    0.285965
    47  C    0.062932
    48  O   -0.220609
    56  N   -0.284711
    57  C    0.113408
    58  C    0.624562
    59  O   -0.477464
    60  C    0.013889
    61  C    0.045146
    62  C    0.215487
    63  N   -0.215450
    64  C    0.750065
    65  N   -0.010524
    66  N   -0.000641
    67  O   -0.118721
 Electronic spatial extent (au):  <R**2>=        1388862.8616
 Charge=              1.0000 electrons
 Dipole moment (field-independent basis, Debye):
    X=             40.7902    Y=            149.7721    Z=             56.3310  Tot=            165.1324
 Quadrupole moment (field-independent basis, Debye-Ang):
   XX=             90.9365   YY=           4462.6748   ZZ=            483.6536
   XY=           1276.1850   XZ=            487.7170   YZ=           1749.6446
 Traceless Quadrupole moment (field-independent basis, Debye-Ang):
   XX=          -1588.1518   YY=           2783.5865   ZZ=          -1195.4347
   XY=           1276.1850   XZ=            487.7170   YZ=           1749.6446
 Octapole moment (field-independent basis, Debye-Ang**2):
  XXX=          -4637.3395  YYY=         126086.4426  ZZZ=           1236.2503  XYY=          37904.6982
  XXY=           2822.5094  XXZ=           1187.9114  XZZ=           3992.8529  YZZ=          14858.9089
  YYZ=          52026.8979  XYZ=          15237.7441
 Hexadecapole moment (field-independent basis, Debye-Ang**3):
 XXXX=        -132780.9414 YYYY=        3306838.0276 ZZZZ=         -75790.6227 XXXY=        -145737.0365
 XXXZ=         -54845.5813 YYYX=        1059247.3572 YYYZ=        1470291.5555 ZZZX=           1886.7438
 ZZZY=          33463.0754 XXYY=          64993.9920 XXZZ=          -6164.3854 YYZZ=         427928.3706
 XXYZ=          37424.3819 YYXZ=         452905.0621 ZZXY=         124100.3011
 N-N= 5.753197530857D+03 E-N=-1.625998003532D+04  KE= 2.035167887295D+03
 Unable to Open any file for archive entry.
 1\1\GINC-VIM-002\SP\RB3LYP\6-31G(d)\C26H39N8O8(1+)\KENGMITH\27-May-202
 2\0\\# B3LYP/6-31G* empiricaldispersion=gd3 guess=read geom=check nosy
 mm integral(ultrafinegrid)\\Candidate Structure: Conf:883 Charge calc 
 in gas phase\\1,1\N,0,10.2500172694,28.7752951852,12.4578439108\C,0,11
 .6975259905,28.4545723132,12.1681183554\C,0,12.7142821524,28.868426594
 5,13.2576691386\O,0,13.3578272015,27.9848330107,13.8057262627\C,0,12.1
 184669129,28.9745733313,10.7828796525\C,0,11.5089975988,28.2151242024,
 9.5901146303\C,0,10.0869084116,28.6166440169,9.18918996\O,0,9.78036468
 9,28.5580978649,7.9924179414\O,0,9.2705920713,29.0029436114,10.1260136
 026\H,0,9.7114892242,28.8215100961,11.4533934977\H,0,11.7569384024,27.
 3648077871,12.1660166019\H,0,11.9157408834,30.049200483,10.6975637083\
 H,0,13.207359615,28.8695588928,10.7381965046\H,0,11.5123535935,27.1344
 776157,9.7913118775\H,0,12.1346263445,28.3562101815,8.7054136717\H,0,9
 .8396476409,28.0866272254,13.0926661706\H,0,10.1281047384,29.672380606
 2,12.9364309987\N,0,13.0098209477,30.1918961436,13.4400025216\C,0,12.1
 687903704,31.3675082679,13.3262764418\C,0,13.0627162227,32.5442228904,
 12.8804137523\O,0,14.2634528974,32.5144005708,13.0959560775\C,0,11.489
 3007077,31.6864172237,14.6955842516\C,0,10.4971424959,30.6403421637,15
 .1000183795\C,0,10.7575596569,29.3841150883,15.6005009894\C,0,9.063365
 7283,30.7290086377,14.9318905212\C,0,8.5154342395,29.479060815,15.3328
 223974\C,0,8.1917736674,31.7568053592,14.5234990979\N,0,9.5772326028,2
 8.6674330282,15.7010587416\C,0,7.1393183581,29.2262182172,15.320732946
 2\C,0,6.8245975574,31.51282138,14.5238298222\C,0,6.3042237875,30.25909
 46581,14.9107244163\H,0,13.8561317771,30.345999855,13.9821584294\H,0,1
 1.4048013262,31.1883426049,12.5659819561\H,0,10.9904533866,32.65902311
 85,14.6397668996\H,0,12.2925271732,31.7925973892,15.4333874235\H,0,11.
 7002625904,28.9245846122,15.8629201731\H,0,9.485199782,27.7971793466,1
 6.2063690614\H,0,8.5741310125,32.7334100852,14.2380167569\H,0,6.737063
 3168,28.2680908436,15.637023112\H,0,6.138701426,32.3017282457,14.22935
 31524\H,0,5.2298700482,30.1027745506,14.9027629178\N,0,12.4593150059,3
 3.6110206759,12.2710613601\C,0,11.0539513638,33.8415609463,11.99567467
 24\C,0,10.9202079368,34.2836301128,10.5266521158\O,0,11.8369250764,34.
 9398542248,10.0467173684\C,0,10.5007438513,34.9395780821,12.9481744106
 \C,0,11.0112474382,36.3490299846,12.6839166935\O,0,9.0589757221,34.868
 4852446,12.841955887\H,0,8.6726909626,35.5061167376,13.4659935772\H,0,
 13.0999787913,34.2967521868,11.882902614\H,0,10.49704603,32.9323530942
 ,12.1966318855\H,0,10.7842699029,34.6322734253,13.9624140324\H,0,10.72
 04768376,36.7014288368,11.691042316\H,0,12.1021800138,36.3847481763,12
 .7538815959\H,0,10.609917749,37.0375572193,13.4361984037\N,0,9.7942823
 231,34.0496592026,9.7753805795\C,0,8.5484669112,33.2661060409,9.839220
 9717\C,0,7.3271539203,34.2069246821,9.866564431\O,0,6.410575044,34.071
 8404705,9.0729367206\C,0,8.4559456419,32.1913950679,10.9352145831\C,0,
 7.0851346216,31.5017406484,11.0990073646\C,0,6.348011828,31.0116004203
 ,9.8397087972\N,0,7.2453736778,30.4852890023,8.814482749\C,0,7.2250537
 913,30.8067874208,7.5179063757\N,0,6.552994515,31.8921656795,7.0837099
 386\N,0,7.8647011362,30.013858167,6.6457381244\O,0,7.3031901496,35.151
 4525669,10.7945883786\H,0,8.0953801135,35.1008476405,11.3863454667\H,0
 ,9.9194216785,34.5022266143,8.8736395223\H,0,8.4816768468,32.754552505
 ,8.8783067392\H,0,8.6724965954,32.6319798998,11.9073378162\H,0,9.21737
 86678,31.4345545392,10.7152338353\H,0,7.2506665096,30.6591934514,11.77
 7065119\H,0,6.4011390663,32.1736710379,11.6299741917\H,0,5.6461996542,
 30.2198074504,10.128370371\H,0,5.7532353134,31.8175547073,9.4183339375
 \H,0,7.9070257342,29.7630549136,9.1325072623\H,0,6.4739072547,32.06144
 56846,6.0918701216\H,0,6.3602585694,32.6759991735,7.7110384572\H,0,8.4
 861584736,29.2888056818,7.0411405971\H,0,8.1275864225,30.3926422209,5.
 7463608424\\Version=ES64L-G16RevC.01\HF=-2054.069286\RMSD=8.120e-09\Di
 pole=-2.3159652,-0.48245,-0.0521947\Quadrupole=-1180.7519588,2069.5283
 687,-888.7764099,948.8122711,362.605652,1300.8178579\PG=C01 [X(C26H39N
 8O8)]\\@
 The archive entry for this job was punched.


 FOR THE NATURE OF THE CHEMICAL BOND
 IS THE PROBLEM AT THE HEART OF ALL CHEMISTRY.

                     -- BRYCE CRAWFORD, JR., 1953
 Job cpu time:       0 days  0 hours  3 minutes 25.3 seconds.
 Elapsed time:       0 days  0 hours  0 minutes 52.5 seconds.
 File lengths (MBytes):  RWF=    376 Int=      0 D2E=      0 Chk=     56 Scr=     16
 Normal termination of Gaussian 16 at Fri May 27 05:09:58 2022.
