 Entering Gaussian System, Link 0=/opt/software/Gaussian/g16-AVX2-C.01/g16/g16
 Input=charge-conf-669.com
 Output=charge-conf-669.log
 Initial command:
 /opt/software/Gaussian/g16-AVX2-C.01/g16/l1.exe "/mnt/gs18/scratch/users/kengmith/Gau-6066.inp" -scrdir="/mnt/gs18/scratch/users/kengmith/"
 Entering Link 1 = /opt/software/Gaussian/g16-AVX2-C.01/g16/l1.exe PID=      6076.
  
 Copyright (c) 1988-2019, Gaussian, Inc.  All Rights Reserved.
  
 This is part of the Gaussian(R) 16 program.  It is based on
 the Gaussian(R) 09 system (copyright 2009, Gaussian, Inc.),
 the Gaussian(R) 03 system (copyright 2003, Gaussian, Inc.),
 the Gaussian(R) 98 system (copyright 1998, Gaussian, Inc.),
 the Gaussian(R) 94 system (copyright 1995, Gaussian, Inc.),
 the Gaussian 92(TM) system (copyright 1992, Gaussian, Inc.),
 the Gaussian 90(TM) system (copyright 1990, Gaussian, Inc.),
 the Gaussian 88(TM) system (copyright 1988, Gaussian, Inc.),
 the Gaussian 86(TM) system (copyright 1986, Carnegie Mellon
 University), and the Gaussian 82(TM) system (copyright 1983,
 Carnegie Mellon University). Gaussian is a federally registered
 trademark of Gaussian, Inc.
  
 This software contains proprietary and confidential information,
 including trade secrets, belonging to Gaussian, Inc.
  
 This software is provided under written license and may be
 used, copied, transmitted, or stored only in accord with that
 written license.
  
 The following legend is applicable only to US Government
 contracts under FAR:
  
                    RESTRICTED RIGHTS LEGEND
  
 Use, reproduction and disclosure by the US Government is
 subject to restrictions as set forth in subparagraphs (a)
 and (c) of the Commercial Computer Software - Restricted
 Rights clause in FAR 52.227-19.
  
 Gaussian, Inc.
 340 Quinnipiac St., Bldg. 40, Wallingford CT 06492
  
  
 ---------------------------------------------------------------
 Warning -- This program may not be used in any manner that
 competes with the business of Gaussian, Inc. or will provide
 assistance to any competitor of Gaussian, Inc.  The licensee
 of this program is prohibited from giving any competitor of
 Gaussian, Inc. access to this program.  By using this program,
 the user acknowledges that Gaussian, Inc. is engaged in the
 business of creating and licensing software in the field of
 computational chemistry and represents and warrants to the
 licensee that it is not a competitor of Gaussian, Inc. and that
 it will not use this program in any manner prohibited above.
 ---------------------------------------------------------------
  

 Cite this work as:
 Gaussian 16, Revision C.01,
 M. J. Frisch, G. W. Trucks, H. B. Schlegel, G. E. Scuseria, 
 M. A. Robb, J. R. Cheeseman, G. Scalmani, V. Barone, 
 G. A. Petersson, H. Nakatsuji, X. Li, M. Caricato, A. V. Marenich, 
 J. Bloino, B. G. Janesko, R. Gomperts, B. Mennucci, H. P. Hratchian, 
 J. V. Ortiz, A. F. Izmaylov, J. L. Sonnenberg, D. Williams-Young, 
 F. Ding, F. Lipparini, F. Egidi, J. Goings, B. Peng, A. Petrone, 
 T. Henderson, D. Ranasinghe, V. G. Zakrzewski, J. Gao, N. Rega, 
 G. Zheng, W. Liang, M. Hada, M. Ehara, K. Toyota, R. Fukuda, 
 J. Hasegawa, M. Ishida, T. Nakajima, Y. Honda, O. Kitao, H. Nakai, 
 T. Vreven, K. Throssell, J. A. Montgomery, Jr., J. E. Peralta, 
 F. Ogliaro, M. J. Bearpark, J. J. Heyd, E. N. Brothers, K. N. Kudin, 
 V. N. Staroverov, T. A. Keith, R. Kobayashi, J. Normand, 
 K. Raghavachari, A. P. Rendell, J. C. Burant, S. S. Iyengar, 
 J. Tomasi, M. Cossi, J. M. Millam, M. Klene, C. Adamo, R. Cammi, 
 J. W. Ochterski, R. L. Martin, K. Morokuma, O. Farkas, 
 J. B. Foresman, and D. J. Fox, Gaussian, Inc., Wallingford CT, 2019.
 
 ******************************************
 Gaussian 16:  ES64L-G16RevC.01  3-Jul-2019
                27-May-2022 
 ******************************************
 %mem=8gb
 %nproc=4
 Will use up to    4 processors via shared memory.
 %chk=conf-669.chk
 ----------------------------------------------------------------------
 # B3LYP/6-31G* empiricaldispersion=gd3 guess=read geom=check nosymm in
 tegral(ultrafinegrid)
 ----------------------------------------------------------------------
 1/29=2,38=1,172=1/1;
 2/12=2,15=1,40=1/2;
 3/5=1,6=6,7=1,11=2,14=-4,25=1,30=1,74=-5,75=-5,116=-2,124=31/1,2,3;
 4/5=1/1;
 5/5=2,38=6/2;
 6/7=2,8=2,9=2,10=2,28=1/1;
 99/5=1,9=1/99;
 ------------------------------------------------------
 Candidate Structure: Conf:669 Charge calc in gas phase
 ------------------------------------------------------
 Structure from the checkpoint file:  "conf-669.chk"
 Charge =  1 Multiplicity = 1
 Redundant internal coordinates found in file.  (old form).
 N,0,8.8077283296,33.0168072337,13.6894007127
 C,0,8.3486322606,34.2376050122,12.9170476966
 C,0,6.918047062,34.1209745333,12.3437323156
 O,0,6.078921079,34.9159311132,12.7478420355
 C,0,9.3421643486,34.6723185438,11.8321808248
 C,0,10.7456973237,35.0908458539,12.319439154
 C,0,11.6853954745,33.914595089,12.5800906413
 O,0,12.653840849,33.733072367,11.8060594471
 O,0,11.4188729367,33.1447859579,13.5786829112
 H,0,8.6185945338,32.14076056,13.1932600492
 H,0,8.2719414636,35.0243928114,13.6697838241
 H,0,9.4236318667,33.9328619836,11.0329050565
 H,0,8.8737433966,35.5436114815,11.3608162055
 H,0,10.6653097666,35.685408446,13.2387946259
 H,0,11.2060019451,35.7164024213,11.5523321404
 H,0,9.8790354554,33.0819179901,13.8479684652
 H,0,8.2950442606,32.9302349493,14.5729892191
 N,0,6.6603581408,33.2710837446,11.3078011511
 C,0,7.2527101846,32.0094082487,10.8928960113
 C,0,6.9814086605,31.8780182462,9.3813364544
 O,0,5.9329200686,32.3311695416,8.9411752404
 C,0,6.5306575267,30.7981808957,11.5741916515
 C,0,6.586258118,30.8187532959,13.071858691
 C,0,5.9458187105,31.7017397232,13.9129052513
 C,0,7.3663595739,29.9404472516,13.9172549562
 C,0,7.1820698333,30.3721586974,15.2594860071
 C,0,8.1492644955,28.7972103666,13.6740978906
 N,0,6.3475279426,31.4806070145,15.2221206792
 C,0,7.7697918917,29.7182571366,16.3468289832
 C,0,8.7193864578,28.1327017274,14.7523863303
 C,0,8.539490556,28.5930827476,16.0739105332
 H,0,5.7546591824,33.4315463594,10.8704624482
 H,0,8.3208602759,31.9960803993,11.1155585416
 H,0,6.9743074073,29.8712483911,11.1920607308
 H,0,5.4944701515,30.8177567592,11.2187131231
 H,0,5.254191047,32.5006504095,13.6864168411
 H,0,5.8637477769,31.8541607708,16.027271885
 H,0,8.2838740916,28.4226247455,12.6628331643
 H,0,7.6118507253,30.0602975886,17.3656560978
 H,0,9.3094787969,27.2375887721,14.5789878277
 H,0,8.9951011026,28.048322297,16.8952477666
 N,0,7.8134019669,31.1259547683,8.6033640508
 C,0,9.2100810789,30.7482024542,8.7815929613
 C,0,10.0666592779,31.9238114209,9.2666905954
 O,0,9.7230509325,33.077865746,9.0308878813
 C,0,9.7380777987,30.271049047,7.3768410046
 C,0,9.8457470257,31.3916158293,6.3429410803
 O,0,10.9580094185,29.570213192,7.51387534
 H,0,11.6949183593,30.2022983796,7.4967593346
 H,0,7.4678036026,31.1041157003,7.6499547024
 H,0,9.30092078,29.8885994127,9.4517878059
 H,0,9.0137371673,29.5202594594,7.0369793877
 H,0,10.6027877293,32.1258250116,6.6411440445
 H,0,8.9075729779,31.9386498112,6.2121523485
 H,0,10.1339404212,30.9599298727,5.380646281
 N,0,11.2855339831,31.6725181774,9.8560412527
 C,0,11.7307971892,30.5786985008,10.740500141
 C,0,12.0418660906,29.2732833467,10.0021718021
 O,0,13.0825649545,29.0750023558,9.4216873805
 C,0,10.8428430732,30.4071496764,11.9805463116
 C,0,11.4177058029,29.4917582593,13.0799947171
 C,0,12.9231743142,29.61851934,13.3475702209
 N,0,13.3395526302,31.0144693052,13.5277395315
 C,0,14.6026145025,31.419787145,13.3674350131
 N,0,15.6141133777,30.5343094377,13.4852080287
 N,0,14.8471706233,32.6960547026,13.0692441031
 O,0,11.0583593608,28.3536681427,10.1257594045
 H,0,11.2861175541,27.6203824498,9.5219871452
 H,0,11.7557837245,32.548184062,10.0856595727
 H,0,12.7111920264,30.9288004642,11.0651381128
 H,0,9.8601439249,30.0243565351,11.6902710792
 H,0,10.7052669212,31.4078284285,12.3893528086
 H,0,10.8664100141,29.6802315369,14.0053940147
 H,0,11.233297275,28.4439839804,12.8229323646
 H,0,13.1638104178,29.0269349359,14.2412881155
 H,0,13.4953407233,29.194866644,12.5122588403
 H,0,12.6221563274,31.7589474796,13.5921622026
 H,0,16.5546045004,30.7813542933,13.2154188236
 H,0,15.4848772072,29.6569230952,13.966007814
 H,0,14.089741224,33.2306374914,12.6000937128
 H,0,15.7871393807,33.063451352,13.0938231469
 Recover connectivity data from disk.
                           ----------------------------
                           !    Current Parameters    !
                           ! (Angstroms and Degrees)  !
 --------------------------                            --------------------------
 ! Name  Definition              Value                                          !
 --------------------------------------------------------------------------------
 ! R1    R(1,2)                  1.5158                                         !
 ! R2    R(1,10)                 1.0244                                         !
 ! R3    R(1,16)                 1.0849                                         !
 ! R4    R(1,17)                 1.0252                                         !
 ! R5    R(2,3)                  1.5456                                         !
 ! R6    R(2,5)                  1.534                                          !
 ! R7    R(2,11)                 1.0916                                         !
 ! R8    R(3,4)                  1.2245                                         !
 ! R9    R(3,18)                 1.3645                                         !
 ! R10   R(5,6)                  1.5435                                         !
 ! R11   R(5,12)                 1.0919                                         !
 ! R12   R(5,13)                 1.0958                                         !
 ! R13   R(6,7)                  1.5279                                         !
 ! R14   R(6,14)                 1.0978                                         !
 ! R15   R(6,15)                 1.0916                                         !
 ! R16   R(7,8)                  1.253                                          !
 ! R17   R(7,9)                  1.2887                                         !
 ! R18   R(18,19)                1.4543                                         !
 ! R19   R(18,32)                1.0185                                         !
 ! R20   R(19,20)                1.5413                                         !
 ! R21   R(19,22)                1.5661                                         !
 ! R22   R(19,33)                1.0912                                         !
 ! R23   R(20,21)                1.2241                                         !
 ! R24   R(20,42)                1.3649                                         !
 ! R25   R(22,23)                1.4988                                         !
 ! R26   R(22,34)                1.0964                                         !
 ! R27   R(22,35)                1.0956                                         !
 ! R28   R(23,24)                1.3774                                         !
 ! R29   R(23,25)                1.4473                                         !
 ! R30   R(24,28)                1.3872                                         !
 ! R31   R(24,36)                1.0807                                         !
 ! R32   R(25,26)                1.4219                                         !
 ! R33   R(25,27)                1.4068                                         !
 ! R34   R(26,28)                1.388                                          !
 ! R35   R(26,29)                1.3983                                         !
 ! R36   R(27,30)                1.389                                          !
 ! R37   R(27,38)                1.0868                                         !
 ! R38   R(28,37)                1.0109                                         !
 ! R39   R(29,31)                1.3903                                         !
 ! R40   R(29,39)                1.0863                                         !
 ! R41   R(30,31)                1.4109                                         !
 ! R42   R(30,40)                1.086                                          !
 ! R43   R(31,41)                1.0858                                         !
 ! R44   R(42,43)                1.4578                                         !
 ! R45   R(42,50)                1.0143                                         !
 ! R46   R(43,44)                1.5333                                         !
 ! R47   R(43,46)                1.5747                                         !
 ! R48   R(43,51)                1.0938                                         !
 ! R49   R(44,45)                1.227                                          !
 ! R50   R(44,56)                1.377                                          !
 ! R51   R(46,47)                1.5285                                         !
 ! R52   R(46,48)                1.4136                                         !
 ! R53   R(46,52)                1.0972                                         !
 ! R54   R(47,53)                1.0959                                         !
 ! R55   R(47,54)                1.0939                                         !
 ! R56   R(47,55)                1.0934                                         !
 ! R57   R(48,49)                0.971                                          !
 ! R58   R(56,57)                1.4755                                         !
 ! R59   R(56,69)                1.0201                                         !
 ! R60   R(57,58)                1.5317                                         !
 ! R61   R(57,60)                1.5348                                         !
 ! R62   R(57,70)                1.0905                                         !
 ! R63   R(58,59)                1.208                                          !
 ! R64   R(58,67)                1.3521                                         !
 ! R65   R(60,61)                1.5418                                         !
 ! R66   R(60,71)                1.0938                                         !
 ! R67   R(60,72)                1.0897                                         !
 ! R68   R(61,62)                1.5343                                         !
 ! R69   R(61,73)                1.0935                                         !
 ! R70   R(61,74)                1.0945                                         !
 ! R71   R(62,63)                1.4678                                         !
 ! R72   R(62,75)                1.0985                                         !
 ! R73   R(62,76)                1.0975                                         !
 ! R74   R(63,64)                1.3362                                         !
 ! R75   R(63,77)                1.0359                                         !
 ! R76   R(64,65)                1.3495                                         !
 ! R77   R(64,66)                1.3333                                         !
 ! R78   R(65,78)                1.0091                                         !
 ! R79   R(65,79)                1.0088                                         !
 ! R80   R(66,80)                1.039                                          !
 ! R81   R(66,81)                1.0095                                         !
 ! R82   R(67,68)                0.9768                                         !
 ! A1    A(2,1,10)             112.7089                                         !
 ! A2    A(2,1,16)             108.9781                                         !
 ! A3    A(2,1,17)             110.8361                                         !
 ! A4    A(10,1,16)            107.7233                                         !
 ! A5    A(10,1,17)            104.6478                                         !
 ! A6    A(16,1,17)            111.8944                                         !
 ! A7    A(1,2,3)              114.1148                                         !
 ! A8    A(1,2,5)              113.1059                                         !
 ! A9    A(1,2,11)             104.5021                                         !
 ! A10   A(3,2,5)              111.0108                                         !
 ! A11   A(3,2,11)             104.1909                                         !
 ! A12   A(5,2,11)             109.2045                                         !
 ! A13   A(2,3,4)              117.5733                                         !
 ! A14   A(2,3,18)             120.2261                                         !
 ! A15   A(4,3,18)             121.7019                                         !
 ! A16   A(2,5,6)              116.2655                                         !
 ! A17   A(2,5,12)             111.9687                                         !
 ! A18   A(2,5,13)             104.6366                                         !
 ! A19   A(6,5,12)             110.2952                                         !
 ! A20   A(6,5,13)             107.9927                                         !
 ! A21   A(12,5,13)            104.8025                                         !
 ! A22   A(5,6,7)              113.8502                                         !
 ! A23   A(5,6,14)             110.1593                                         !
 ! A24   A(5,6,15)             108.4799                                         !
 ! A25   A(7,6,14)             108.6091                                         !
 ! A26   A(7,6,15)             107.5597                                         !
 ! A27   A(14,6,15)            107.9994                                         !
 ! A28   A(6,7,8)              118.7834                                         !
 ! A29   A(6,7,9)              117.7004                                         !
 ! A30   A(8,7,9)              123.5031                                         !
 ! A31   A(3,18,19)            132.848                                          !
 ! A32   A(3,18,32)            113.3165                                         !
 ! A33   A(19,18,32)           112.1106                                         !
 ! A34   A(18,19,20)           106.3829                                         !
 ! A35   A(18,19,22)           111.0437                                         !
 ! A36   A(18,19,33)           110.5547                                         !
 ! A37   A(20,19,22)           106.2332                                         !
 ! A38   A(20,19,33)           111.8004                                         !
 ! A39   A(22,19,33)           110.6774                                         !
 ! A40   A(19,20,21)           118.1542                                         !
 ! A41   A(19,20,42)           119.9101                                         !
 ! A42   A(21,20,42)           121.4076                                         !
 ! A43   A(19,22,23)           114.0149                                         !
 ! A44   A(19,22,34)           108.4024                                         !
 ! A45   A(19,22,35)           106.3244                                         !
 ! A46   A(23,22,34)           110.1732                                         !
 ! A47   A(23,22,35)           111.0407                                         !
 ! A48   A(34,22,35)           106.5418                                         !
 ! A49   A(22,23,24)           126.9906                                         !
 ! A50   A(22,23,25)           126.536                                          !
 ! A51   A(24,23,25)           106.4383                                         !
 ! A52   A(23,24,28)           109.8432                                         !
 ! A53   A(23,24,36)           130.054                                          !
 ! A54   A(28,24,36)           120.0641                                         !
 ! A55   A(23,25,26)           107.2938                                         !
 ! A56   A(23,25,27)           133.8023                                         !
 ! A57   A(26,25,27)           118.8168                                         !
 ! A58   A(25,26,28)           107.156                                          !
 ! A59   A(25,26,29)           122.5179                                         !
 ! A60   A(28,26,29)           130.323                                          !
 ! A61   A(25,27,30)           118.8833                                         !
 ! A62   A(25,27,38)           120.6551                                         !
 ! A63   A(30,27,38)           120.4396                                         !
 ! A64   A(24,28,26)           109.0763                                         !
 ! A65   A(24,28,37)           123.6572                                         !
 ! A66   A(26,28,37)           124.1541                                         !
 ! A67   A(26,29,31)           117.2903                                         !
 ! A68   A(26,29,39)           121.3977                                         !
 ! A69   A(31,29,39)           121.2952                                         !
 ! A70   A(27,30,31)           121.2435                                         !
 ! A71   A(27,30,40)           119.5624                                         !
 ! A72   A(31,30,40)           119.1927                                         !
 ! A73   A(29,31,30)           121.2331                                         !
 ! A74   A(29,31,41)           119.3312                                         !
 ! A75   A(30,31,41)           119.4259                                         !
 ! A76   A(20,42,43)           131.0777                                         !
 ! A77   A(20,42,50)           109.8715                                         !
 ! A78   A(43,42,50)           115.8337                                         !
 ! A79   A(42,43,44)           112.0382                                         !
 ! A80   A(42,43,46)           106.8993                                         !
 ! A81   A(42,43,51)           110.9855                                         !
 ! A82   A(44,43,46)           109.1005                                         !
 ! A83   A(44,43,51)           111.2422                                         !
 ! A84   A(46,43,51)           106.297                                          !
 ! A85   A(43,44,45)           120.2574                                         !
 ! A86   A(43,44,56)           119.3389                                         !
 ! A87   A(45,44,56)           120.1178                                         !
 ! A88   A(43,46,47)           113.8842                                         !
 ! A89   A(43,46,48)           110.6778                                         !
 ! A90   A(43,46,52)           105.2069                                         !
 ! A91   A(47,46,48)           111.6084                                         !
 ! A92   A(47,46,52)           109.7941                                         !
 ! A93   A(48,46,52)           105.1001                                         !
 ! A94   A(46,47,53)           110.8396                                         !
 ! A95   A(46,47,54)           112.774                                          !
 ! A96   A(46,47,55)           108.9325                                         !
 ! A97   A(53,47,54)           106.8552                                         !
 ! A98   A(53,47,55)           108.7786                                         !
 ! A99   A(54,47,55)           108.5595                                         !
 ! A100  A(46,48,49)           109.2993                                         !
 ! A101  A(44,56,57)           131.2218                                         !
 ! A102  A(44,56,69)           110.3482                                         !
 ! A103  A(57,56,69)           111.2429                                         !
 ! A104  A(56,57,58)           113.8388                                         !
 ! A105  A(56,57,60)           113.116                                          !
 ! A106  A(56,57,70)           102.2256                                         !
 ! A107  A(58,57,60)           114.3119                                         !
 ! A108  A(58,57,70)           103.5648                                         !
 ! A109  A(60,57,70)           108.391                                          !
 ! A110  A(57,58,59)           123.1261                                         !
 ! A111  A(57,58,67)           112.8223                                         !
 ! A112  A(59,58,67)           123.9806                                         !
 ! A113  A(57,60,61)           115.2641                                         !
 ! A114  A(57,60,71)           110.1494                                         !
 ! A115  A(57,60,72)           105.8734                                         !
 ! A116  A(61,60,71)           108.447                                          !
 ! A117  A(61,60,72)           108.9515                                         !
 ! A118  A(71,60,72)           107.9087                                         !
 ! A119  A(60,61,62)           116.1771                                         !
 ! A120  A(60,61,73)           108.2493                                         !
 ! A121  A(60,61,74)           109.759                                          !
 ! A122  A(62,61,73)           109.4416                                         !
 ! A123  A(62,61,74)           106.5811                                         !
 ! A124  A(73,61,74)           106.1892                                         !
 ! A125  A(61,62,63)           112.2295                                         !
 ! A126  A(61,62,75)           108.2006                                         !
 ! A127  A(61,62,76)           110.2978                                         !
 ! A128  A(63,62,75)           110.4982                                         !
 ! A129  A(63,62,76)           108.2182                                         !
 ! A130  A(75,62,76)           107.2854                                         !
 ! A131  A(62,63,64)           122.8144                                         !
 ! A132  A(62,63,77)           119.6484                                         !
 ! A133  A(64,63,77)           116.3664                                         !
 ! A134  A(63,64,65)           119.936                                          !
 ! A135  A(63,64,66)           119.3804                                         !
 ! A136  A(65,64,66)           120.6737                                         !
 ! A137  A(64,65,78)           120.9708                                         !
 ! A138  A(64,65,79)           121.0817                                         !
 ! A139  A(78,65,79)           117.37                                           !
 ! A140  A(64,66,80)           117.373                                          !
 ! A141  A(64,66,81)           120.912                                          !
 ! A142  A(80,66,81)           120.1659                                         !
 ! A143  A(58,67,68)           106.5275                                         !
 ! D1    D(10,1,2,3)            47.1319                                         !
 ! D2    D(10,1,2,5)           -81.0436                                         !
 ! D3    D(10,1,2,11)          160.2868                                         !
 ! D4    D(16,1,2,3)           166.6627                                         !
 ! D5    D(16,1,2,5)            38.4872                                         !
 ! D6    D(16,1,2,11)          -80.1824                                         !
 ! D7    D(17,1,2,3)           -69.7774                                         !
 ! D8    D(17,1,2,5)           162.047                                          !
 ! D9    D(17,1,2,11)           43.3774                                         !
 ! D10   D(1,2,3,4)            117.4648                                         !
 ! D11   D(1,2,3,18)           -70.498                                          !
 ! D12   D(5,2,3,4)           -113.3001                                         !
 ! D13   D(5,2,3,18)            58.7371                                         !
 ! D14   D(11,2,3,4)             4.1246                                         !
 ! D15   D(11,2,3,18)          176.1618                                         !
 ! D16   D(1,2,5,6)            -61.6605                                         !
 ! D17   D(1,2,5,12)            66.3745                                         !
 ! D18   D(1,2,5,13)           179.3342                                         !
 ! D19   D(3,2,5,6)            168.5695                                         !
 ! D20   D(3,2,5,12)           -63.3956                                         !
 ! D21   D(3,2,5,13)            49.5641                                         !
 ! D22   D(11,2,5,6)            54.2468                                         !
 ! D23   D(11,2,5,12)         -177.7182                                         !
 ! D24   D(11,2,5,13)          -64.7585                                         !
 ! D25   D(2,3,18,19)           30.0989                                         !
 ! D26   D(2,3,18,32)         -166.3985                                         !
 ! D27   D(4,3,18,19)         -158.1997                                         !
 ! D28   D(4,3,18,32)            5.3029                                         !
 ! D29   D(2,5,6,7)             81.6285                                         !
 ! D30   D(2,5,6,14)           -40.6461                                         !
 ! D31   D(2,5,6,15)          -158.6651                                         !
 ! D32   D(12,5,6,7)           -47.2213                                         !
 ! D33   D(12,5,6,14)         -169.496                                          !
 ! D34   D(12,5,6,15)           72.4851                                         !
 ! D35   D(13,5,6,7)          -161.2074                                         !
 ! D36   D(13,5,6,14)           76.518                                          !
 ! D37   D(13,5,6,15)          -41.501                                          !
 ! D38   D(5,6,7,8)            109.9741                                         !
 ! D39   D(5,6,7,9)            -68.7593                                         !
 ! D40   D(14,6,7,8)          -126.9016                                         !
 ! D41   D(14,6,7,9)            54.3649                                         !
 ! D42   D(15,6,7,8)           -10.2514                                         !
 ! D43   D(15,6,7,9)           171.0151                                         !
 ! D44   D(3,18,19,20)        -155.3047                                         !
 ! D45   D(3,18,19,22)          89.525                                          !
 ! D46   D(3,18,19,33)         -33.7274                                         !
 ! D47   D(32,18,19,20)         41.0439                                         !
 ! D48   D(32,18,19,22)        -74.1264                                         !
 ! D49   D(32,18,19,33)        162.6212                                         !
 ! D50   D(18,19,20,21)        -34.0863                                         !
 ! D51   D(18,19,20,42)        154.1303                                         !
 ! D52   D(22,19,20,21)         84.3                                            !
 ! D53   D(22,19,20,42)        -87.4834                                         !
 ! D54   D(33,19,20,21)       -154.8661                                         !
 ! D55   D(33,19,20,42)         33.3506                                         !
 ! D56   D(18,19,22,23)        -59.8637                                         !
 ! D57   D(18,19,22,34)        177.0353                                         !
 ! D58   D(18,19,22,35)         62.8238                                         !
 ! D59   D(20,19,22,23)       -175.1269                                         !
 ! D60   D(20,19,22,34)         61.772                                          !
 ! D61   D(20,19,22,35)        -52.4395                                         !
 ! D62   D(33,19,22,23)         63.3183                                         !
 ! D63   D(33,19,22,34)        -59.7828                                         !
 ! D64   D(33,19,22,35)       -173.9943                                         !
 ! D65   D(19,20,42,43)        -24.6032                                         !
 ! D66   D(19,20,42,50)        177.0058                                         !
 ! D67   D(21,20,42,43)        163.8869                                         !
 ! D68   D(21,20,42,50)          5.4959                                         !
 ! D69   D(19,22,23,24)         69.0674                                         !
 ! D70   D(19,22,23,25)       -108.4826                                         !
 ! D71   D(34,22,23,24)       -168.7999                                         !
 ! D72   D(34,22,23,25)         13.65                                           !
 ! D73   D(35,22,23,24)        -51.0042                                         !
 ! D74   D(35,22,23,25)        131.4457                                         !
 ! D75   D(22,23,24,28)       -174.1231                                         !
 ! D76   D(22,23,24,36)          3.5687                                         !
 ! D77   D(25,23,24,28)          3.8247                                         !
 ! D78   D(25,23,24,36)       -178.4835                                         !
 ! D79   D(22,23,25,26)        176.3322                                         !
 ! D80   D(22,23,25,27)         -7.2297                                         !
 ! D81   D(24,23,25,26)         -1.6278                                         !
 ! D82   D(24,23,25,27)        174.8104                                         !
 ! D83   D(23,24,28,26)         -4.669                                          !
 ! D84   D(23,24,28,37)       -165.3927                                         !
 ! D85   D(36,24,28,26)        177.3723                                         !
 ! D86   D(36,24,28,37)         16.6486                                         !
 ! D87   D(23,25,26,28)         -1.1312                                         !
 ! D88   D(23,25,26,29)        178.2836                                         !
 ! D89   D(27,25,26,28)       -178.1978                                         !
 ! D90   D(27,25,26,29)          1.217                                          !
 ! D91   D(23,25,27,30)       -176.3657                                         !
 ! D92   D(23,25,27,38)          1.9346                                         !
 ! D93   D(26,25,27,30)         -0.2477                                         !
 ! D94   D(26,25,27,38)        178.0526                                         !
 ! D95   D(25,26,28,24)          3.4939                                         !
 ! D96   D(25,26,28,37)        164.1004                                         !
 ! D97   D(29,26,28,24)       -175.8588                                         !
 ! D98   D(29,26,28,37)        -15.2523                                         !
 ! D99   D(25,26,29,31)         -1.1023                                         !
 ! D100  D(25,26,29,39)       -179.6267                                         !
 ! D101  D(28,26,29,31)        178.1643                                         !
 ! D102  D(28,26,29,39)         -0.3601                                         !
 ! D103  D(25,27,30,31)         -0.7721                                         !
 ! D104  D(25,27,30,40)        178.7891                                         !
 ! D105  D(38,27,30,31)       -179.0762                                         !
 ! D106  D(38,27,30,40)          0.4851                                         !
 ! D107  D(26,29,31,30)          0.0502                                         !
 ! D108  D(26,29,31,41)       -178.797                                          !
 ! D109  D(39,29,31,30)        178.5762                                         !
 ! D110  D(39,29,31,41)         -0.271                                          !
 ! D111  D(27,30,31,29)          0.8925                                         !
 ! D112  D(27,30,31,41)        179.7386                                         !
 ! D113  D(40,30,31,29)       -178.6704                                         !
 ! D114  D(40,30,31,41)          0.1758                                         !
 ! D115  D(20,42,43,44)        -43.2669                                         !
 ! D116  D(20,42,43,46)       -162.7348                                         !
 ! D117  D(20,42,43,51)         81.7565                                         !
 ! D118  D(50,42,43,44)        114.1019                                         !
 ! D119  D(50,42,43,46)         -5.366                                          !
 ! D120  D(50,42,43,51)       -120.8748                                         !
 ! D121  D(42,43,44,45)        -25.1781                                         !
 ! D122  D(42,43,44,56)        160.9562                                         !
 ! D123  D(46,43,44,45)         92.9896                                         !
 ! D124  D(46,43,44,56)        -80.876                                          !
 ! D125  D(51,43,44,45)       -150.0596                                         !
 ! D126  D(51,43,44,56)         36.0747                                         !
 ! D127  D(42,43,46,47)         68.3426                                         !
 ! D128  D(42,43,46,48)       -164.9586                                         !
 ! D129  D(42,43,46,52)        -51.9331                                         !
 ! D130  D(44,43,46,47)        -53.004                                          !
 ! D131  D(44,43,46,48)         73.6949                                         !
 ! D132  D(44,43,46,52)       -173.2797                                         !
 ! D133  D(51,43,46,47)       -173.0513                                         !
 ! D134  D(51,43,46,48)        -46.3524                                         !
 ! D135  D(51,43,46,52)         66.673                                          !
 ! D136  D(43,44,56,57)        -35.6154                                         !
 ! D137  D(43,44,56,69)        177.3829                                         !
 ! D138  D(45,44,56,57)        150.5102                                         !
 ! D139  D(45,44,56,69)          3.5085                                         !
 ! D140  D(43,46,47,53)         65.2215                                         !
 ! D141  D(43,46,47,54)        -54.5336                                         !
 ! D142  D(43,46,47,55)       -175.1276                                         !
 ! D143  D(48,46,47,53)        -60.9902                                         !
 ! D144  D(48,46,47,54)        179.2547                                         !
 ! D145  D(48,46,47,55)         58.6607                                         !
 ! D146  D(52,46,47,53)       -177.1165                                         !
 ! D147  D(52,46,47,54)         63.1284                                         !
 ! D148  D(52,46,47,55)        -57.4655                                         !
 ! D149  D(43,46,48,49)        -87.1589                                         !
 ! D150  D(47,46,48,49)         40.7914                                         !
 ! D151  D(52,46,48,49)        159.7477                                         !
 ! D152  D(44,56,57,58)         78.4849                                         !
 ! D153  D(44,56,57,60)        -54.2037                                         !
 ! D154  D(44,56,57,70)       -170.5308                                         !
 ! D155  D(69,56,57,58)       -134.735                                          !
 ! D156  D(69,56,57,60)         92.5764                                         !
 ! D157  D(69,56,57,70)        -23.7506                                         !
 ! D158  D(56,57,58,59)         80.4373                                         !
 ! D159  D(56,57,58,67)       -102.5173                                         !
 ! D160  D(60,57,58,59)       -147.4494                                         !
 ! D161  D(60,57,58,67)         29.5961                                         !
 ! D162  D(70,57,58,59)        -29.7303                                         !
 ! D163  D(70,57,58,67)        147.3151                                         !
 ! D164  D(56,57,60,61)       -167.6725                                         !
 ! D165  D(56,57,60,71)         69.2434                                         !
 ! D166  D(56,57,60,72)        -47.1717                                         !
 ! D167  D(58,57,60,61)         59.869                                          !
 ! D168  D(58,57,60,71)        -63.2151                                         !
 ! D169  D(58,57,60,72)       -179.6302                                         !
 ! D170  D(70,57,60,61)        -55.0557                                         !
 ! D171  D(70,57,60,71)       -178.1397                                         !
 ! D172  D(70,57,60,72)         65.4451                                         !
 ! D173  D(57,58,67,68)        171.8886                                         !
 ! D174  D(59,58,67,68)        -11.0953                                         !
 ! D175  D(57,60,61,62)         39.7175                                         !
 ! D176  D(57,60,61,73)        163.2641                                         !
 ! D177  D(57,60,61,74)        -81.2436                                         !
 ! D178  D(71,60,61,62)        163.7011                                         !
 ! D179  D(71,60,61,73)        -72.7523                                         !
 ! D180  D(71,60,61,74)         42.74                                           !
 ! D181  D(72,60,61,62)        -79.0874                                         !
 ! D182  D(72,60,61,73)         44.4592                                         !
 ! D183  D(72,60,61,74)        159.9515                                         !
 ! D184  D(60,61,62,63)         49.6161                                         !
 ! D185  D(60,61,62,75)        171.7969                                         !
 ! D186  D(60,61,62,76)        -71.1318                                         !
 ! D187  D(73,61,62,63)        -73.3095                                         !
 ! D188  D(73,61,62,75)         48.8713                                         !
 ! D189  D(73,61,62,76)        165.9426                                         !
 ! D190  D(74,61,62,63)        172.2596                                         !
 ! D191  D(74,61,62,75)        -65.5596                                         !
 ! D192  D(74,61,62,76)         51.5117                                         !
 ! D193  D(61,62,63,64)       -159.0734                                         !
 ! D194  D(61,62,63,77)          8.1042                                         !
 ! D195  D(75,62,63,64)         80.0614                                         !
 ! D196  D(75,62,63,77)       -112.761                                          !
 ! D197  D(76,62,63,64)        -37.1325                                         !
 ! D198  D(76,62,63,77)        130.0451                                         !
 ! D199  D(62,63,64,65)        -22.8531                                         !
 ! D200  D(62,63,64,66)        156.0132                                         !
 ! D201  D(77,63,64,65)        169.5782                                         !
 ! D202  D(77,63,64,66)        -11.5556                                         !
 ! D203  D(63,64,65,78)        169.4762                                         !
 ! D204  D(63,64,65,79)        -19.4667                                         !
 ! D205  D(66,64,65,78)         -9.3751                                         !
 ! D206  D(66,64,65,79)        161.6819                                         !
 ! D207  D(63,64,66,80)        -24.4488                                         !
 ! D208  D(63,64,66,81)        169.7234                                         !
 ! D209  D(65,64,66,80)        154.4089                                         !
 ! D210  D(65,64,66,81)        -11.4189                                         !
 --------------------------------------------------------------------------------
 Symmetry turned off by external request.
 Stoichiometry    C26H39N8O8(1+)
 Framework group  C1[X(C26H39N8O8)]
 Deg. of freedom   237
 Full point group                 C1      NOp   1
                          Input orientation:                          
 ---------------------------------------------------------------------
 Center     Atomic      Atomic             Coordinates (Angstroms)
 Number     Number       Type             X           Y           Z
 ---------------------------------------------------------------------
      1          7           0        8.807728   33.016807   13.689401
      2          6           0        8.348632   34.237605   12.917048
      3          6           0        6.918047   34.120975   12.343732
      4          8           0        6.078921   34.915931   12.747842
      5          6           0        9.342164   34.672319   11.832181
      6          6           0       10.745697   35.090846   12.319439
      7          6           0       11.685395   33.914595   12.580091
      8          8           0       12.653841   33.733072   11.806059
      9          8           0       11.418873   33.144786   13.578683
     10          1           0        8.618595   32.140761   13.193260
     11          1           0        8.271941   35.024393   13.669784
     12          1           0        9.423632   33.932862   11.032905
     13          1           0        8.873743   35.543611   11.360816
     14          1           0       10.665310   35.685408   13.238795
     15          1           0       11.206002   35.716402   11.552332
     16          1           0        9.879035   33.081918   13.847968
     17          1           0        8.295044   32.930235   14.572989
     18          7           0        6.660358   33.271084   11.307801
     19          6           0        7.252710   32.009408   10.892896
     20          6           0        6.981409   31.878018    9.381336
     21          8           0        5.932920   32.331170    8.941175
     22          6           0        6.530658   30.798181   11.574192
     23          6           0        6.586258   30.818753   13.071859
     24          6           0        5.945819   31.701740   13.912905
     25          6           0        7.366360   29.940447   13.917255
     26          6           0        7.182070   30.372159   15.259486
     27          6           0        8.149264   28.797210   13.674098
     28          7           0        6.347528   31.480607   15.222121
     29          6           0        7.769792   29.718257   16.346829
     30          6           0        8.719386   28.132702   14.752386
     31          6           0        8.539491   28.593083   16.073911
     32          1           0        5.754659   33.431546   10.870462
     33          1           0        8.320860   31.996080   11.115559
     34          1           0        6.974307   29.871248   11.192061
     35          1           0        5.494470   30.817757   11.218713
     36          1           0        5.254191   32.500650   13.686417
     37          1           0        5.863748   31.854161   16.027272
     38          1           0        8.283874   28.422625   12.662833
     39          1           0        7.611851   30.060298   17.365656
     40          1           0        9.309479   27.237589   14.578988
     41          1           0        8.995101   28.048322   16.895248
     42          7           0        7.813402   31.125955    8.603364
     43          6           0        9.210081   30.748202    8.781593
     44          6           0       10.066659   31.923811    9.266691
     45          8           0        9.723051   33.077866    9.030888
     46          6           0        9.738078   30.271049    7.376841
     47          6           0        9.845747   31.391616    6.342941
     48          8           0       10.958009   29.570213    7.513875
     49          1           0       11.694918   30.202298    7.496759
     50          1           0        7.467804   31.104116    7.649955
     51          1           0        9.300921   29.888599    9.451788
     52          1           0        9.013737   29.520259    7.036979
     53          1           0       10.602788   32.125825    6.641144
     54          1           0        8.907573   31.938650    6.212152
     55          1           0       10.133940   30.959930    5.380646
     56          7           0       11.285534   31.672518    9.856041
     57          6           0       11.730797   30.578699   10.740500
     58          6           0       12.041866   29.273283   10.002172
     59          8           0       13.082565   29.075002    9.421687
     60          6           0       10.842843   30.407150   11.980546
     61          6           0       11.417706   29.491758   13.079995
     62          6           0       12.923174   29.618519   13.347570
     63          7           0       13.339553   31.014469   13.527740
     64          6           0       14.602615   31.419787   13.367435
     65          7           0       15.614113   30.534309   13.485208
     66          7           0       14.847171   32.696055   13.069244
     67          8           0       11.058359   28.353668   10.125759
     68          1           0       11.286118   27.620382    9.521987
     69          1           0       11.755784   32.548184   10.085660
     70          1           0       12.711192   30.928800   11.065138
     71          1           0        9.860144   30.024357   11.690271
     72          1           0       10.705267   31.407828   12.389353
     73          1           0       10.866410   29.680232   14.005394
     74          1           0       11.233297   28.443984   12.822932
     75          1           0       13.163810   29.026935   14.241288
     76          1           0       13.495341   29.194867   12.512259
     77          1           0       12.622156   31.758947   13.592162
     78          1           0       16.554605   30.781354   13.215419
     79          1           0       15.484877   29.656923   13.966008
     80          1           0       14.089741   33.230637   12.600094
     81          1           0       15.787139   33.063451   13.093823
 ---------------------------------------------------------------------
 Rotational constants (GHZ):           0.0927648           0.0799516           0.0653522
 Standard basis: 6-31G(d) (6D, 7F)
   708 basis functions,  1332 primitive gaussians,   708 cartesian basis functions
   157 alpha electrons      157 beta electrons
       nuclear repulsion energy      5824.3901089613 Hartrees.
 NAtoms=   81 NActive=   81 NUniq=   81 SFac= 1.00D+00 NAtFMM=   60 NAOKFM=T Big=T
 Integral buffers will be    131072 words long.
 Raffenetti 2 integral format.
 Two-electron integral symmetry is turned off.
 Nuclear repulsion after empirical dispersion term =     5824.2529495107 Hartrees.
 One-electron integrals computed using PRISM.
 NBasis=   708 RedAO= T EigKep=  3.68D-04  NBF=   708
 NBsUse=   708 1.00D-06 EigRej= -1.00D+00 NBFU=   708
 Initial guess from the checkpoint file:  "conf-669.chk"
 B after Tr=     0.000000    0.000000    0.000000
         Rot=    1.000000    0.000000    0.000000    0.000000 Ang=   0.00 deg.
 Requested convergence on RMS density matrix=1.00D-08 within 128 cycles.
 Requested convergence on MAX density matrix=1.00D-06.
 Requested convergence on             energy=1.00D-06.
 No special actions if energy rises.
 SCF Done:  E(RB3LYP) =  -2054.06612500     A.U. after    3 cycles
            NFock=  3  Conv=0.89D-09     -V/T= 2.0093

 **********************************************************************

            Population analysis using the SCF Density.

 **********************************************************************

 Alpha  occ. eigenvalues --  -19.29876 -19.24432 -19.23887 -19.23065 -19.22111
 Alpha  occ. eigenvalues --  -19.21744 -19.21432 -19.20983 -14.54472 -14.50462
 Alpha  occ. eigenvalues --  -14.48997 -14.48463 -14.47863 -14.46500 -14.45705
 Alpha  occ. eigenvalues --  -14.45624 -10.45521 -10.42252 -10.39818 -10.39559
 Alpha  occ. eigenvalues --  -10.39315 -10.38621 -10.36368 -10.34916 -10.34892
 Alpha  occ. eigenvalues --  -10.34858 -10.34579 -10.33623 -10.32655 -10.32490
 Alpha  occ. eigenvalues --  -10.30358 -10.30128 -10.30109 -10.30083 -10.29344
 Alpha  occ. eigenvalues --  -10.29305 -10.29223 -10.29029 -10.28911 -10.28636
 Alpha  occ. eigenvalues --  -10.28350 -10.26621  -1.20633  -1.15561  -1.14443
 Alpha  occ. eigenvalues --   -1.14064  -1.13883  -1.13039  -1.12154  -1.11733
 Alpha  occ. eigenvalues --   -1.09825  -1.08575  -1.06221  -1.03518  -1.02642
 Alpha  occ. eigenvalues --   -1.02455  -1.02113  -1.01971  -0.94346  -0.91527
 Alpha  occ. eigenvalues --   -0.91312  -0.90487  -0.87340  -0.86098  -0.85574
 Alpha  occ. eigenvalues --   -0.83937  -0.83048  -0.82201  -0.81019  -0.79883
 Alpha  occ. eigenvalues --   -0.77308  -0.76650  -0.74102  -0.73691  -0.72779
 Alpha  occ. eigenvalues --   -0.72509  -0.71510  -0.71272  -0.70677  -0.69642
 Alpha  occ. eigenvalues --   -0.69337  -0.68540  -0.67896  -0.66869  -0.66142
 Alpha  occ. eigenvalues --   -0.65837  -0.64189  -0.63873  -0.63513  -0.62716
 Alpha  occ. eigenvalues --   -0.62521  -0.61123  -0.60716  -0.59856  -0.59686
 Alpha  occ. eigenvalues --   -0.59180  -0.58872  -0.58561  -0.58216  -0.57895
 Alpha  occ. eigenvalues --   -0.57419  -0.56903  -0.56536  -0.56039  -0.55609
 Alpha  occ. eigenvalues --   -0.55192  -0.54994  -0.54466  -0.54060  -0.53903
 Alpha  occ. eigenvalues --   -0.53774  -0.53425  -0.52866  -0.52746  -0.52356
 Alpha  occ. eigenvalues --   -0.52053  -0.51441  -0.51229  -0.50914  -0.50570
 Alpha  occ. eigenvalues --   -0.50228  -0.50004  -0.49423  -0.49025  -0.48447
 Alpha  occ. eigenvalues --   -0.47845  -0.47745  -0.47371  -0.46980  -0.46740
 Alpha  occ. eigenvalues --   -0.46399  -0.46251  -0.46081  -0.45722  -0.45544
 Alpha  occ. eigenvalues --   -0.45054  -0.44466  -0.43700  -0.43569  -0.42422
 Alpha  occ. eigenvalues --   -0.41786  -0.41029  -0.38789  -0.38376  -0.38234
 Alpha  occ. eigenvalues --   -0.38115  -0.37501  -0.37325  -0.36231  -0.35913
 Alpha  occ. eigenvalues --   -0.35659  -0.35168  -0.34861  -0.34822  -0.34085
 Alpha  occ. eigenvalues --   -0.32999  -0.31034
 Alpha virt. eigenvalues --   -0.12021  -0.10585  -0.10144  -0.09874  -0.09837
 Alpha virt. eigenvalues --   -0.08488  -0.07785  -0.07512  -0.06305  -0.05945
 Alpha virt. eigenvalues --   -0.04558  -0.03579  -0.02638  -0.02204  -0.01784
 Alpha virt. eigenvalues --   -0.00975  -0.00772  -0.00158   0.00050   0.00796
 Alpha virt. eigenvalues --    0.00955   0.01526   0.01893   0.02609   0.02726
 Alpha virt. eigenvalues --    0.03238   0.03425   0.04268   0.04602   0.04753
 Alpha virt. eigenvalues --    0.04963   0.05521   0.05711   0.05832   0.06282
 Alpha virt. eigenvalues --    0.06512   0.07053   0.07146   0.07813   0.08021
 Alpha virt. eigenvalues --    0.08328   0.08521   0.08665   0.08974   0.09461
 Alpha virt. eigenvalues --    0.09620   0.09861   0.10043   0.10476   0.10832
 Alpha virt. eigenvalues --    0.11312   0.11432   0.12156   0.12309   0.12848
 Alpha virt. eigenvalues --    0.12865   0.13502   0.13633   0.14247   0.14945
 Alpha virt. eigenvalues --    0.15086   0.15526   0.15711   0.16206   0.16531
 Alpha virt. eigenvalues --    0.16686   0.17408   0.17913   0.18286   0.18402
 Alpha virt. eigenvalues --    0.19546   0.19922   0.20903   0.21992   0.22662
 Alpha virt. eigenvalues --    0.24098   0.24585   0.25717   0.26396   0.26861
 Alpha virt. eigenvalues --    0.27433   0.28473   0.28811   0.29291   0.30379
 Alpha virt. eigenvalues --    0.30546   0.32122   0.32600   0.33174   0.34328
 Alpha virt. eigenvalues --    0.35963   0.37709   0.38609   0.38829   0.39494
 Alpha virt. eigenvalues --    0.39873   0.40920   0.41276   0.42070   0.42388
 Alpha virt. eigenvalues --    0.42760   0.43514   0.43756   0.43954   0.44520
 Alpha virt. eigenvalues --    0.44841   0.45238   0.45487   0.45935   0.46325
 Alpha virt. eigenvalues --    0.46564   0.46985   0.47195   0.47611   0.47634
 Alpha virt. eigenvalues --    0.48857   0.48948   0.49076   0.49505   0.49830
 Alpha virt. eigenvalues --    0.50240   0.50553   0.50810   0.51030   0.51514
 Alpha virt. eigenvalues --    0.52239   0.52530   0.52691   0.52776   0.53149
 Alpha virt. eigenvalues --    0.53569   0.53884   0.54406   0.55091   0.55263
 Alpha virt. eigenvalues --    0.55534   0.55833   0.56215   0.56913   0.57693
 Alpha virt. eigenvalues --    0.57752   0.58158   0.59085   0.59491   0.59613
 Alpha virt. eigenvalues --    0.60030   0.61112   0.61679   0.62032   0.62806
 Alpha virt. eigenvalues --    0.63074   0.63535   0.64328   0.64670   0.65112
 Alpha virt. eigenvalues --    0.65436   0.66158   0.66774   0.67148   0.67804
 Alpha virt. eigenvalues --    0.69059   0.69625   0.70155   0.70416   0.70807
 Alpha virt. eigenvalues --    0.71074   0.71266   0.71964   0.72443   0.72940
 Alpha virt. eigenvalues --    0.73349   0.73645   0.73805   0.74167   0.74692
 Alpha virt. eigenvalues --    0.75019   0.75106   0.75405   0.75509   0.76354
 Alpha virt. eigenvalues --    0.76508   0.76561   0.77277   0.77736   0.78146
 Alpha virt. eigenvalues --    0.78316   0.78499   0.79032   0.79120   0.79558
 Alpha virt. eigenvalues --    0.79901   0.80667   0.80818   0.80932   0.81143
 Alpha virt. eigenvalues --    0.81551   0.81829   0.82291   0.82841   0.83110
 Alpha virt. eigenvalues --    0.83485   0.83778   0.84084   0.84345   0.85391
 Alpha virt. eigenvalues --    0.85521   0.86280   0.86864   0.87264   0.87482
 Alpha virt. eigenvalues --    0.87996   0.88664   0.89132   0.89473   0.89543
 Alpha virt. eigenvalues --    0.90719   0.91807   0.92000   0.92840   0.92915
 Alpha virt. eigenvalues --    0.93755   0.93989   0.94992   0.95123   0.95806
 Alpha virt. eigenvalues --    0.96138   0.96764   0.97188   0.97698   0.98175
 Alpha virt. eigenvalues --    0.98645   0.99825   0.99851   1.00067   1.01182
 Alpha virt. eigenvalues --    1.01704   1.02274   1.03013   1.03712   1.04327
 Alpha virt. eigenvalues --    1.04583   1.05692   1.06467   1.06974   1.07317
 Alpha virt. eigenvalues --    1.07771   1.08138   1.08567   1.09106   1.10426
 Alpha virt. eigenvalues --    1.11638   1.11934   1.12363   1.12953   1.13312
 Alpha virt. eigenvalues --    1.14257   1.14919   1.15280   1.16790   1.17523
 Alpha virt. eigenvalues --    1.17881   1.18438   1.19376   1.20644   1.21415
 Alpha virt. eigenvalues --    1.22243   1.22383   1.23200   1.24111   1.24359
 Alpha virt. eigenvalues --    1.24715   1.26440   1.27780   1.28145   1.28780
 Alpha virt. eigenvalues --    1.29629   1.30190   1.30897   1.31767   1.32126
 Alpha virt. eigenvalues --    1.32500   1.33937   1.34276   1.34670   1.34990
 Alpha virt. eigenvalues --    1.35827   1.36211   1.37044   1.37726   1.38706
 Alpha virt. eigenvalues --    1.39744   1.40180   1.40274   1.40993   1.41801
 Alpha virt. eigenvalues --    1.42316   1.42694   1.44113   1.45344   1.45585
 Alpha virt. eigenvalues --    1.46584   1.47661   1.47860   1.48623   1.48949
 Alpha virt. eigenvalues --    1.49421   1.50698   1.51234   1.52529   1.52951
 Alpha virt. eigenvalues --    1.53891   1.54550   1.55262   1.55944   1.56332
 Alpha virt. eigenvalues --    1.57873   1.58657   1.59864   1.60500   1.61528
 Alpha virt. eigenvalues --    1.62293   1.62645   1.63182   1.64066   1.64865
 Alpha virt. eigenvalues --    1.65878   1.66304   1.66889   1.67036   1.68476
 Alpha virt. eigenvalues --    1.68821   1.69631   1.69912   1.70120   1.70273
 Alpha virt. eigenvalues --    1.71102   1.71249   1.71559   1.73084   1.73351
 Alpha virt. eigenvalues --    1.73761   1.74553   1.74744   1.75293   1.76256
 Alpha virt. eigenvalues --    1.76550   1.76964   1.77368   1.77723   1.78158
 Alpha virt. eigenvalues --    1.78509   1.78941   1.79052   1.79815   1.80483
 Alpha virt. eigenvalues --    1.80619   1.81844   1.82081   1.82813   1.83403
 Alpha virt. eigenvalues --    1.83594   1.84114   1.84867   1.85160   1.85795
 Alpha virt. eigenvalues --    1.86383   1.86442   1.87420   1.87851   1.88690
 Alpha virt. eigenvalues --    1.88727   1.89179   1.89955   1.90586   1.91008
 Alpha virt. eigenvalues --    1.91411   1.91587   1.92112   1.93184   1.93325
 Alpha virt. eigenvalues --    1.93851   1.94850   1.95555   1.95660   1.96236
 Alpha virt. eigenvalues --    1.96874   1.97352   1.98108   1.99238   1.99630
 Alpha virt. eigenvalues --    2.00824   2.01215   2.02290   2.02562   2.03636
 Alpha virt. eigenvalues --    2.03785   2.04546   2.04821   2.05528   2.06679
 Alpha virt. eigenvalues --    2.07245   2.07674   2.08644   2.09346   2.09609
 Alpha virt. eigenvalues --    2.10945   2.12279   2.12912   2.13854   2.14765
 Alpha virt. eigenvalues --    2.15311   2.15471   2.16218   2.16377   2.16753
 Alpha virt. eigenvalues --    2.18565   2.18912   2.19523   2.20965   2.21375
 Alpha virt. eigenvalues --    2.23052   2.23173   2.24643   2.25502   2.26000
 Alpha virt. eigenvalues --    2.27409   2.27516   2.28423   2.28627   2.29564
 Alpha virt. eigenvalues --    2.30083   2.30975   2.31521   2.32095   2.32436
 Alpha virt. eigenvalues --    2.33194   2.33869   2.34542   2.35701   2.36639
 Alpha virt. eigenvalues --    2.38180   2.39273   2.40531   2.41453   2.42358
 Alpha virt. eigenvalues --    2.42548   2.43332   2.44658   2.45395   2.45665
 Alpha virt. eigenvalues --    2.45765   2.46368   2.47075   2.48073   2.48670
 Alpha virt. eigenvalues --    2.48934   2.50935   2.51779   2.52253   2.53626
 Alpha virt. eigenvalues --    2.54075   2.54795   2.55415   2.55898   2.56435
 Alpha virt. eigenvalues --    2.56833   2.57663   2.58288   2.58977   2.60117
 Alpha virt. eigenvalues --    2.60446   2.60978   2.61476   2.62632   2.64087
 Alpha virt. eigenvalues --    2.65291   2.66586   2.66792   2.67518   2.68161
 Alpha virt. eigenvalues --    2.69406   2.70357   2.71736   2.73482   2.74073
 Alpha virt. eigenvalues --    2.76775   2.78683   2.83054   2.83917   2.86666
 Alpha virt. eigenvalues --    2.86845   2.88568   2.89585   2.89935   2.90340
 Alpha virt. eigenvalues --    2.91228   2.91639   2.92788   2.95130   2.99244
 Alpha virt. eigenvalues --    2.99538   3.00452   3.00537   3.01708   3.02393
 Alpha virt. eigenvalues --    3.04561   3.10208   3.14297   3.33789   3.68894
 Alpha virt. eigenvalues --    3.78373   3.79452   3.81465   3.84461   3.86890
 Alpha virt. eigenvalues --    3.89959   3.92236   3.94403   3.96460   4.00981
 Alpha virt. eigenvalues --    4.02025   4.03319   4.05868   4.06067   4.06839
 Alpha virt. eigenvalues --    4.08408   4.10310   4.13144   4.15582   4.17140
 Alpha virt. eigenvalues --    4.18206   4.22547   4.23389   4.25662   4.26492
 Alpha virt. eigenvalues --    4.28167   4.29384   4.32024   4.34877   4.37569
 Alpha virt. eigenvalues --    4.39865   4.42217   4.43992   4.47529   4.49384
 Alpha virt. eigenvalues --    4.49921   4.59218   4.60173   4.65094   4.69595
 Alpha virt. eigenvalues --    4.70339
          Condensed to atoms (all electrons):
 Mulliken charges:
               1
     1  N   -0.813653
     2  C   -0.098319
     3  C    0.578901
     4  O   -0.487300
     5  C   -0.337811
     6  C   -0.348849
     7  C    0.614324
     8  O   -0.575956
     9  O   -0.621383
    10  H    0.408748
    11  H    0.209481
    12  H    0.218855
    13  H    0.204877
    14  H    0.167375
    15  H    0.194307
    16  H    0.443645
    17  H    0.405055
    18  N   -0.566177
    19  C   -0.083001
    20  C    0.652736
    21  O   -0.507103
    22  C   -0.359416
    23  C    0.029525
    24  C   -0.030484
    25  C    0.063901
    26  C    0.278124
    27  C   -0.215371
    28  N   -0.691110
    29  C   -0.162965
    30  C   -0.143772
    31  C   -0.152572
    32  H    0.369567
    33  H    0.129527
    34  H    0.168125
    35  H    0.195915
    36  H    0.206237
    37  H    0.354130
    38  H    0.144398
    39  H    0.151304
    40  H    0.142026
    41  H    0.151790
    42  N   -0.625554
    43  C   -0.034761
    44  C    0.563461
    45  O   -0.503384
    46  C    0.099945
    47  C   -0.487303
    48  O   -0.625107
    49  H    0.412358
    50  H    0.349754
    51  H    0.178924
    52  H    0.165188
    53  H    0.170950
    54  H    0.173475
    55  H    0.185053
    56  N   -0.628713
    57  C   -0.039896
    58  C    0.618551
    59  O   -0.462613
    60  C   -0.318661
    61  C   -0.307772
    62  C   -0.167592
    63  N   -0.632083
    64  C    0.778053
    65  N   -0.756267
    66  N   -0.785993
    67  O   -0.570254
    68  H    0.431374
    69  H    0.369893
    70  H    0.184550
    71  H    0.161300
    72  H    0.149698
    73  H    0.176093
    74  H    0.176487
    75  H    0.169616
    76  H    0.181628
    77  H    0.419997
    78  H    0.374501
    79  H    0.378028
    80  H    0.432613
    81  H    0.356834
 Sum of Mulliken charges =   1.00000
 Mulliken charges with hydrogens summed into heavy atoms:
               1
     1  N    0.443795
     2  C    0.111162
     3  C    0.578901
     4  O   -0.487300
     5  C    0.085921
     6  C    0.012834
     7  C    0.614324
     8  O   -0.575956
     9  O   -0.621383
    18  N   -0.196610
    19  C    0.046525
    20  C    0.652736
    21  O   -0.507103
    22  C    0.004624
    23  C    0.029525
    24  C    0.175753
    25  C    0.063901
    26  C    0.278124
    27  C   -0.070973
    28  N   -0.336980
    29  C   -0.011661
    30  C   -0.001746
    31  C   -0.000782
    42  N   -0.275800
    43  C    0.144163
    44  C    0.563461
    45  O   -0.503384
    46  C    0.265133
    47  C    0.042174
    48  O   -0.212750
    56  N   -0.258820
    57  C    0.144654
    58  C    0.618551
    59  O   -0.462613
    60  C   -0.007663
    61  C    0.044808
    62  C    0.183652
    63  N   -0.212086
    64  C    0.778053
    65  N   -0.003738
    66  N    0.003455
    67  O   -0.138880
 Electronic spatial extent (au):  <R**2>=        1388862.8278
 Charge=              1.0000 electrons
 Dipole moment (field-independent basis, Debye):
    X=             56.5472    Y=            147.3313    Z=             65.2872  Tot=            170.7821
 Quadrupole moment (field-independent basis, Debye-Ang):
   XX=            480.0023   YY=           4287.1846   ZZ=            675.0898
   XY=           1742.7955   XZ=            758.7122   YZ=           2013.7857
 Traceless Quadrupole moment (field-independent basis, Debye-Ang):
   XX=          -1334.0899   YY=           2473.0924   ZZ=          -1139.0025
   XY=           1742.7955   XZ=            758.7122   YZ=           2013.7857
 Octapole moment (field-independent basis, Debye-Ang**2):
  XXX=           2939.0995  YYY=         116715.9519  ZZZ=           4548.2487  XYY=          51551.5505
  XXY=          14718.9125  XXZ=           6849.2223  XZZ=           8075.3399  YZZ=          20794.6164
  YYZ=          59416.6906  XYZ=          23422.9514
 Hexadecapole moment (field-independent basis, Debye-Ang**3):
 XXXX=            429.1006 YYYY=        2868172.9858 ZZZZ=         -20950.0339 XXXY=          88661.3173
 XXXZ=          52192.5272 YYYX=        1451896.2901 YYYZ=        1661314.2647 ZZZX=          62076.4367
 ZZZY=         138082.9865 XXYY=         428410.7878 XXZZ=          72484.7111 YYZZ=         606683.9141
 XXYZ=         210127.2676 YYXZ=         698172.0204 ZZXY=         248486.2625
 N-N= 5.824252949511D+03 E-N=-1.640425709002D+04  KE= 2.035202205420D+03
 Unable to Open any file for archive entry.
 1\1\GINC-LAC-314\SP\RB3LYP\6-31G(d)\C26H39N8O8(1+)\KENGMITH\27-May-202
 2\0\\# B3LYP/6-31G* empiricaldispersion=gd3 guess=read geom=check nosy
 mm integral(ultrafinegrid)\\Candidate Structure: Conf:669 Charge calc 
 in gas phase\\1,1\N,0,8.8077283296,33.0168072337,13.6894007127\C,0,8.3
 486322606,34.2376050122,12.9170476966\C,0,6.918047062,34.1209745333,12
 .3437323156\O,0,6.078921079,34.9159311132,12.7478420355\C,0,9.34216434
 86,34.6723185438,11.8321808248\C,0,10.7456973237,35.0908458539,12.3194
 39154\C,0,11.6853954745,33.914595089,12.5800906413\O,0,12.653840849,33
 .733072367,11.8060594471\O,0,11.4188729367,33.1447859579,13.5786829112
 \H,0,8.6185945338,32.14076056,13.1932600492\H,0,8.2719414636,35.024392
 8114,13.6697838241\H,0,9.4236318667,33.9328619836,11.0329050565\H,0,8.
 8737433966,35.5436114815,11.3608162055\H,0,10.6653097666,35.685408446,
 13.2387946259\H,0,11.2060019451,35.7164024213,11.5523321404\H,0,9.8790
 354554,33.0819179901,13.8479684652\H,0,8.2950442606,32.9302349493,14.5
 729892191\N,0,6.6603581408,33.2710837446,11.3078011511\C,0,7.252710184
 6,32.0094082487,10.8928960113\C,0,6.9814086605,31.8780182462,9.3813364
 544\O,0,5.9329200686,32.3311695416,8.9411752404\C,0,6.5306575267,30.79
 81808957,11.5741916515\C,0,6.586258118,30.8187532959,13.071858691\C,0,
 5.9458187105,31.7017397232,13.9129052513\C,0,7.3663595739,29.940447251
 6,13.9172549562\C,0,7.1820698333,30.3721586974,15.2594860071\C,0,8.149
 2644955,28.7972103666,13.6740978906\N,0,6.3475279426,31.4806070145,15.
 2221206792\C,0,7.7697918917,29.7182571366,16.3468289832\C,0,8.71938645
 78,28.1327017274,14.7523863303\C,0,8.539490556,28.5930827476,16.073910
 5332\H,0,5.7546591824,33.4315463594,10.8704624482\H,0,8.3208602759,31.
 9960803993,11.1155585416\H,0,6.9743074073,29.8712483911,11.1920607308\
 H,0,5.4944701515,30.8177567592,11.2187131231\H,0,5.254191047,32.500650
 4095,13.6864168411\H,0,5.8637477769,31.8541607708,16.027271885\H,0,8.2
 838740916,28.4226247455,12.6628331643\H,0,7.6118507253,30.0602975886,1
 7.3656560978\H,0,9.3094787969,27.2375887721,14.5789878277\H,0,8.995101
 1026,28.048322297,16.8952477666\N,0,7.8134019669,31.1259547683,8.60336
 40508\C,0,9.2100810789,30.7482024542,8.7815929613\C,0,10.0666592779,31
 .9238114209,9.2666905954\O,0,9.7230509325,33.077865746,9.0308878813\C,
 0,9.7380777987,30.271049047,7.3768410046\C,0,9.8457470257,31.391615829
 3,6.3429410803\O,0,10.9580094185,29.570213192,7.51387534\H,0,11.694918
 3593,30.2022983796,7.4967593346\H,0,7.4678036026,31.1041157003,7.64995
 47024\H,0,9.30092078,29.8885994127,9.4517878059\H,0,9.0137371673,29.52
 02594594,7.0369793877\H,0,10.6027877293,32.1258250116,6.6411440445\H,0
 ,8.9075729779,31.9386498112,6.2121523485\H,0,10.1339404212,30.95992987
 27,5.380646281\N,0,11.2855339831,31.6725181774,9.8560412527\C,0,11.730
 7971892,30.5786985008,10.740500141\C,0,12.0418660906,29.2732833467,10.
 0021718021\O,0,13.0825649545,29.0750023558,9.4216873805\C,0,10.8428430
 732,30.4071496764,11.9805463116\C,0,11.4177058029,29.4917582593,13.079
 9947171\C,0,12.9231743142,29.61851934,13.3475702209\N,0,13.3395526302,
 31.0144693052,13.5277395315\C,0,14.6026145025,31.419787145,13.36743501
 31\N,0,15.6141133777,30.5343094377,13.4852080287\N,0,14.8471706233,32.
 6960547026,13.0692441031\O,0,11.0583593608,28.3536681427,10.1257594045
 \H,0,11.2861175541,27.6203824498,9.5219871452\H,0,11.7557837245,32.548
 184062,10.0856595727\H,0,12.7111920264,30.9288004642,11.0651381128\H,0
 ,9.8601439249,30.0243565351,11.6902710792\H,0,10.7052669212,31.4078284
 285,12.3893528086\H,0,10.8664100141,29.6802315369,14.0053940147\H,0,11
 .233297275,28.4439839804,12.8229323646\H,0,13.1638104178,29.0269349359
 ,14.2412881155\H,0,13.4953407233,29.194866644,12.5122588403\H,0,12.622
 1563274,31.7589474796,13.5921622026\H,0,16.5546045004,30.7813542933,13
 .2154188236\H,0,15.4848772072,29.6569230952,13.966007814\H,0,14.089741
 224,33.2306374914,12.6000937128\H,0,15.7871393807,33.063451352,13.0938
 231469\\Version=ES64L-G16RevC.01\HF=-2054.066125\RMSD=8.909e-10\Dipole
 =3.7881175,-1.4161197,3.4278522\Quadrupole=-991.8631409,1838.6835619,-
 846.8204211,1295.7257072,564.0839035,1497.2002911\PG=C01 [X(C26H39N8O8
 )]\\@
 The archive entry for this job was punched.


 THERE'S A SUCKER BORN EVERY MINUTE

              -- PHINEAS TAYLOR (P.T.) BARNUM
 Job cpu time:       0 days  0 hours  7 minutes 19.2 seconds.
 Elapsed time:       0 days  0 hours  1 minutes 51.0 seconds.
 File lengths (MBytes):  RWF=    376 Int=      0 D2E=      0 Chk=     56 Scr=     16
 Normal termination of Gaussian 16 at Fri May 27 05:10:52 2022.
