 Entering Gaussian System, Link 0=/opt/software/Gaussian/g16-AVX2-C.01/g16/g16
 Input=charge-conf-234.com
 Output=charge-conf-234.log
 Initial command:
 /opt/software/Gaussian/g16-AVX2-C.01/g16/l1.exe "/mnt/gs18/scratch/users/kengmith/Gau-13921.inp" -scrdir="/mnt/gs18/scratch/users/kengmith/"
 Entering Link 1 = /opt/software/Gaussian/g16-AVX2-C.01/g16/l1.exe PID=     13931.
  
 Copyright (c) 1988-2019, Gaussian, Inc.  All Rights Reserved.
  
 This is part of the Gaussian(R) 16 program.  It is based on
 the Gaussian(R) 09 system (copyright 2009, Gaussian, Inc.),
 the Gaussian(R) 03 system (copyright 2003, Gaussian, Inc.),
 the Gaussian(R) 98 system (copyright 1998, Gaussian, Inc.),
 the Gaussian(R) 94 system (copyright 1995, Gaussian, Inc.),
 the Gaussian 92(TM) system (copyright 1992, Gaussian, Inc.),
 the Gaussian 90(TM) system (copyright 1990, Gaussian, Inc.),
 the Gaussian 88(TM) system (copyright 1988, Gaussian, Inc.),
 the Gaussian 86(TM) system (copyright 1986, Carnegie Mellon
 University), and the Gaussian 82(TM) system (copyright 1983,
 Carnegie Mellon University). Gaussian is a federally registered
 trademark of Gaussian, Inc.
  
 This software contains proprietary and confidential information,
 including trade secrets, belonging to Gaussian, Inc.
  
 This software is provided under written license and may be
 used, copied, transmitted, or stored only in accord with that
 written license.
  
 The following legend is applicable only to US Government
 contracts under FAR:
  
                    RESTRICTED RIGHTS LEGEND
  
 Use, reproduction and disclosure by the US Government is
 subject to restrictions as set forth in subparagraphs (a)
 and (c) of the Commercial Computer Software - Restricted
 Rights clause in FAR 52.227-19.
  
 Gaussian, Inc.
 340 Quinnipiac St., Bldg. 40, Wallingford CT 06492
  
  
 ---------------------------------------------------------------
 Warning -- This program may not be used in any manner that
 competes with the business of Gaussian, Inc. or will provide
 assistance to any competitor of Gaussian, Inc.  The licensee
 of this program is prohibited from giving any competitor of
 Gaussian, Inc. access to this program.  By using this program,
 the user acknowledges that Gaussian, Inc. is engaged in the
 business of creating and licensing software in the field of
 computational chemistry and represents and warrants to the
 licensee that it is not a competitor of Gaussian, Inc. and that
 it will not use this program in any manner prohibited above.
 ---------------------------------------------------------------
  

 Cite this work as:
 Gaussian 16, Revision C.01,
 M. J. Frisch, G. W. Trucks, H. B. Schlegel, G. E. Scuseria, 
 M. A. Robb, J. R. Cheeseman, G. Scalmani, V. Barone, 
 G. A. Petersson, H. Nakatsuji, X. Li, M. Caricato, A. V. Marenich, 
 J. Bloino, B. G. Janesko, R. Gomperts, B. Mennucci, H. P. Hratchian, 
 J. V. Ortiz, A. F. Izmaylov, J. L. Sonnenberg, D. Williams-Young, 
 F. Ding, F. Lipparini, F. Egidi, J. Goings, B. Peng, A. Petrone, 
 T. Henderson, D. Ranasinghe, V. G. Zakrzewski, J. Gao, N. Rega, 
 G. Zheng, W. Liang, M. Hada, M. Ehara, K. Toyota, R. Fukuda, 
 J. Hasegawa, M. Ishida, T. Nakajima, Y. Honda, O. Kitao, H. Nakai, 
 T. Vreven, K. Throssell, J. A. Montgomery, Jr., J. E. Peralta, 
 F. Ogliaro, M. J. Bearpark, J. J. Heyd, E. N. Brothers, K. N. Kudin, 
 V. N. Staroverov, T. A. Keith, R. Kobayashi, J. Normand, 
 K. Raghavachari, A. P. Rendell, J. C. Burant, S. S. Iyengar, 
 J. Tomasi, M. Cossi, J. M. Millam, M. Klene, C. Adamo, R. Cammi, 
 J. W. Ochterski, R. L. Martin, K. Morokuma, O. Farkas, 
 J. B. Foresman, and D. J. Fox, Gaussian, Inc., Wallingford CT, 2019.
 
 ******************************************
 Gaussian 16:  ES64L-G16RevC.01  3-Jul-2019
                 7-Jun-2022 
 ******************************************
 %mem=8gb
 %nproc=4
 Will use up to    4 processors via shared memory.
 %chk=conf-234.chk
 ----------------------------------------------------------------------
 # B3LYP/6-31G* empiricaldispersion=gd3 guess=read geom=check nosymm in
 tegral(ultrafinegrid)
 ----------------------------------------------------------------------
 1/29=2,38=1,172=1/1;
 2/12=2,15=1,40=1/2;
 3/5=1,6=6,7=1,11=2,14=-4,25=1,30=1,74=-5,75=-5,116=-2,124=31/1,2,3;
 4/5=1/1;
 5/5=2,38=6/2;
 6/7=2,8=2,9=2,10=2,28=1/1;
 99/5=1,9=1/99;
 ------------------------------------------------------
 Candidate Structure: Conf:234 Charge calc in gas phase
 ------------------------------------------------------
 Structure from the checkpoint file:  "conf-234.chk"
 Charge =  1 Multiplicity = 1
 Redundant internal coordinates found in file.  (old form).
 N,0,-4.3583587773,0.0088333363,-8.2492371112
 C,0,-5.0074377738,-0.8586580484,-9.2397966419
 C,0,-6.4807202733,-0.4806634361,-9.4818732664
 O,0,-6.7259979523,0.6208260774,-9.9680291146
 C,0,-4.7697206581,-2.3529520463,-8.8800294897
 C,0,-3.4052433959,-2.4858417441,-8.3022013241
 N,0,-3.2390974711,-2.6451216304,-7.0187651129
 O,0,-2.4141046089,-2.4563808646,-9.1610882508
 H,0,-4.951444558,0.0737873527,-7.4212168241
 H,0,-1.5311579839,-2.4479030888,-8.7471141035
 H,0,-4.5171329263,-0.6762365318,-10.2005459762
 H,0,-5.4727096579,-2.7202938084,-8.1351508335
 H,0,-4.8509949655,-2.9717045518,-9.779932018
 H,0,-2.324826003,-2.675814583,-6.5801540509
 H,0,-4.0692301485,-2.5286957658,-6.4113268593
 H,0,-4.3449955284,0.9538085236,-8.6311283654
 N,0,-7.446055802,-1.365012199,-9.1123095804
 C,0,-8.8023497137,-1.2559339655,-9.6414780476
 C,0,-9.7680988437,-1.462219399,-8.4613366477
 O,0,-10.3780709649,-2.5149110059,-8.2888414298
 C,0,-9.0714185492,-2.2760839458,-10.7879888641
 C,0,-7.8173105273,-2.6342544534,-11.5552604842
 C,0,-7.1005819228,-1.6658764308,-12.2736599041
 C,0,-7.2996576813,-3.9343393366,-11.4946220482
 C,0,-5.8856052995,-1.9814233161,-12.8827685879
 C,0,-6.0868235832,-4.2594112857,-12.1089686854
 C,0,-5.3689753936,-3.278058314,-12.7959657056
 H,0,-7.2182511746,-2.295413911,-8.7599981222
 H,0,-8.8959570263,-0.2387763871,-10.0262372697
 H,0,-9.5176121541,-3.1751608825,-10.3561045447
 H,0,-9.8291133856,-1.8433916008,-11.4518667833
 H,0,-7.4762144495,-0.6478578734,-12.3238486599
 H,0,-7.8650978815,-4.7077177023,-10.9785658111
 H,0,-5.344240031,-1.2150517413,-13.4306482484
 H,0,-5.7113982739,-5.2783774921,-12.061425258
 H,0,-4.4269553103,-3.5249440649,-13.2775564753
 N,0,-9.9124050303,-0.4233911916,-7.5811550848
 C,0,-9.0104066525,0.7011893469,-7.3700885097
 C,0,-7.8380497419,0.4032581013,-6.4054485229
 O,0,-6.7546295482,0.9619114949,-6.5394284359
 C,0,-9.79196327,1.943470971,-6.8981269033
 C,0,-10.6207352861,1.7173581751,-5.6302868875
 N,0,-11.3259947431,2.7864441456,-5.2039011443
 O,0,-10.6554239671,0.6354761149,-5.031375767
 H,0,-10.5386131596,-0.6355801577,-6.8106550214
 H,0,-8.5198308047,0.9675341835,-8.3084896259
 H,0,-10.4654016417,2.2573008607,-7.7048487578
 H,0,-9.0857095465,2.7659285645,-6.7317833649
 H,0,-11.927386351,2.6802781475,-4.3973444275
 H,0,-11.344383042,3.6626326708,-5.7056931842
 N,0,-8.0784589876,-0.4940920306,-5.3953669582
 C,0,-7.0882003254,-0.6277891146,-4.3462682203
 C,0,-5.7833498843,-1.2071968987,-4.8958001683
 O,0,-5.6607301734,-1.7749257803,-5.9625160445
 C,0,-7.6307606702,-1.4634677926,-3.1586394959
 C,0,-8.3022770119,-2.8144177694,-3.4789827548
 C,0,-7.4965461935,-3.7959291057,-4.3485143136
 N,0,-7.8808155964,-3.6692655693,-5.7498209576
 C,0,-7.1669899193,-4.3377564081,-6.7187766065
 N,0,-6.1287791424,-5.0391004008,-6.4268597632
 N,0,-7.6897226377,-4.1039243053,-8.0135534561
 O,0,-4.705809407,-1.0890629971,-4.1001973544
 H,0,-4.9061028901,-0.5865969956,-3.29127685
 H,0,-9.0536139851,-0.5376451382,-5.1011891722
 H,0,-6.8186147671,0.3706646415,-3.9648925442
 H,0,-6.8004180293,-1.6314611195,-2.4609738207
 H,0,-8.3515947321,-0.8324075448,-2.625737581
 H,0,-8.5152321767,-3.2847323741,-2.5130697257
 H,0,-9.2824684076,-2.6516423507,-3.9442811733
 H,0,-6.4148491153,-3.6545039647,-4.2116448716
 H,0,-7.6997436894,-4.8264129516,-4.0418203497
 H,0,-8.2023222834,-2.7486849508,-6.0287956537
 H,0,-5.8107960892,-5.578375014,-7.2342560781
 H,0,-7.3803098708,-4.7852500182,-8.698151121
 H,0,-8.7055286496,-4.0010063475,-8.0371250178
 Recover connectivity data from disk.
                           ----------------------------
                           !    Current Parameters    !
                           ! (Angstroms and Degrees)  !
 --------------------------                            --------------------------
 ! Name  Definition              Value                                          !
 --------------------------------------------------------------------------------
 ! R1    R(1,2)                  1.468                                          !
 ! R2    R(1,9)                  1.0206                                         !
 ! R3    R(1,16)                 1.0193                                         !
 ! R4    R(2,3)                  1.5401                                         !
 ! R5    R(2,5)                  1.5553                                         !
 ! R6    R(2,11)                 1.0939                                         !
 ! R7    R(3,4)                  1.2287                                         !
 ! R8    R(3,17)                 1.3603                                         !
 ! R9    R(5,6)                  1.4877                                         !
 ! R10   R(5,12)                 1.0881                                         !
 ! R11   R(5,13)                 1.0951                                         !
 ! R12   R(6,7)                  1.3039                                         !
 ! R13   R(6,8)                  1.3118                                         !
 ! R14   R(7,14)                 1.0145                                         !
 ! R15   R(7,15)                 1.0352                                         !
 ! R16   R(8,10)                 0.9752                                         !
 ! R17   R(17,18)                1.4599                                         !
 ! R18   R(17,28)                1.0206                                         !
 ! R19   R(18,19)                1.5388                                         !
 ! R20   R(18,21)                1.5581                                         !
 ! R21   R(18,29)                1.0915                                         !
 ! R22   R(19,20)                1.2288                                         !
 ! R23   R(19,37)                1.3692                                         !
 ! R24   R(21,22)                1.5132                                         !
 ! R25   R(21,30)                1.0927                                         !
 ! R26   R(21,31)                1.0964                                         !
 ! R27   R(22,23)                1.4027                                         !
 ! R28   R(22,24)                1.4007                                         !
 ! R29   R(23,25)                1.3953                                         !
 ! R30   R(23,32)                1.0863                                         !
 ! R31   R(24,26)                1.3979                                         !
 ! R32   R(24,33)                1.0882                                         !
 ! R33   R(25,27)                1.3985                                         !
 ! R34   R(25,34)                1.0865                                         !
 ! R35   R(26,27)                1.3965                                         !
 ! R36   R(26,35)                1.087                                          !
 ! R37   R(27,36)                1.0864                                         !
 ! R38   R(37,38)                1.457                                          !
 ! R39   R(37,45)                1.0153                                         !
 ! R40   R(38,39)                1.5472                                         !
 ! R41   R(38,41)                1.5417                                         !
 ! R42   R(38,46)                1.0919                                         !
 ! R43   R(39,40)                1.2263                                         !
 ! R44   R(39,51)                1.3723                                         !
 ! R45   R(41,42)                1.5315                                         !
 ! R46   R(41,47)                1.0967                                         !
 ! R47   R(41,48)                1.0968                                         !
 ! R48   R(42,43)                1.3499                                         !
 ! R49   R(42,44)                1.2371                                         !
 ! R50   R(43,49)                1.0117                                         !
 ! R51   R(43,50)                1.0099                                         !
 ! R52   R(51,52)                1.4488                                         !
 ! R53   R(51,64)                1.0195                                         !
 ! R54   R(52,53)                1.5298                                         !
 ! R55   R(52,55)                1.5502                                         !
 ! R56   R(52,65)                1.1023                                         !
 ! R57   R(53,54)                1.2146                                         !
 ! R58   R(53,62)                1.3446                                         !
 ! R59   R(55,56)                1.5423                                         !
 ! R60   R(55,66)                1.0975                                         !
 ! R61   R(55,67)                1.0963                                         !
 ! R62   R(56,57)                1.539                                          !
 ! R63   R(56,68)                1.0952                                         !
 ! R64   R(56,69)                1.0972                                         !
 ! R65   R(57,58)                1.4585                                         !
 ! R66   R(57,70)                1.0995                                         !
 ! R67   R(57,71)                1.0942                                         !
 ! R68   R(58,59)                1.3767                                         !
 ! R69   R(58,72)                1.0142                                         !
 ! R70   R(59,60)                1.2865                                         !
 ! R71   R(59,61)                1.4158                                         !
 ! R72   R(60,73)                1.0217                                         !
 ! R73   R(61,74)                1.0142                                         !
 ! R74   R(61,75)                1.0213                                         !
 ! R75   R(62,63)                0.9731                                         !
 ! A1    A(2,1,9)              109.1544                                         !
 ! A2    A(2,1,16)             107.5073                                         !
 ! A3    A(9,1,16)             104.6304                                         !
 ! A4    A(1,2,3)              112.5805                                         !
 ! A5    A(1,2,5)              110.1265                                         !
 ! A6    A(1,2,11)             107.2112                                         !
 ! A7    A(3,2,5)              114.7321                                         !
 ! A8    A(3,2,11)             104.4642                                         !
 ! A9    A(5,2,11)             107.1497                                         !
 ! A10   A(2,3,4)              118.2392                                         !
 ! A11   A(2,3,17)             118.4616                                         !
 ! A12   A(4,3,17)             123.2714                                         !
 ! A13   A(2,5,6)              108.4121                                         !
 ! A14   A(2,5,12)             112.5796                                         !
 ! A15   A(2,5,13)             109.964                                          !
 ! A16   A(6,5,12)             107.2478                                         !
 ! A17   A(6,5,13)             109.6795                                         !
 ! A18   A(12,5,13)            108.8953                                         !
 ! A19   A(5,6,7)              120.6687                                         !
 ! A20   A(5,6,8)              115.89                                           !
 ! A21   A(7,6,8)              123.4297                                         !
 ! A22   A(6,7,14)             122.9619                                         !
 ! A23   A(6,7,15)             117.4935                                         !
 ! A24   A(14,7,15)            118.1894                                         !
 ! A25   A(6,8,10)             113.974                                          !
 ! A26   A(3,17,18)            120.8109                                         !
 ! A27   A(3,17,28)            121.8716                                         !
 ! A28   A(18,17,28)           113.6146                                         !
 ! A29   A(17,18,19)           107.1602                                         !
 ! A30   A(17,18,21)           112.224                                          !
 ! A31   A(17,18,29)           106.0848                                         !
 ! A32   A(19,18,21)           111.6036                                         !
 ! A33   A(19,18,29)           109.9645                                         !
 ! A34   A(21,18,29)           109.6302                                         !
 ! A35   A(18,19,20)           122.278                                          !
 ! A36   A(18,19,37)           117.2222                                         !
 ! A37   A(20,19,37)           120.4916                                         !
 ! A38   A(18,21,22)           112.6418                                         !
 ! A39   A(18,21,30)           108.567                                          !
 ! A40   A(18,21,31)           107.8494                                         !
 ! A41   A(22,21,30)           110.1259                                         !
 ! A42   A(22,21,31)           111.0475                                         !
 ! A43   A(30,21,31)           106.371                                          !
 ! A44   A(21,22,23)           121.316                                          !
 ! A45   A(21,22,24)           120.268                                          !
 ! A46   A(23,22,24)           118.3025                                         !
 ! A47   A(22,23,25)           120.8236                                         !
 ! A48   A(22,23,32)           119.6015                                         !
 ! A49   A(25,23,32)           119.5311                                         !
 ! A50   A(22,24,26)           121.1631                                         !
 ! A51   A(22,24,33)           119.2198                                         !
 ! A52   A(26,24,33)           119.6025                                         !
 ! A53   A(23,25,27)           120.2838                                         !
 ! A54   A(23,25,34)           119.6356                                         !
 ! A55   A(27,25,34)           120.0797                                         !
 ! A56   A(24,26,27)           119.918                                          !
 ! A57   A(24,26,35)           119.8971                                         !
 ! A58   A(27,26,35)           120.1803                                         !
 ! A59   A(25,27,26)           119.4838                                         !
 ! A60   A(25,27,36)           120.2328                                         !
 ! A61   A(26,27,36)           120.2703                                         !
 ! A62   A(19,37,38)           127.8422                                         !
 ! A63   A(19,37,45)           113.2216                                         !
 ! A64   A(38,37,45)           115.6712                                         !
 ! A65   A(37,38,39)           114.2549                                         !
 ! A66   A(37,38,41)           110.6375                                         !
 ! A67   A(37,38,46)           109.9944                                         !
 ! A68   A(39,38,41)           110.3915                                         !
 ! A69   A(39,38,46)           104.0265                                         !
 ! A70   A(41,38,46)           107.1161                                         !
 ! A71   A(38,39,40)           120.9045                                         !
 ! A72   A(38,39,51)           116.8773                                         !
 ! A73   A(40,39,51)           122.2129                                         !
 ! A74   A(38,41,42)           114.1295                                         !
 ! A75   A(38,41,47)           108.4624                                         !
 ! A76   A(38,41,48)           108.9196                                         !
 ! A77   A(42,41,47)           108.5965                                         !
 ! A78   A(42,41,48)           109.4895                                         !
 ! A79   A(47,41,48)           107.0009                                         !
 ! A80   A(41,42,43)           115.2964                                         !
 ! A81   A(41,42,44)           123.0307                                         !
 ! A82   A(43,42,44)           121.6722                                         !
 ! A83   A(42,43,49)           118.6396                                         !
 ! A84   A(42,43,50)           122.6641                                         !
 ! A85   A(49,43,50)           118.4486                                         !
 ! A86   A(39,51,52)           118.2661                                         !
 ! A87   A(39,51,64)           114.0719                                         !
 ! A88   A(52,51,64)           116.1601                                         !
 ! A89   A(51,52,53)           110.9666                                         !
 ! A90   A(51,52,55)           111.4241                                         !
 ! A91   A(51,52,65)           109.518                                          !
 ! A92   A(53,52,55)           111.6877                                         !
 ! A93   A(53,52,65)           104.9957                                         !
 ! A94   A(55,52,65)           107.9886                                         !
 ! A95   A(52,53,54)           125.3538                                         !
 ! A96   A(52,53,62)           115.9575                                         !
 ! A97   A(54,53,62)           118.6733                                         !
 ! A98   A(52,55,56)           117.7398                                         !
 ! A99   A(52,55,66)           107.742                                          !
 ! A100  A(52,55,67)           106.991                                          !
 ! A101  A(56,55,66)           109.1101                                         !
 ! A102  A(56,55,67)           108.5966                                         !
 ! A103  A(66,55,67)           106.0565                                         !
 ! A104  A(55,56,57)           116.6174                                         !
 ! A105  A(55,56,68)           106.1185                                         !
 ! A106  A(55,56,69)           110.3111                                         !
 ! A107  A(57,56,68)           109.0387                                         !
 ! A108  A(57,56,69)           108.8277                                         !
 ! A109  A(68,56,69)           105.3086                                         !
 ! A110  A(56,57,58)           110.4566                                         !
 ! A111  A(56,57,70)           111.2663                                         !
 ! A112  A(56,57,71)           110.1835                                         !
 ! A113  A(58,57,70)           111.5699                                         !
 ! A114  A(58,57,71)           107.587                                          !
 ! A115  A(70,57,71)           105.6022                                         !
 ! A116  A(57,58,59)           119.83                                           !
 ! A117  A(57,58,72)           115.2523                                         !
 ! A118  A(59,58,72)           114.2996                                         !
 ! A119  A(58,59,60)           121.5648                                         !
 ! A120  A(58,59,61)           111.8413                                         !
 ! A121  A(60,59,61)           126.5512                                         !
 ! A122  A(59,60,73)           111.0766                                         !
 ! A123  A(59,61,74)           113.1868                                         !
 ! A124  A(59,61,75)           113.891                                          !
 ! A125  A(74,61,75)           110.8279                                         !
 ! A126  A(53,62,63)           111.8561                                         !
 ! D1    D(9,1,2,3)             49.195                                          !
 ! D2    D(9,1,2,5)            -80.2236                                         !
 ! D3    D(9,1,2,11)           163.5263                                         !
 ! D4    D(16,1,2,3)           -63.7557                                         !
 ! D5    D(16,1,2,5)           166.8257                                         !
 ! D6    D(16,1,2,11)           50.5756                                         !
 ! D7    D(1,2,3,4)             64.0321                                         !
 ! D8    D(1,2,3,17)          -114.112                                          !
 ! D9    D(5,2,3,4)           -168.9651                                         !
 ! D10   D(5,2,3,17)            12.8908                                         !
 ! D11   D(11,2,3,4)           -51.9584                                         !
 ! D12   D(11,2,3,17)          129.8975                                         !
 ! D13   D(1,2,5,6)            -35.6966                                         !
 ! D14   D(1,2,5,12)            82.7849                                         !
 ! D15   D(1,2,5,13)          -155.6003                                         !
 ! D16   D(3,2,5,6)           -163.9443                                         !
 ! D17   D(3,2,5,12)           -45.4628                                         !
 ! D18   D(3,2,5,13)            76.152                                          !
 ! D19   D(11,2,5,6)            80.592                                          !
 ! D20   D(11,2,5,12)         -160.9265                                         !
 ! D21   D(11,2,5,13)          -39.3118                                         !
 ! D22   D(2,3,17,18)         -162.4408                                         !
 ! D23   D(2,3,17,28)           -5.5126                                         !
 ! D24   D(4,3,17,18)           19.5148                                         !
 ! D25   D(4,3,17,28)          176.443                                          !
 ! D26   D(2,5,6,7)            104.434                                          !
 ! D27   D(2,5,6,8)            -76.7623                                         !
 ! D28   D(12,5,6,7)           -17.375                                          !
 ! D29   D(12,5,6,8)           161.4287                                         !
 ! D30   D(13,5,6,7)          -135.4846                                         !
 ! D31   D(13,5,6,8)            43.3191                                         !
 ! D32   D(5,6,7,14)          -175.6945                                         !
 ! D33   D(5,6,7,15)            -9.244                                          !
 ! D34   D(8,6,7,14)             5.5952                                         !
 ! D35   D(8,6,7,15)           172.0457                                         !
 ! D36   D(5,6,8,10)           173.6993                                         !
 ! D37   D(7,6,8,10)            -7.5338                                         !
 ! D38   D(3,17,18,19)        -135.9416                                         !
 ! D39   D(3,17,18,21)         101.2096                                         !
 ! D40   D(3,17,18,29)         -18.4936                                         !
 ! D41   D(28,17,18,19)         65.3564                                         !
 ! D42   D(28,17,18,21)        -57.4925                                         !
 ! D43   D(28,17,18,29)       -177.1957                                         !
 ! D44   D(17,18,19,20)       -103.5085                                         !
 ! D45   D(17,18,19,37)         75.4558                                         !
 ! D46   D(21,18,19,20)         19.724                                          !
 ! D47   D(21,18,19,37)       -161.3117                                         !
 ! D48   D(29,18,19,20)        141.6139                                         !
 ! D49   D(29,18,19,37)        -39.4218                                         !
 ! D50   D(17,18,21,22)        -28.695                                          !
 ! D51   D(17,18,21,30)         93.5401                                         !
 ! D52   D(17,18,21,31)       -151.5918                                         !
 ! D53   D(19,18,21,22)       -148.9997                                         !
 ! D54   D(19,18,21,30)        -26.7647                                         !
 ! D55   D(19,18,21,31)         88.1035                                         !
 ! D56   D(29,18,21,22)         88.9178                                         !
 ! D57   D(29,18,21,30)       -148.8471                                         !
 ! D58   D(29,18,21,31)        -33.979                                          !
 ! D59   D(18,19,37,38)        -19.602                                          !
 ! D60   D(18,19,37,45)       -178.0737                                         !
 ! D61   D(20,19,37,38)        159.3818                                         !
 ! D62   D(20,19,37,45)          0.9101                                         !
 ! D63   D(18,21,22,23)        -62.5488                                         !
 ! D64   D(18,21,22,24)        113.5129                                         !
 ! D65   D(30,21,22,23)        176.0992                                         !
 ! D66   D(30,21,22,24)         -7.8391                                         !
 ! D67   D(31,21,22,23)         58.54                                           !
 ! D68   D(31,21,22,24)       -125.3984                                         !
 ! D69   D(21,22,23,25)        174.4932                                         !
 ! D70   D(21,22,23,32)         -3.0872                                         !
 ! D71   D(24,22,23,25)         -1.6437                                         !
 ! D72   D(24,22,23,32)       -179.2241                                         !
 ! D73   D(21,22,24,26)       -174.9018                                         !
 ! D74   D(21,22,24,33)          6.4925                                         !
 ! D75   D(23,22,24,26)          1.277                                          !
 ! D76   D(23,22,24,33)       -177.3287                                         !
 ! D77   D(22,23,25,27)          0.6233                                         !
 ! D78   D(22,23,25,34)       -179.7159                                         !
 ! D79   D(32,23,25,27)        178.2054                                         !
 ! D80   D(32,23,25,34)         -2.1338                                         !
 ! D81   D(22,24,26,27)          0.1162                                         !
 ! D82   D(22,24,26,35)       -179.101                                          !
 ! D83   D(33,24,26,27)        178.7166                                         !
 ! D84   D(33,24,26,35)         -0.5006                                         !
 ! D85   D(23,25,27,26)          0.8011                                         !
 ! D86   D(23,25,27,36)        179.489                                          !
 ! D87   D(34,25,27,26)       -178.8582                                         !
 ! D88   D(34,25,27,36)         -0.1703                                         !
 ! D89   D(24,26,27,25)         -1.1647                                         !
 ! D90   D(24,26,27,36)       -179.8521                                         !
 ! D91   D(35,26,27,25)        178.0503                                         !
 ! D92   D(35,26,27,36)         -0.6371                                         !
 ! D93   D(19,37,38,39)        -83.8466                                         !
 ! D94   D(19,37,38,41)        150.8387                                         !
 ! D95   D(19,37,38,46)         32.694                                          !
 ! D96   D(45,37,38,39)         74.1808                                         !
 ! D97   D(45,37,38,41)        -51.134                                          !
 ! D98   D(45,37,38,46)       -169.2786                                         !
 ! D99   D(37,38,39,40)        149.1712                                         !
 ! D100  D(37,38,39,51)        -31.6558                                         !
 ! D101  D(41,38,39,40)        -85.3844                                         !
 ! D102  D(41,38,39,51)         93.7885                                         !
 ! D103  D(46,38,39,40)         29.2294                                         !
 ! D104  D(46,38,39,51)       -151.5976                                         !
 ! D105  D(37,38,41,42)         56.3591                                         !
 ! D106  D(37,38,41,47)        -64.8355                                         !
 ! D107  D(37,38,41,48)        179.042                                          !
 ! D108  D(39,38,41,42)        -71.1085                                         !
 ! D109  D(39,38,41,47)        167.6969                                         !
 ! D110  D(39,38,41,48)         51.5744                                         !
 ! D111  D(46,38,41,42)        176.2458                                         !
 ! D112  D(46,38,41,47)         55.0512                                         !
 ! D113  D(46,38,41,48)        -61.0713                                         !
 ! D114  D(38,39,51,52)       -169.7436                                         !
 ! D115  D(38,39,51,64)        -27.7027                                         !
 ! D116  D(40,39,51,52)          9.4176                                         !
 ! D117  D(40,39,51,64)        151.4585                                         !
 ! D118  D(38,41,42,43)       -179.3346                                         !
 ! D119  D(38,41,42,44)          0.3916                                         !
 ! D120  D(47,41,42,43)        -58.2144                                         !
 ! D121  D(47,41,42,44)        121.5118                                         !
 ! D122  D(48,41,42,43)         58.2937                                         !
 ! D123  D(48,41,42,44)       -121.98                                           !
 ! D124  D(41,42,43,49)        176.985                                          !
 ! D125  D(41,42,43,50)          2.7954                                         !
 ! D126  D(44,42,43,49)         -2.7453                                         !
 ! D127  D(44,42,43,50)       -176.9349                                         !
 ! D128  D(39,51,52,53)        -65.9164                                         !
 ! D129  D(39,51,52,55)        168.9501                                         !
 ! D130  D(39,51,52,65)         49.5396                                         !
 ! D131  D(64,51,52,53)        152.8171                                         !
 ! D132  D(64,51,52,55)         27.6837                                         !
 ! D133  D(64,51,52,65)        -91.7269                                         !
 ! D134  D(51,52,53,54)        -16.3346                                         !
 ! D135  D(51,52,53,62)        165.1221                                         !
 ! D136  D(55,52,53,54)        108.6505                                         !
 ! D137  D(55,52,53,62)        -69.8928                                         !
 ! D138  D(65,52,53,54)       -134.5672                                         !
 ! D139  D(65,52,53,62)         46.8895                                         !
 ! D140  D(51,52,55,56)         49.3084                                         !
 ! D141  D(51,52,55,66)        173.1314                                         !
 ! D142  D(51,52,55,67)        -73.202                                          !
 ! D143  D(53,52,55,56)        -75.422                                          !
 ! D144  D(53,52,55,66)         48.4011                                         !
 ! D145  D(53,52,55,67)        162.0676                                         !
 ! D146  D(65,52,55,56)        169.6234                                         !
 ! D147  D(65,52,55,66)        -66.5536                                         !
 ! D148  D(65,52,55,67)         47.113                                          !
 ! D149  D(52,53,62,63)         -3.7793                                         !
 ! D150  D(54,53,62,63)        177.5748                                         !
 ! D151  D(52,55,56,57)         52.5803                                         !
 ! D152  D(52,55,56,68)        174.2236                                         !
 ! D153  D(52,55,56,69)        -72.198                                          !
 ! D154  D(66,55,56,57)        -70.5536                                         !
 ! D155  D(66,55,56,68)         51.0898                                         !
 ! D156  D(66,55,56,69)        164.6682                                         !
 ! D157  D(67,55,56,57)        174.2691                                         !
 ! D158  D(67,55,56,68)        -64.0876                                         !
 ! D159  D(67,55,56,69)         49.4908                                         !
 ! D160  D(55,56,57,58)        -95.5914                                         !
 ! D161  D(55,56,57,70)         28.8967                                         !
 ! D162  D(55,56,57,71)        145.6767                                         !
 ! D163  D(68,56,57,58)        144.3132                                         !
 ! D164  D(68,56,57,70)        -91.1987                                         !
 ! D165  D(68,56,57,71)         25.5812                                         !
 ! D166  D(69,56,57,58)         29.9357                                         !
 ! D167  D(69,56,57,70)        154.4238                                         !
 ! D168  D(69,56,57,71)        -88.7962                                         !
 ! D169  D(56,57,58,59)        172.0171                                         !
 ! D170  D(56,57,58,72)         29.3675                                         !
 ! D171  D(70,57,58,59)         47.7029                                         !
 ! D172  D(70,57,58,72)        -94.9467                                         !
 ! D173  D(71,57,58,59)        -67.6818                                         !
 ! D174  D(71,57,58,72)        149.6685                                         !
 ! D175  D(57,58,59,60)         -2.6625                                         !
 ! D176  D(57,58,59,61)        179.5662                                         !
 ! D177  D(72,58,59,60)        140.3207                                         !
 ! D178  D(72,58,59,61)        -37.4506                                         !
 ! D179  D(58,59,60,73)        171.1801                                         !
 ! D180  D(61,59,60,73)        -11.3954                                         !
 ! D181  D(58,59,61,74)       -162.3309                                         !
 ! D182  D(58,59,61,75)        -34.5399                                         !
 ! D183  D(60,59,61,74)         20.0331                                         !
 ! D184  D(60,59,61,75)        147.824                                          !
 --------------------------------------------------------------------------------
 Symmetry turned off by external request.
 Stoichiometry    C23H36N9O7(1+)
 Framework group  C1[X(C23H36N9O7)]
 Deg. of freedom   219
 Full point group                 C1      NOp   1
                          Input orientation:                          
 ---------------------------------------------------------------------
 Center     Atomic      Atomic             Coordinates (Angstroms)
 Number     Number       Type             X           Y           Z
 ---------------------------------------------------------------------
      1          7           0       -4.358359    0.008833   -8.249237
      2          6           0       -5.007438   -0.858658   -9.239797
      3          6           0       -6.480720   -0.480663   -9.481873
      4          8           0       -6.725998    0.620826   -9.968029
      5          6           0       -4.769721   -2.352952   -8.880029
      6          6           0       -3.405243   -2.485842   -8.302201
      7          7           0       -3.239097   -2.645122   -7.018765
      8          8           0       -2.414105   -2.456381   -9.161088
      9          1           0       -4.951445    0.073787   -7.421217
     10          1           0       -1.531158   -2.447903   -8.747114
     11          1           0       -4.517133   -0.676237  -10.200546
     12          1           0       -5.472710   -2.720294   -8.135151
     13          1           0       -4.850995   -2.971705   -9.779932
     14          1           0       -2.324826   -2.675815   -6.580154
     15          1           0       -4.069230   -2.528696   -6.411327
     16          1           0       -4.344996    0.953809   -8.631128
     17          7           0       -7.446056   -1.365012   -9.112310
     18          6           0       -8.802350   -1.255934   -9.641478
     19          6           0       -9.768099   -1.462219   -8.461337
     20          8           0      -10.378071   -2.514911   -8.288841
     21          6           0       -9.071419   -2.276084  -10.787989
     22          6           0       -7.817311   -2.634254  -11.555260
     23          6           0       -7.100582   -1.665876  -12.273660
     24          6           0       -7.299658   -3.934339  -11.494622
     25          6           0       -5.885605   -1.981423  -12.882769
     26          6           0       -6.086824   -4.259411  -12.108969
     27          6           0       -5.368975   -3.278058  -12.795966
     28          1           0       -7.218251   -2.295414   -8.759998
     29          1           0       -8.895957   -0.238776  -10.026237
     30          1           0       -9.517612   -3.175161  -10.356105
     31          1           0       -9.829113   -1.843392  -11.451867
     32          1           0       -7.476214   -0.647858  -12.323849
     33          1           0       -7.865098   -4.707718  -10.978566
     34          1           0       -5.344240   -1.215052  -13.430648
     35          1           0       -5.711398   -5.278377  -12.061425
     36          1           0       -4.426955   -3.524944  -13.277556
     37          7           0       -9.912405   -0.423391   -7.581155
     38          6           0       -9.010407    0.701189   -7.370089
     39          6           0       -7.838050    0.403258   -6.405449
     40          8           0       -6.754630    0.961911   -6.539428
     41          6           0       -9.791963    1.943471   -6.898127
     42          6           0      -10.620735    1.717358   -5.630287
     43          7           0      -11.325995    2.786444   -5.203901
     44          8           0      -10.655424    0.635476   -5.031376
     45          1           0      -10.538613   -0.635580   -6.810655
     46          1           0       -8.519831    0.967534   -8.308490
     47          1           0      -10.465402    2.257301   -7.704849
     48          1           0       -9.085710    2.765929   -6.731783
     49          1           0      -11.927386    2.680278   -4.397344
     50          1           0      -11.344383    3.662633   -5.705693
     51          7           0       -8.078459   -0.494092   -5.395367
     52          6           0       -7.088200   -0.627789   -4.346268
     53          6           0       -5.783350   -1.207197   -4.895800
     54          8           0       -5.660730   -1.774926   -5.962516
     55          6           0       -7.630761   -1.463468   -3.158639
     56          6           0       -8.302277   -2.814418   -3.478983
     57          6           0       -7.496546   -3.795929   -4.348514
     58          7           0       -7.880816   -3.669266   -5.749821
     59          6           0       -7.166990   -4.337756   -6.718777
     60          7           0       -6.128779   -5.039100   -6.426860
     61          7           0       -7.689723   -4.103924   -8.013553
     62          8           0       -4.705809   -1.089063   -4.100197
     63          1           0       -4.906103   -0.586597   -3.291277
     64          1           0       -9.053614   -0.537645   -5.101189
     65          1           0       -6.818615    0.370665   -3.964893
     66          1           0       -6.800418   -1.631461   -2.460974
     67          1           0       -8.351595   -0.832408   -2.625738
     68          1           0       -8.515232   -3.284732   -2.513070
     69          1           0       -9.282468   -2.651642   -3.944281
     70          1           0       -6.414849   -3.654504   -4.211645
     71          1           0       -7.699744   -4.826413   -4.041820
     72          1           0       -8.202322   -2.748685   -6.028796
     73          1           0       -5.810796   -5.578375   -7.234256
     74          1           0       -7.380310   -4.785250   -8.698151
     75          1           0       -8.705529   -4.001006   -8.037125
 ---------------------------------------------------------------------
 Rotational constants (GHZ):           0.1289091           0.0868699           0.0719263
 Standard basis: 6-31G(d) (6D, 7F)
   657 basis functions,  1236 primitive gaussians,   657 cartesian basis functions
   146 alpha electrons      146 beta electrons
       nuclear repulsion energy      5227.8594831380 Hartrees.
 NAtoms=   75 NActive=   75 NUniq=   75 SFac= 1.00D+00 NAtFMM=   60 NAOKFM=T Big=T
 Integral buffers will be    131072 words long.
 Raffenetti 2 integral format.
 Two-electron integral symmetry is turned off.
 Nuclear repulsion after empirical dispersion term =     5227.7342284682 Hartrees.
 One-electron integrals computed using PRISM.
 NBasis=   657 RedAO= T EigKep=  4.59D-04  NBF=   657
 NBsUse=   657 1.00D-06 EigRej= -1.00D+00 NBFU=   657
 Initial guess from the checkpoint file:  "conf-234.chk"
 B after Tr=     0.000000    0.000000    0.000000
         Rot=    1.000000    0.000000    0.000000    0.000000 Ang=   0.00 deg.
 Requested convergence on RMS density matrix=1.00D-08 within 128 cycles.
 Requested convergence on MAX density matrix=1.00D-06.
 Requested convergence on             energy=1.00D-06.
 No special actions if energy rises.
 SCF Done:  E(RB3LYP) =  -1917.44659782     A.U. after    1 cycles
            NFock=  1  Conv=0.78D-08     -V/T= 2.0093

 **********************************************************************

            Population analysis using the SCF Density.

 **********************************************************************

 Alpha  occ. eigenvalues --  -19.36755 -19.32556 -19.27017 -19.23252 -19.23174
 Alpha  occ. eigenvalues --  -19.21224 -19.20351 -14.52930 -14.46801 -14.46697
 Alpha  occ. eigenvalues --  -14.45361 -14.44533 -14.43684 -14.42358 -14.41104
 Alpha  occ. eigenvalues --  -14.37183 -10.48149 -10.45059 -10.40819 -10.39698
 Alpha  occ. eigenvalues --  -10.38408 -10.37583 -10.36460 -10.36147 -10.34258
 Alpha  occ. eigenvalues --  -10.33260 -10.32256 -10.32054 -10.31195 -10.31067
 Alpha  occ. eigenvalues --  -10.29960 -10.28710 -10.27853 -10.27264 -10.27195
 Alpha  occ. eigenvalues --  -10.27179 -10.27029 -10.26964 -10.26606  -1.26539
 Alpha  occ. eigenvalues --   -1.23421  -1.15453  -1.14868  -1.14465  -1.13144
 Alpha  occ. eigenvalues --   -1.12266  -1.09627  -1.05972  -1.04161  -1.02292
 Alpha  occ. eigenvalues --   -1.01661  -1.01218  -0.98920  -0.97172  -0.93551
 Alpha  occ. eigenvalues --   -0.92698  -0.90712  -0.90333  -0.88530  -0.86853
 Alpha  occ. eigenvalues --   -0.84270  -0.82659  -0.82413  -0.80146  -0.78799
 Alpha  occ. eigenvalues --   -0.77696  -0.75998  -0.74843  -0.74494  -0.73820
 Alpha  occ. eigenvalues --   -0.71134  -0.70103  -0.69521  -0.68864  -0.68754
 Alpha  occ. eigenvalues --   -0.68238  -0.67464  -0.67202  -0.66027  -0.64971
 Alpha  occ. eigenvalues --   -0.64241  -0.63333  -0.62888  -0.61952  -0.61537
 Alpha  occ. eigenvalues --   -0.60396  -0.60324  -0.59810  -0.59213  -0.58538
 Alpha  occ. eigenvalues --   -0.57758  -0.57455  -0.56537  -0.56178  -0.55989
 Alpha  occ. eigenvalues --   -0.55911  -0.55313  -0.55205  -0.54726  -0.54272
 Alpha  occ. eigenvalues --   -0.53810  -0.53468  -0.53277  -0.52759  -0.52672
 Alpha  occ. eigenvalues --   -0.52428  -0.52157  -0.51698  -0.50810  -0.50581
 Alpha  occ. eigenvalues --   -0.50163  -0.49991  -0.49954  -0.49404  -0.49205
 Alpha  occ. eigenvalues --   -0.48100  -0.47722  -0.47450  -0.47141  -0.46633
 Alpha  occ. eigenvalues --   -0.46370  -0.46322  -0.45226  -0.44980  -0.44229
 Alpha  occ. eigenvalues --   -0.44197  -0.43952  -0.43527  -0.43262  -0.41871
 Alpha  occ. eigenvalues --   -0.41484  -0.40988  -0.38888  -0.38437  -0.37731
 Alpha  occ. eigenvalues --   -0.36925  -0.36475  -0.35753  -0.35118  -0.34244
 Alpha  occ. eigenvalues --   -0.33926  -0.33694  -0.33121  -0.32803  -0.32446
 Alpha  occ. eigenvalues --   -0.31125
 Alpha virt. eigenvalues --   -0.15677  -0.12077  -0.10331  -0.09040  -0.08783
 Alpha virt. eigenvalues --   -0.08653  -0.08459  -0.07919  -0.06795  -0.06145
 Alpha virt. eigenvalues --   -0.03630  -0.03315  -0.02589  -0.02023  -0.01189
 Alpha virt. eigenvalues --    0.00739   0.00967   0.01430   0.01510   0.02647
 Alpha virt. eigenvalues --    0.02865   0.03285   0.03799   0.04111   0.04511
 Alpha virt. eigenvalues --    0.04870   0.05163   0.05374   0.05582   0.06148
 Alpha virt. eigenvalues --    0.06347   0.06608   0.06887   0.07200   0.07314
 Alpha virt. eigenvalues --    0.07607   0.08142   0.08681   0.08930   0.08961
 Alpha virt. eigenvalues --    0.09537   0.10089   0.10114   0.10225   0.10661
 Alpha virt. eigenvalues --    0.11238   0.11613   0.12282   0.12674   0.13020
 Alpha virt. eigenvalues --    0.13263   0.13544   0.14571   0.14810   0.15204
 Alpha virt. eigenvalues --    0.15767   0.16027   0.16734   0.17037   0.17320
 Alpha virt. eigenvalues --    0.17889   0.18867   0.19385   0.20047   0.20746
 Alpha virt. eigenvalues --    0.22158   0.22946   0.23682   0.23998   0.24333
 Alpha virt. eigenvalues --    0.24523   0.25415   0.26071   0.26869   0.27549
 Alpha virt. eigenvalues --    0.27674   0.28593   0.29256   0.30155   0.31056
 Alpha virt. eigenvalues --    0.31416   0.34121   0.35208   0.37813   0.38209
 Alpha virt. eigenvalues --    0.38849   0.39280   0.40075   0.40471   0.41245
 Alpha virt. eigenvalues --    0.41484   0.42446   0.43175   0.43796   0.44224
 Alpha virt. eigenvalues --    0.44942   0.45202   0.45654   0.46223   0.46527
 Alpha virt. eigenvalues --    0.46726   0.47325   0.47670   0.47870   0.48096
 Alpha virt. eigenvalues --    0.48639   0.49473   0.49952   0.50109   0.50434
 Alpha virt. eigenvalues --    0.50895   0.51368   0.51972   0.52466   0.52709
 Alpha virt. eigenvalues --    0.53294   0.53487   0.53546   0.53735   0.53874
 Alpha virt. eigenvalues --    0.54364   0.55034   0.55127   0.55391   0.55622
 Alpha virt. eigenvalues --    0.56268   0.57013   0.57140   0.57603   0.58092
 Alpha virt. eigenvalues --    0.58148   0.58958   0.59225   0.59432   0.60346
 Alpha virt. eigenvalues --    0.60473   0.60901   0.61811   0.61966   0.62697
 Alpha virt. eigenvalues --    0.63474   0.63818   0.64747   0.65092   0.65551
 Alpha virt. eigenvalues --    0.66040   0.66873   0.66970   0.67150   0.68159
 Alpha virt. eigenvalues --    0.68444   0.69611   0.69889   0.70426   0.71413
 Alpha virt. eigenvalues --    0.71713   0.72336   0.72783   0.72944   0.73586
 Alpha virt. eigenvalues --    0.73902   0.74570   0.74909   0.75244   0.75792
 Alpha virt. eigenvalues --    0.76236   0.76489   0.76837   0.77070   0.77251
 Alpha virt. eigenvalues --    0.77367   0.78062   0.78646   0.79395   0.79491
 Alpha virt. eigenvalues --    0.79780   0.80034   0.80507   0.80664   0.80797
 Alpha virt. eigenvalues --    0.81164   0.81506   0.81960   0.82659   0.83017
 Alpha virt. eigenvalues --    0.83083   0.83405   0.83980   0.84066   0.84157
 Alpha virt. eigenvalues --    0.84695   0.85289   0.86190   0.86348   0.86609
 Alpha virt. eigenvalues --    0.86816   0.87554   0.88139   0.88256   0.88430
 Alpha virt. eigenvalues --    0.89535   0.90054   0.90763   0.91073   0.91402
 Alpha virt. eigenvalues --    0.92439   0.92936   0.93558   0.94073   0.94949
 Alpha virt. eigenvalues --    0.95216   0.96353   0.96785   0.97295   0.98748
 Alpha virt. eigenvalues --    0.99014   1.00096   1.00881   1.01030   1.03171
 Alpha virt. eigenvalues --    1.03698   1.04167   1.04823   1.05728   1.05994
 Alpha virt. eigenvalues --    1.06873   1.07374   1.08142   1.09119   1.09626
 Alpha virt. eigenvalues --    1.10074   1.10866   1.11778   1.12011   1.12723
 Alpha virt. eigenvalues --    1.13526   1.14211   1.15007   1.16042   1.16808
 Alpha virt. eigenvalues --    1.17286   1.17689   1.18848   1.19799   1.20636
 Alpha virt. eigenvalues --    1.21088   1.21521   1.22205   1.24270   1.25146
 Alpha virt. eigenvalues --    1.25571   1.26001   1.26433   1.27656   1.28642
 Alpha virt. eigenvalues --    1.28998   1.29421   1.30118   1.31059   1.31454
 Alpha virt. eigenvalues --    1.32196   1.32855   1.34527   1.35031   1.36018
 Alpha virt. eigenvalues --    1.36435   1.37705   1.38568   1.38828   1.39587
 Alpha virt. eigenvalues --    1.40426   1.40503   1.41566   1.42375   1.42748
 Alpha virt. eigenvalues --    1.42967   1.43594   1.45333   1.46420   1.47053
 Alpha virt. eigenvalues --    1.48351   1.49018   1.49723   1.50966   1.52253
 Alpha virt. eigenvalues --    1.53031   1.53686   1.54317   1.54704   1.56415
 Alpha virt. eigenvalues --    1.56914   1.57834   1.58183   1.59068   1.59268
 Alpha virt. eigenvalues --    1.59688   1.60545   1.61762   1.62471   1.63001
 Alpha virt. eigenvalues --    1.63501   1.63662   1.64010   1.64772   1.65414
 Alpha virt. eigenvalues --    1.66774   1.67144   1.68388   1.68544   1.69460
 Alpha virt. eigenvalues --    1.69886   1.70640   1.71055   1.71528   1.71975
 Alpha virt. eigenvalues --    1.72357   1.72854   1.74295   1.74566   1.75330
 Alpha virt. eigenvalues --    1.75895   1.76629   1.76845   1.77724   1.78232
 Alpha virt. eigenvalues --    1.78616   1.79364   1.79559   1.80267   1.81238
 Alpha virt. eigenvalues --    1.81458   1.82099   1.82752   1.83213   1.83811
 Alpha virt. eigenvalues --    1.84228   1.84971   1.85536   1.86391   1.86984
 Alpha virt. eigenvalues --    1.87224   1.88959   1.89383   1.90334   1.90857
 Alpha virt. eigenvalues --    1.91502   1.91853   1.92218   1.93488   1.93595
 Alpha virt. eigenvalues --    1.94062   1.95020   1.95405   1.96480   1.96647
 Alpha virt. eigenvalues --    1.97575   1.98235   1.99048   1.99591   2.00130
 Alpha virt. eigenvalues --    2.00505   2.01158   2.01892   2.02899   2.03953
 Alpha virt. eigenvalues --    2.04801   2.04930   2.05907   2.06474   2.07646
 Alpha virt. eigenvalues --    2.08034   2.08210   2.09231   2.10369   2.10997
 Alpha virt. eigenvalues --    2.11762   2.12126   2.13058   2.14046   2.14844
 Alpha virt. eigenvalues --    2.16303   2.16679   2.17981   2.18784   2.20111
 Alpha virt. eigenvalues --    2.20249   2.20760   2.21320   2.22051   2.22427
 Alpha virt. eigenvalues --    2.23012   2.23663   2.24455   2.24904   2.26936
 Alpha virt. eigenvalues --    2.27617   2.28715   2.29288   2.30535   2.31269
 Alpha virt. eigenvalues --    2.31538   2.32388   2.33544   2.34125   2.34834
 Alpha virt. eigenvalues --    2.35598   2.35912   2.36701   2.37432   2.39671
 Alpha virt. eigenvalues --    2.39867   2.41950   2.42665   2.43608   2.44535
 Alpha virt. eigenvalues --    2.45690   2.46210   2.46691   2.48505   2.49071
 Alpha virt. eigenvalues --    2.49311   2.50464   2.50640   2.51280   2.51547
 Alpha virt. eigenvalues --    2.52204   2.52805   2.53546   2.54218   2.54735
 Alpha virt. eigenvalues --    2.55267   2.56355   2.57645   2.57804   2.59410
 Alpha virt. eigenvalues --    2.61122   2.62011   2.62888   2.63070   2.63964
 Alpha virt. eigenvalues --    2.64744   2.65459   2.66079   2.67394   2.67626
 Alpha virt. eigenvalues --    2.68369   2.70472   2.72217   2.72704   2.74471
 Alpha virt. eigenvalues --    2.74756   2.76521   2.78079   2.83275   2.86880
 Alpha virt. eigenvalues --    2.87454   2.87954   2.90507   2.91572   2.92690
 Alpha virt. eigenvalues --    2.94055   2.95252   2.95787   2.96589   2.98164
 Alpha virt. eigenvalues --    2.99097   3.00897   3.01208   3.05274   3.07793
 Alpha virt. eigenvalues --    3.08003   3.33262   3.70186   3.71960   3.76587
 Alpha virt. eigenvalues --    3.81162   3.83887   3.87735   3.89692   3.90796
 Alpha virt. eigenvalues --    3.96073   3.98195   4.00864   4.02023   4.03918
 Alpha virt. eigenvalues --    4.05263   4.07483   4.10670   4.12496   4.13076
 Alpha virt. eigenvalues --    4.15044   4.17237   4.19480   4.20923   4.23834
 Alpha virt. eigenvalues --    4.24558   4.27992   4.33710   4.34909   4.35598
 Alpha virt. eigenvalues --    4.37882   4.40743   4.41869   4.45217   4.48058
 Alpha virt. eigenvalues --    4.51463   4.54353   4.60119   4.66781   4.69127
 Alpha virt. eigenvalues --    4.72311
          Condensed to atoms (all electrons):
 Mulliken charges:
               1
     1  N   -0.767869
     2  C   -0.069315
     3  C    0.644916
     4  O   -0.540984
     5  C   -0.413879
     6  C    0.652060
     7  N   -0.696261
     8  O   -0.514900
     9  H    0.356219
    10  H    0.446330
    11  H    0.193806
    12  H    0.223759
    13  H    0.222340
    14  H    0.371147
    15  H    0.444232
    16  H    0.334356
    17  N   -0.668611
    18  C   -0.063194
    19  C    0.609074
    20  O   -0.514682
    21  C   -0.383526
    22  C    0.171486
    23  C   -0.186477
    24  C   -0.204537
    25  C   -0.137073
    26  C   -0.141189
    27  C   -0.140738
    28  H    0.422062
    29  H    0.196161
    30  H    0.179020
    31  H    0.177741
    32  H    0.156992
    33  H    0.126587
    34  H    0.150417
    35  H    0.141521
    36  H    0.145490
    37  N   -0.608424
    38  C   -0.090823
    39  C    0.633461
    40  O   -0.531313
    41  C   -0.390811
    42  C    0.610793
    43  N   -0.730111
    44  O   -0.542314
    45  H    0.355461
    46  H    0.222535
    47  H    0.202549
    48  H    0.206976
    49  H    0.366594
    50  H    0.362094
    51  N   -0.638865
    52  C   -0.062825
    53  C    0.684761
    54  O   -0.497423
    55  C   -0.315160
    56  C   -0.310920
    57  C   -0.105480
    58  N   -0.610601
    59  C    0.600270
    60  N   -0.657226
    61  N   -0.842418
    62  O   -0.569259
    63  H    0.436577
    64  H    0.385823
    65  H    0.177491
    66  H    0.150972
    67  H    0.185221
    68  H    0.175424
    69  H    0.167962
    70  H    0.152158
    71  H    0.180732
    72  H    0.348761
    73  H    0.267483
    74  H    0.331936
    75  H    0.375458
 Sum of Mulliken charges =   1.00000
 Mulliken charges with hydrogens summed into heavy atoms:
               1
     1  N   -0.077293
     2  C    0.124491
     3  C    0.644916
     4  O   -0.540984
     5  C    0.032220
     6  C    0.652060
     7  N    0.119118
     8  O   -0.068570
    17  N   -0.246550
    18  C    0.132968
    19  C    0.609074
    20  O   -0.514682
    21  C   -0.026765
    22  C    0.171486
    23  C   -0.029484
    24  C   -0.077950
    25  C    0.013344
    26  C    0.000332
    27  C    0.004751
    37  N   -0.252964
    38  C    0.131712
    39  C    0.633461
    40  O   -0.531313
    41  C    0.018714
    42  C    0.610793
    43  N   -0.001423
    44  O   -0.542314
    51  N   -0.253041
    52  C    0.114666
    53  C    0.684761
    54  O   -0.497423
    55  C    0.021032
    56  C    0.032465
    57  C    0.227410
    58  N   -0.261841
    59  C    0.600270
    60  N   -0.389743
    61  N   -0.135024
    62  O   -0.132682
 Electronic spatial extent (au):  <R**2>=         134380.3893
 Charge=              1.0000 electrons
 Dipole moment (field-independent basis, Debye):
    X=            -28.2782    Y=             -3.5497    Z=            -31.0727  Tot=             42.1636
 Quadrupole moment (field-independent basis, Debye-Ang):
   XX=             13.8921   YY=           -188.2638   ZZ=             19.5922
   XY=            -28.3186   XZ=            163.2669   YZ=             46.3704
 Traceless Quadrupole moment (field-independent basis, Debye-Ang):
   XX=             65.4852   YY=           -136.6706   ZZ=             71.1854
   XY=            -28.3186   XZ=            163.2669   YZ=             46.3704
 Octapole moment (field-independent basis, Debye-Ang**2):
  XXX=           2587.6476  YYY=           1022.6931  ZZZ=           3083.5757  XYY=           1363.4726
  XXY=            887.9203  XXZ=            416.2800  XZZ=            441.5948  YZZ=           -188.7389
  YYZ=           1425.6230  XYZ=             71.6482
 Hexadecapole moment (field-independent basis, Debye-Ang**3):
 XXXX=         -53639.1291 YYYY=          -7762.1002 ZZZZ=         -70967.1120 XXXY=         -13807.0714
 XXXZ=         -24451.6488 YYYX=          -6728.8907 YYYZ=          -8199.7956 ZZZX=         -27095.1400
 ZZZY=          -3279.4222 XXYY=         -11654.6414 XXZZ=         -18970.4849 YYZZ=         -13649.1765
 XXYZ=          -5745.5554 YYXZ=         -10381.8560 ZZXY=          -1506.8985
 N-N= 5.227734228468D+03 E-N=-1.489676934469D+04  KE= 1.899812219921D+03
 Unable to Open any file for archive entry.
 1\1\GINC-LAC-317\SP\RB3LYP\6-31G(d)\C23H36N9O7(1+)\KENGMITH\07-Jun-202
 2\0\\# B3LYP/6-31G* empiricaldispersion=gd3 guess=read geom=check nosy
 mm integral(ultrafinegrid)\\Candidate Structure: Conf:234 Charge calc 
 in gas phase\\1,1\N,0,-4.3583587773,0.0088333363,-8.2492371112\C,0,-5.
 0074377738,-0.8586580484,-9.2397966419\C,0,-6.4807202733,-0.4806634361
 ,-9.4818732664\O,0,-6.7259979523,0.6208260774,-9.9680291146\C,0,-4.769
 7206581,-2.3529520463,-8.8800294897\C,0,-3.4052433959,-2.4858417441,-8
 .3022013241\N,0,-3.2390974711,-2.6451216304,-7.0187651129\O,0,-2.41410
 46089,-2.4563808646,-9.1610882508\H,0,-4.951444558,0.0737873527,-7.421
 2168241\H,0,-1.5311579839,-2.4479030888,-8.7471141035\H,0,-4.517132926
 3,-0.6762365318,-10.2005459762\H,0,-5.4727096579,-2.7202938084,-8.1351
 508335\H,0,-4.8509949655,-2.9717045518,-9.779932018\H,0,-2.324826003,-
 2.675814583,-6.5801540509\H,0,-4.0692301485,-2.5286957658,-6.411326859
 3\H,0,-4.3449955284,0.9538085236,-8.6311283654\N,0,-7.446055802,-1.365
 012199,-9.1123095804\C,0,-8.8023497137,-1.2559339655,-9.6414780476\C,0
 ,-9.7680988437,-1.462219399,-8.4613366477\O,0,-10.3780709649,-2.514911
 0059,-8.2888414298\C,0,-9.0714185492,-2.2760839458,-10.7879888641\C,0,
 -7.8173105273,-2.6342544534,-11.5552604842\C,0,-7.1005819228,-1.665876
 4308,-12.2736599041\C,0,-7.2996576813,-3.9343393366,-11.4946220482\C,0
 ,-5.8856052995,-1.9814233161,-12.8827685879\C,0,-6.0868235832,-4.25941
 12857,-12.1089686854\C,0,-5.3689753936,-3.278058314,-12.7959657056\H,0
 ,-7.2182511746,-2.295413911,-8.7599981222\H,0,-8.8959570263,-0.2387763
 871,-10.0262372697\H,0,-9.5176121541,-3.1751608825,-10.3561045447\H,0,
 -9.8291133856,-1.8433916008,-11.4518667833\H,0,-7.4762144495,-0.647857
 8734,-12.3238486599\H,0,-7.8650978815,-4.7077177023,-10.9785658111\H,0
 ,-5.344240031,-1.2150517413,-13.4306482484\H,0,-5.7113982739,-5.278377
 4921,-12.061425258\H,0,-4.4269553103,-3.5249440649,-13.2775564753\N,0,
 -9.9124050303,-0.4233911916,-7.5811550848\C,0,-9.0104066525,0.70118934
 69,-7.3700885097\C,0,-7.8380497419,0.4032581013,-6.4054485229\O,0,-6.7
 546295482,0.9619114949,-6.5394284359\C,0,-9.79196327,1.943470971,-6.89
 81269033\C,0,-10.6207352861,1.7173581751,-5.6302868875\N,0,-11.3259947
 431,2.7864441456,-5.2039011443\O,0,-10.6554239671,0.6354761149,-5.0313
 75767\H,0,-10.5386131596,-0.6355801577,-6.8106550214\H,0,-8.5198308047
 ,0.9675341835,-8.3084896259\H,0,-10.4654016417,2.2573008607,-7.7048487
 578\H,0,-9.0857095465,2.7659285645,-6.7317833649\H,0,-11.927386351,2.6
 802781475,-4.3973444275\H,0,-11.344383042,3.6626326708,-5.7056931842\N
 ,0,-8.0784589876,-0.4940920306,-5.3953669582\C,0,-7.0882003254,-0.6277
 891146,-4.3462682203\C,0,-5.7833498843,-1.2071968987,-4.8958001683\O,0
 ,-5.6607301734,-1.7749257803,-5.9625160445\C,0,-7.6307606702,-1.463467
 7926,-3.1586394959\C,0,-8.3022770119,-2.8144177694,-3.4789827548\C,0,-
 7.4965461935,-3.7959291057,-4.3485143136\N,0,-7.8808155964,-3.66926556
 93,-5.7498209576\C,0,-7.1669899193,-4.3377564081,-6.7187766065\N,0,-6.
 1287791424,-5.0391004008,-6.4268597632\N,0,-7.6897226377,-4.1039243053
 ,-8.0135534561\O,0,-4.705809407,-1.0890629971,-4.1001973544\H,0,-4.906
 1028901,-0.5865969956,-3.29127685\H,0,-9.0536139851,-0.5376451382,-5.1
 011891722\H,0,-6.8186147671,0.3706646415,-3.9648925442\H,0,-6.80041802
 93,-1.6314611195,-2.4609738207\H,0,-8.3515947321,-0.8324075448,-2.6257
 37581\H,0,-8.5152321767,-3.2847323741,-2.5130697257\H,0,-9.2824684076,
 -2.6516423507,-3.9442811733\H,0,-6.4148491153,-3.6545039647,-4.2116448
 716\H,0,-7.6997436894,-4.8264129516,-4.0418203497\H,0,-8.2023222834,-2
 .7486849508,-6.0287956537\H,0,-5.8107960892,-5.578375014,-7.2342560781
 \H,0,-7.3803098708,-4.7852500182,-8.698151121\H,0,-8.7055286496,-4.001
 0063475,-8.0371250178\\Version=ES64L-G16RevC.01\HF=-1917.4465978\RMSD=
 7.814e-09\Dipole=2.4476567,1.4345551,2.2801254\Quadrupole=48.6866697,-
 101.6112734,52.9246037,-21.0541957,121.3849137,34.4752758\PG=C01 [X(C2
 3H36N9O7)]\\@
 The archive entry for this job was punched.


 HAPPINESS IS NOT HAVING WHAT YOU WANT --
 HAPPINESS IS WANTING WHAT YOU HAVE!

              -- FROM MRS. SEVERN'S DESK
 Job cpu time:       0 days  0 hours  2 minutes 54.3 seconds.
 Elapsed time:       0 days  0 hours  0 minutes 44.9 seconds.
 File lengths (MBytes):  RWF=    344 Int=      0 D2E=      0 Chk=     48 Scr=     16
 Normal termination of Gaussian 16 at Tue Jun  7 01:06:14 2022.
