 Entering Gaussian System, Link 0=/opt/software/Gaussian/g16-AVX2-C.01/g16/g16
 Input=charge-conf-549.com
 Output=charge-conf-549.log
 Initial command:
 /opt/software/Gaussian/g16-AVX2-C.01/g16/l1.exe "/mnt/gs18/scratch/users/kengmith/Gau-25100.inp" -scrdir="/mnt/gs18/scratch/users/kengmith/"
 Entering Link 1 = /opt/software/Gaussian/g16-AVX2-C.01/g16/l1.exe PID=     25128.
  
 Copyright (c) 1988-2019, Gaussian, Inc.  All Rights Reserved.
  
 This is part of the Gaussian(R) 16 program.  It is based on
 the Gaussian(R) 09 system (copyright 2009, Gaussian, Inc.),
 the Gaussian(R) 03 system (copyright 2003, Gaussian, Inc.),
 the Gaussian(R) 98 system (copyright 1998, Gaussian, Inc.),
 the Gaussian(R) 94 system (copyright 1995, Gaussian, Inc.),
 the Gaussian 92(TM) system (copyright 1992, Gaussian, Inc.),
 the Gaussian 90(TM) system (copyright 1990, Gaussian, Inc.),
 the Gaussian 88(TM) system (copyright 1988, Gaussian, Inc.),
 the Gaussian 86(TM) system (copyright 1986, Carnegie Mellon
 University), and the Gaussian 82(TM) system (copyright 1983,
 Carnegie Mellon University). Gaussian is a federally registered
 trademark of Gaussian, Inc.
  
 This software contains proprietary and confidential information,
 including trade secrets, belonging to Gaussian, Inc.
  
 This software is provided under written license and may be
 used, copied, transmitted, or stored only in accord with that
 written license.
  
 The following legend is applicable only to US Government
 contracts under FAR:
  
                    RESTRICTED RIGHTS LEGEND
  
 Use, reproduction and disclosure by the US Government is
 subject to restrictions as set forth in subparagraphs (a)
 and (c) of the Commercial Computer Software - Restricted
 Rights clause in FAR 52.227-19.
  
 Gaussian, Inc.
 340 Quinnipiac St., Bldg. 40, Wallingford CT 06492
  
  
 ---------------------------------------------------------------
 Warning -- This program may not be used in any manner that
 competes with the business of Gaussian, Inc. or will provide
 assistance to any competitor of Gaussian, Inc.  The licensee
 of this program is prohibited from giving any competitor of
 Gaussian, Inc. access to this program.  By using this program,
 the user acknowledges that Gaussian, Inc. is engaged in the
 business of creating and licensing software in the field of
 computational chemistry and represents and warrants to the
 licensee that it is not a competitor of Gaussian, Inc. and that
 it will not use this program in any manner prohibited above.
 ---------------------------------------------------------------
  

 Cite this work as:
 Gaussian 16, Revision C.01,
 M. J. Frisch, G. W. Trucks, H. B. Schlegel, G. E. Scuseria, 
 M. A. Robb, J. R. Cheeseman, G. Scalmani, V. Barone, 
 G. A. Petersson, H. Nakatsuji, X. Li, M. Caricato, A. V. Marenich, 
 J. Bloino, B. G. Janesko, R. Gomperts, B. Mennucci, H. P. Hratchian, 
 J. V. Ortiz, A. F. Izmaylov, J. L. Sonnenberg, D. Williams-Young, 
 F. Ding, F. Lipparini, F. Egidi, J. Goings, B. Peng, A. Petrone, 
 T. Henderson, D. Ranasinghe, V. G. Zakrzewski, J. Gao, N. Rega, 
 G. Zheng, W. Liang, M. Hada, M. Ehara, K. Toyota, R. Fukuda, 
 J. Hasegawa, M. Ishida, T. Nakajima, Y. Honda, O. Kitao, H. Nakai, 
 T. Vreven, K. Throssell, J. A. Montgomery, Jr., J. E. Peralta, 
 F. Ogliaro, M. J. Bearpark, J. J. Heyd, E. N. Brothers, K. N. Kudin, 
 V. N. Staroverov, T. A. Keith, R. Kobayashi, J. Normand, 
 K. Raghavachari, A. P. Rendell, J. C. Burant, S. S. Iyengar, 
 J. Tomasi, M. Cossi, J. M. Millam, M. Klene, C. Adamo, R. Cammi, 
 J. W. Ochterski, R. L. Martin, K. Morokuma, O. Farkas, 
 J. B. Foresman, and D. J. Fox, Gaussian, Inc., Wallingford CT, 2019.
 
 ******************************************
 Gaussian 16:  ES64L-G16RevC.01  3-Jul-2019
                 7-Jun-2022 
 ******************************************
 %mem=8gb
 %nproc=4
 Will use up to    4 processors via shared memory.
 %chk=conf-549.chk
 ----------------------------------------------------------------------
 # B3LYP/6-31G* empiricaldispersion=gd3 guess=read geom=check nosymm in
 tegral(ultrafinegrid)
 ----------------------------------------------------------------------
 1/29=2,38=1,172=1/1;
 2/12=2,15=1,40=1/2;
 3/5=1,6=6,7=1,11=2,14=-4,25=1,30=1,74=-5,75=-5,116=-2,124=31/1,2,3;
 4/5=1/1;
 5/5=2,38=6/2;
 6/7=2,8=2,9=2,10=2,28=1/1;
 99/5=1,9=1/99;
 ------------------------------------------------------
 Candidate Structure: Conf:549 Charge calc in gas phase
 ------------------------------------------------------
 Structure from the checkpoint file:  "conf-549.chk"
 Charge =  1 Multiplicity = 1
 Redundant internal coordinates found in file.  (old form).
 N,0,-10.6137277168,-0.4408351003,-8.5423478294
 C,0,-10.068490279,-1.6976174115,-8.0338734691
 C,0,-9.449010082,-1.5504279002,-6.6261791939
 O,0,-9.9935438285,-0.7877502733,-5.8313879277
 C,0,-9.0992636996,-2.2712472456,-9.0986553029
 C,0,-9.8361915723,-2.34298747,-10.3896782094
 N,0,-9.634650992,-1.4861014956,-11.3463072403
 O,0,-10.6953364025,-3.3351333919,-10.4811415598
 H,0,-11.2737449897,-0.0847890036,-7.851685512
 H,0,-11.2420630841,-3.3153650997,-11.288771524
 H,0,-10.9053843011,-2.3989234883,-7.9202644804
 H,0,-8.2156422061,-1.6345275838,-9.2039639562
 H,0,-8.7773138669,-3.2831341902,-8.8354834742
 H,0,-10.1922495494,-1.4785749901,-12.1948686518
 H,0,-9.0326075973,-0.6558784147,-11.1588999653
 H,0,-9.871127554,0.2628698465,-8.5842882843
 N,0,-8.3287721771,-2.2574816625,-6.3387264445
 C,0,-7.6444494926,-2.1561100883,-5.051103285
 C,0,-6.2013292103,-1.7003409543,-5.3376350492
 O,0,-5.2405702885,-2.4592223314,-5.1887568722
 C,0,-7.7272026364,-3.4620109858,-4.2203007408
 C,0,-7.4305165382,-4.7424964862,-4.9721023959
 C,0,-8.4108924791,-5.3207246213,-5.7921584324
 C,0,-6.1776182888,-5.3662998858,-4.8872719562
 C,0,-8.1377719509,-6.4686344284,-6.539055611
 C,0,-5.9025891179,-6.5188792248,-5.6262452502
 C,0,-6.8776015451,-7.0685677918,-6.4638804752
 H,0,-7.8689725824,-2.8558217309,-7.0238085285
 H,0,-8.1661823418,-1.3785456356,-4.4878781243
 H,0,-7.0510072599,-3.355593209,-3.366884912
 H,0,-8.7477660184,-3.5072373749,-3.8237510488
 H,0,-9.3981203763,-4.8676233793,-5.8404640823
 H,0,-5.4091369356,-4.925888984,-4.2609322947
 H,0,-8.9138201859,-6.9067827152,-7.1616711409
 H,0,-4.9265694445,-6.9892565835,-5.5453794944
 H,0,-6.6654634441,-7.9705407337,-7.0314505563
 N,0,-6.0290373755,-0.4425698806,-5.8256511379
 C,0,-7.0150685417,0.5836087227,-6.1209185137
 C,0,-7.2072681854,0.8731063189,-7.6249619698
 O,0,-7.9821397855,1.7733250299,-7.9514144992
 C,0,-6.651014002,1.917722916,-5.4359488584
 C,0,-5.3313039268,2.4818265825,-5.9631438998
 N,0,-4.9359743314,3.6559040268,-5.4198743482
 O,0,-4.6738416545,1.8945548755,-6.8248432913
 H,0,-5.0677516201,-0.1877524574,-6.0351104325
 H,0,-7.9906276501,0.292038052,-5.7332940384
 H,0,-6.5857941127,1.7611762719,-4.352845292
 H,0,-7.4562881114,2.6348401874,-5.624278283
 H,0,-4.0731645859,4.0730391502,-5.7423065923
 H,0,-5.4896528087,4.1560241639,-4.7399608454
 N,0,-6.490263085,0.1794023828,-8.5602121188
 C,0,-6.0877559606,0.9698507384,-9.7239113201
 C,0,-7.2867466198,1.4333301591,-10.53175345
 O,0,-8.2610468551,0.7632877418,-10.8550669999
 C,0,-5.0614401639,0.2471770845,-10.6274698069
 C,0,-5.53402554,-0.9563997094,-11.4796503691
 C,0,-5.0927407244,-2.3520429563,-11.0060467217
 N,0,-5.8986029612,-2.9329194675,-9.9269663977
 C,0,-5.453561161,-2.9322207414,-8.6183611278
 N,0,-4.5919113835,-2.058034426,-8.2247686439
 N,0,-6.1384838331,-3.8350130887,-7.7915077126
 O,0,-7.1232287489,2.6801968824,-10.9725569598
 H,0,-7.898350237,2.9135411705,-11.5185483481
 H,0,-5.7599683832,-0.4680640952,-8.2425427815
 H,0,-5.5965883318,1.8779901529,-9.3557685353
 H,0,-4.6714094854,1.0227973843,-11.2954370245
 H,0,-4.2313922028,-0.0538138522,-9.9802580663
 H,0,-6.6221390022,-0.9508407669,-11.6048491526
 H,0,-5.1174880567,-0.8307782446,-12.4867217336
 H,0,-5.1581599347,-3.0402689849,-11.856299992
 H,0,-4.0466715451,-2.323509885,-10.6838969392
 H,0,-6.4477010434,-3.7395098553,-10.1888194944
 H,0,-4.3329752747,-2.2200033228,-7.2510965063
 H,0,-5.7374436867,-3.8995256761,-6.8587264807
 H,0,-6.295777653,-4.7709866252,-8.1566563398
 Recover connectivity data from disk.
                           ----------------------------
                           !    Current Parameters    !
                           ! (Angstroms and Degrees)  !
 --------------------------                            --------------------------
 ! Name  Definition              Value                                          !
 --------------------------------------------------------------------------------
 ! R1    R(1,2)                  1.4613                                         !
 ! R2    R(1,9)                  1.0195                                         !
 ! R3    R(1,16)                 1.0239                                         !
 ! R4    R(2,3)                  1.545                                          !
 ! R5    R(2,5)                  1.5499                                         !
 ! R6    R(2,11)                 1.0978                                         !
 ! R7    R(3,4)                  1.2288                                         !
 ! R8    R(3,17)                 1.3555                                         !
 ! R9    R(5,6)                  1.4883                                         !
 ! R10   R(5,12)                 1.0942                                         !
 ! R11   R(5,13)                 1.094                                          !
 ! R12   R(6,7)                  1.3                                            !
 ! R13   R(6,8)                  1.3156                                         !
 ! R14   R(7,14)                 1.0154                                         !
 ! R15   R(7,15)                 1.0425                                         !
 ! R16   R(8,10)                 0.9755                                         !
 ! R17   R(17,18)                1.4617                                         !
 ! R18   R(17,28)                1.0192                                         !
 ! R19   R(18,19)                1.5403                                         !
 ! R20   R(18,21)                1.55                                           !
 ! R21   R(18,29)                1.0927                                         !
 ! R22   R(19,20)                1.2333                                         !
 ! R23   R(19,37)                1.3601                                         !
 ! R24   R(21,22)                1.5142                                         !
 ! R25   R(21,30)                1.094                                          !
 ! R26   R(21,31)                1.0958                                         !
 ! R27   R(22,23)                1.4028                                         !
 ! R28   R(22,24)                1.4022                                         !
 ! R29   R(23,25)                1.3965                                         !
 ! R30   R(23,32)                1.0873                                         !
 ! R31   R(24,26)                1.3965                                         !
 ! R32   R(24,33)                1.0848                                         !
 ! R33   R(25,27)                1.3977                                         !
 ! R34   R(25,34)                1.0871                                         !
 ! R35   R(26,27)                1.398                                          !
 ! R36   R(26,35)                1.0865                                         !
 ! R37   R(27,36)                1.0866                                         !
 ! R38   R(37,38)                1.4534                                         !
 ! R39   R(37,45)                1.0163                                         !
 ! R40   R(38,39)                1.5437                                         !
 ! R41   R(38,41)                1.5432                                         !
 ! R42   R(38,46)                1.0895                                         !
 ! R43   R(39,40)                1.2318                                         !
 ! R44   R(39,51)                1.3675                                         !
 ! R45   R(41,42)                1.529                                          !
 ! R46   R(41,47)                1.0963                                         !
 ! R47   R(41,48)                1.0946                                         !
 ! R48   R(42,43)                1.3527                                         !
 ! R49   R(42,44)                1.2327                                         !
 ! R50   R(43,49)                1.0111                                         !
 ! R51   R(43,50)                1.0094                                         !
 ! R52   R(51,52)                1.4632                                         !
 ! R53   R(51,64)                1.0264                                         !
 ! R54   R(52,53)                1.5182                                         !
 ! R55   R(52,55)                1.5466                                         !
 ! R56   R(52,65)                1.0961                                         !
 ! R57   R(53,54)                1.2259                                         !
 ! R58   R(53,62)                1.3326                                         !
 ! R59   R(55,56)                1.5486                                         !
 ! R60   R(55,66)                1.0954                                         !
 ! R61   R(55,67)                1.0947                                         !
 ! R62   R(56,57)                1.5385                                         !
 ! R63   R(56,68)                1.0953                                         !
 ! R64   R(56,69)                1.097                                          !
 ! R65   R(57,58)                1.4667                                         !
 ! R66   R(57,70)                1.0958                                         !
 ! R67   R(57,71)                1.0949                                         !
 ! R68   R(58,59)                1.3822                                         !
 ! R69   R(58,72)                1.0103                                         !
 ! R70   R(59,60)                1.289                                          !
 ! R71   R(59,61)                1.4028                                         !
 ! R72   R(60,73)                1.0205                                         !
 ! R73   R(61,74)                1.0174                                         !
 ! R74   R(61,75)                1.0169                                         !
 ! R75   R(62,63)                0.9764                                         !
 ! A1    A(2,1,9)              107.8296                                         !
 ! A2    A(2,1,16)             109.5562                                         !
 ! A3    A(9,1,16)             104.907                                          !
 ! A4    A(1,2,3)              112.6259                                         !
 ! A5    A(1,2,5)              108.2155                                         !
 ! A6    A(1,2,11)             107.5175                                         !
 ! A7    A(3,2,5)              114.2341                                         !
 ! A8    A(3,2,11)             105.7975                                         !
 ! A9    A(5,2,11)             108.143                                          !
 ! A10   A(2,3,4)              118.0849                                         !
 ! A11   A(2,3,17)             118.3514                                         !
 ! A12   A(4,3,17)             123.5603                                         !
 ! A13   A(2,5,6)              107.7066                                         !
 ! A14   A(2,5,12)             110.8393                                         !
 ! A15   A(2,5,13)             111.1675                                         !
 ! A16   A(6,5,12)             110.1467                                         !
 ! A17   A(6,5,13)             108.0478                                         !
 ! A18   A(12,5,13)            108.8885                                         !
 ! A19   A(5,6,7)              121.992                                          !
 ! A20   A(5,6,8)              114.8355                                         !
 ! A21   A(7,6,8)              123.1724                                         !
 ! A22   A(6,7,14)             122.3243                                         !
 ! A23   A(6,7,15)             118.8266                                         !
 ! A24   A(14,7,15)            117.4806                                         !
 ! A25   A(6,8,10)             114.0969                                         !
 ! A26   A(3,17,18)            122.5159                                         !
 ! A27   A(3,17,28)            122.446                                          !
 ! A28   A(18,17,28)           114.9378                                         !
 ! A29   A(17,18,19)           107.175                                          !
 ! A30   A(17,18,21)           112.8766                                         !
 ! A31   A(17,18,29)           106.2523                                         !
 ! A32   A(19,18,21)           113.5181                                         !
 ! A33   A(19,18,29)           109.4311                                         !
 ! A34   A(21,18,29)           107.3232                                         !
 ! A35   A(18,19,20)           121.6906                                         !
 ! A36   A(18,19,37)           117.3277                                         !
 ! A37   A(20,19,37)           120.9074                                         !
 ! A38   A(18,21,22)           115.8417                                         !
 ! A39   A(18,21,30)           107.6481                                         !
 ! A40   A(18,21,31)           106.1683                                         !
 ! A41   A(22,21,30)           110.3928                                         !
 ! A42   A(22,21,31)           109.1014                                         !
 ! A43   A(30,21,31)           107.299                                          !
 ! A44   A(21,22,23)           120.1233                                         !
 ! A45   A(21,22,24)           121.416                                          !
 ! A46   A(23,22,24)           118.4533                                         !
 ! A47   A(22,23,25)           120.9833                                         !
 ! A48   A(22,23,32)           119.2569                                         !
 ! A49   A(25,23,32)           119.7592                                         !
 ! A50   A(22,24,26)           120.7402                                         !
 ! A51   A(22,24,33)           119.1633                                         !
 ! A52   A(26,24,33)           120.0716                                         !
 ! A53   A(23,25,27)           120.0259                                         !
 ! A54   A(23,25,34)           119.867                                          !
 ! A55   A(27,25,34)           120.0934                                         !
 ! A56   A(24,26,27)           120.2797                                         !
 ! A57   A(24,26,35)           119.6608                                         !
 ! A58   A(27,26,35)           120.0592                                         !
 ! A59   A(25,27,26)           119.4889                                         !
 ! A60   A(25,27,36)           120.2797                                         !
 ! A61   A(26,27,36)           120.2112                                         !
 ! A62   A(19,37,38)           129.7826                                         !
 ! A63   A(19,37,45)           115.1911                                         !
 ! A64   A(38,37,45)           115.0111                                         !
 ! A65   A(37,38,39)           114.5076                                         !
 ! A66   A(37,38,41)           111.1095                                         !
 ! A67   A(37,38,46)           110.2576                                         !
 ! A68   A(39,38,41)           107.44                                           !
 ! A69   A(39,38,46)           106.5801                                         !
 ! A70   A(41,38,46)           106.5394                                         !
 ! A71   A(38,39,40)           118.2675                                         !
 ! A72   A(38,39,51)           120.3943                                         !
 ! A73   A(40,39,51)           121.2852                                         !
 ! A74   A(38,41,42)           111.686                                          !
 ! A75   A(38,41,47)           109.2141                                         !
 ! A76   A(38,41,48)           108.4479                                         !
 ! A77   A(42,41,47)           109.9979                                         !
 ! A78   A(42,41,48)           109.5086                                         !
 ! A79   A(47,41,48)           107.8962                                         !
 ! A80   A(41,42,43)           115.7208                                         !
 ! A81   A(41,42,44)           121.7081                                         !
 ! A82   A(43,42,44)           122.5706                                         !
 ! A83   A(42,43,49)           118.6439                                         !
 ! A84   A(42,43,50)           122.6987                                         !
 ! A85   A(49,43,50)           118.5831                                         !
 ! A86   A(39,51,52)           114.4635                                         !
 ! A87   A(39,51,64)           118.7769                                         !
 ! A88   A(52,51,64)           113.0291                                         !
 ! A89   A(51,52,53)           111.768                                          !
 ! A90   A(51,52,55)           113.2504                                         !
 ! A91   A(51,52,65)           107.6812                                         !
 ! A92   A(53,52,55)           110.8451                                         !
 ! A93   A(53,52,65)           106.24                                           !
 ! A94   A(55,52,65)           106.6181                                         !
 ! A95   A(52,53,54)           126.9519                                         !
 ! A96   A(52,53,62)           111.3923                                         !
 ! A97   A(54,53,62)           121.4476                                         !
 ! A98   A(52,55,56)           118.8255                                         !
 ! A99   A(52,55,66)           105.1697                                         !
 ! A100  A(52,55,67)           106.632                                          !
 ! A101  A(56,55,66)           108.8694                                         !
 ! A102  A(56,55,67)           110.0616                                         !
 ! A103  A(66,55,67)           106.5719                                         !
 ! A104  A(55,56,57)           116.6231                                         !
 ! A105  A(55,56,68)           111.2306                                         !
 ! A106  A(55,56,69)           107.4755                                         !
 ! A107  A(57,56,68)           108.9501                                         !
 ! A108  A(57,56,69)           106.1152                                         !
 ! A109  A(68,56,69)           105.7648                                         !
 ! A110  A(56,57,58)           115.351                                          !
 ! A111  A(56,57,70)           108.2859                                         !
 ! A112  A(56,57,71)           109.9361                                         !
 ! A113  A(58,57,70)           106.8165                                         !
 ! A114  A(58,57,71)           108.589                                          !
 ! A115  A(70,57,71)           107.5588                                         !
 ! A116  A(57,58,59)           121.2939                                         !
 ! A117  A(57,58,72)           115.0954                                         !
 ! A118  A(59,58,72)           114.8844                                         !
 ! A119  A(58,59,60)           120.3084                                         !
 ! A120  A(58,59,61)           113.6101                                         !
 ! A121  A(60,59,61)           125.6514                                         !
 ! A122  A(59,60,73)           110.6907                                         !
 ! A123  A(59,61,74)           112.8774                                         !
 ! A124  A(59,61,75)           117.1429                                         !
 ! A125  A(74,61,75)           109.3794                                         !
 ! A126  A(53,62,63)           108.1301                                         !
 ! D1    D(9,1,2,3)            -54.623                                          !
 ! D2    D(9,1,2,5)            178.1259                                         !
 ! D3    D(9,1,2,11)            61.5341                                         !
 ! D4    D(16,1,2,3)            59.0192                                         !
 ! D5    D(16,1,2,5)           -68.2319                                         !
 ! D6    D(16,1,2,11)          175.1764                                         !
 ! D7    D(1,2,3,4)             36.4294                                         !
 ! D8    D(1,2,3,17)          -142.9196                                         !
 ! D9    D(5,2,3,4)            160.4158                                         !
 ! D10   D(5,2,3,17)           -18.9333                                         !
 ! D11   D(11,2,3,4)           -80.7524                                         !
 ! D12   D(11,2,3,17)           99.8985                                         !
 ! D13   D(1,2,5,6)            -53.3447                                         !
 ! D14   D(1,2,5,12)            67.2119                                         !
 ! D15   D(1,2,5,13)          -171.5333                                         !
 ! D16   D(3,2,5,6)           -179.6637                                         !
 ! D17   D(3,2,5,12)           -59.1071                                         !
 ! D18   D(3,2,5,13)            62.1478                                         !
 ! D19   D(11,2,5,6)            62.8415                                         !
 ! D20   D(11,2,5,12)         -176.6019                                         !
 ! D21   D(11,2,5,13)          -55.347                                          !
 ! D22   D(2,3,17,18)          178.0935                                         !
 ! D23   D(2,3,17,28)            1.9204                                         !
 ! D24   D(4,3,17,18)           -1.2174                                         !
 ! D25   D(4,3,17,28)         -177.3904                                         !
 ! D26   D(2,5,6,7)            104.1418                                         !
 ! D27   D(2,5,6,8)            -75.9931                                         !
 ! D28   D(12,5,6,7)           -16.8495                                         !
 ! D29   D(12,5,6,8)           163.0156                                         !
 ! D30   D(13,5,6,7)          -135.6795                                         !
 ! D31   D(13,5,6,8)            44.1856                                         !
 ! D32   D(5,6,7,14)          -174.342                                          !
 ! D33   D(5,6,7,15)            -8.0393                                         !
 ! D34   D(8,6,7,14)             5.8043                                         !
 ! D35   D(8,6,7,15)           172.107                                          !
 ! D36   D(5,6,8,10)           173.5923                                         !
 ! D37   D(7,6,8,10)            -6.5444                                         !
 ! D38   D(3,17,18,19)        -121.5688                                         !
 ! D39   D(3,17,18,21)         112.7179                                         !
 ! D40   D(3,17,18,29)          -4.6457                                         !
 ! D41   D(28,17,18,19)         54.8699                                         !
 ! D42   D(28,17,18,21)        -70.8434                                         !
 ! D43   D(28,17,18,29)        171.793                                          !
 ! D44   D(17,18,19,20)       -109.6398                                         !
 ! D45   D(17,18,19,37)         67.2522                                         !
 ! D46   D(21,18,19,20)         15.6883                                         !
 ! D47   D(21,18,19,37)       -167.4197                                         !
 ! D48   D(29,18,19,20)        135.5475                                         !
 ! D49   D(29,18,19,37)        -47.5606                                         !
 ! D50   D(17,18,21,22)         46.2191                                         !
 ! D51   D(17,18,21,30)        170.3008                                         !
 ! D52   D(17,18,21,31)        -75.0455                                         !
 ! D53   D(19,18,21,22)        -75.9999                                         !
 ! D54   D(19,18,21,30)         48.0819                                         !
 ! D55   D(19,18,21,31)        162.7355                                         !
 ! D56   D(29,18,21,22)        162.9499                                         !
 ! D57   D(29,18,21,30)        -72.9683                                         !
 ! D58   D(29,18,21,31)         41.6853                                         !
 ! D59   D(18,19,37,38)          0.6407                                         !
 ! D60   D(18,19,37,45)       -177.8491                                         !
 ! D61   D(20,19,37,38)        177.5584                                         !
 ! D62   D(20,19,37,45)         -0.9314                                         !
 ! D63   D(18,21,22,23)        -79.0775                                         !
 ! D64   D(18,21,22,24)         99.922                                          !
 ! D65   D(30,21,22,23)        158.2779                                         !
 ! D66   D(30,21,22,24)        -22.7226                                         !
 ! D67   D(31,21,22,23)         40.6021                                         !
 ! D68   D(31,21,22,24)       -140.3984                                         !
 ! D69   D(21,22,23,25)        177.1735                                         !
 ! D70   D(21,22,23,32)         -3.1039                                         !
 ! D71   D(24,22,23,25)         -1.8553                                         !
 ! D72   D(24,22,23,32)        177.8673                                         !
 ! D73   D(21,22,24,26)       -177.5496                                         !
 ! D74   D(21,22,24,33)          0.6387                                         !
 ! D75   D(23,22,24,26)          1.4661                                         !
 ! D76   D(23,22,24,33)        179.6544                                         !
 ! D77   D(22,23,25,27)          0.7926                                         !
 ! D78   D(22,23,25,34)        179.4452                                         !
 ! D79   D(32,23,25,27)       -178.9286                                         !
 ! D80   D(32,23,25,34)         -0.276                                          !
 ! D81   D(22,24,26,27)         -0.0184                                         !
 ! D82   D(22,24,26,35)       -179.8547                                         !
 ! D83   D(33,24,26,27)       -178.1903                                         !
 ! D84   D(33,24,26,35)          1.9734                                         !
 ! D85   D(23,25,27,26)          0.6895                                         !
 ! D86   D(23,25,27,36)        179.0576                                         !
 ! D87   D(34,25,27,26)       -177.96                                           !
 ! D88   D(34,25,27,36)          0.408                                          !
 ! D89   D(24,26,27,25)         -1.0733                                         !
 ! D90   D(24,26,27,36)       -179.4424                                         !
 ! D91   D(35,26,27,25)        178.7623                                         !
 ! D92   D(35,26,27,36)          0.3932                                         !
 ! D93   D(19,37,38,39)       -110.2336                                         !
 ! D94   D(19,37,38,41)        127.8234                                         !
 ! D95   D(19,37,38,46)          9.9347                                         !
 ! D96   D(45,37,38,39)         68.2583                                         !
 ! D97   D(45,37,38,41)        -53.6847                                         !
 ! D98   D(45,37,38,46)       -171.5734                                         !
 ! D99   D(37,38,39,40)       -176.753                                          !
 ! D100  D(37,38,39,51)          0.6324                                         !
 ! D101  D(41,38,39,40)        -52.8285                                         !
 ! D102  D(41,38,39,51)        124.5569                                         !
 ! D103  D(46,38,39,40)         61.0545                                         !
 ! D104  D(46,38,39,51)       -121.5601                                         !
 ! D105  D(37,38,41,42)         63.4027                                         !
 ! D106  D(37,38,41,47)        -58.4904                                         !
 ! D107  D(37,38,41,48)       -175.8329                                         !
 ! D108  D(39,38,41,42)        -62.567                                          !
 ! D109  D(39,38,41,47)        175.5398                                         !
 ! D110  D(39,38,41,48)         58.1973                                         !
 ! D111  D(46,38,41,42)       -176.4773                                         !
 ! D112  D(46,38,41,47)         61.6296                                         !
 ! D113  D(46,38,41,48)        -55.7129                                         !
 ! D114  D(38,39,51,52)       -143.6595                                         !
 ! D115  D(38,39,51,64)         -5.9098                                         !
 ! D116  D(40,39,51,52)         33.6458                                         !
 ! D117  D(40,39,51,64)        171.3956                                         !
 ! D118  D(38,41,42,43)        179.7659                                         !
 ! D119  D(38,41,42,44)         -0.4948                                         !
 ! D120  D(47,41,42,43)        -58.7937                                         !
 ! D121  D(47,41,42,44)        120.9456                                         !
 ! D122  D(48,41,42,43)         59.6219                                         !
 ! D123  D(48,41,42,44)       -120.6388                                         !
 ! D124  D(41,42,43,49)       -179.4725                                         !
 ! D125  D(41,42,43,50)         -2.6552                                         !
 ! D126  D(44,42,43,49)          0.7907                                         !
 ! D127  D(44,42,43,50)        177.608                                          !
 ! D128  D(39,51,52,53)        -64.8988                                         !
 ! D129  D(39,51,52,55)        169.0434                                         !
 ! D130  D(39,51,52,65)         51.4197                                         !
 ! D131  D(64,51,52,53)        154.9203                                         !
 ! D132  D(64,51,52,55)         28.8625                                         !
 ! D133  D(64,51,52,65)        -88.7612                                         !
 ! D134  D(51,52,53,54)        -44.7485                                         !
 ! D135  D(51,52,53,62)        140.4798                                         !
 ! D136  D(55,52,53,54)         82.6158                                         !
 ! D137  D(55,52,53,62)        -92.1559                                         !
 ! D138  D(65,52,53,54)       -161.9388                                         !
 ! D139  D(65,52,53,62)         23.2895                                         !
 ! D140  D(51,52,55,56)         71.4198                                         !
 ! D141  D(51,52,55,66)       -166.4605                                         !
 ! D142  D(51,52,55,67)        -53.5427                                         !
 ! D143  D(53,52,55,56)        -55.1279                                         !
 ! D144  D(53,52,55,66)         66.9918                                         !
 ! D145  D(53,52,55,67)        179.9096                                         !
 ! D146  D(65,52,55,56)       -170.3378                                         !
 ! D147  D(65,52,55,66)        -48.218                                          !
 ! D148  D(65,52,55,67)         64.6998                                         !
 ! D149  D(52,53,62,63)        177.3415                                         !
 ! D150  D(54,53,62,63)          2.2381                                         !
 ! D151  D(52,55,56,57)       -106.186                                          !
 ! D152  D(52,55,56,68)         19.5779                                         !
 ! D153  D(52,55,56,69)        134.9111                                         !
 ! D154  D(66,55,56,57)        133.5659                                         !
 ! D155  D(66,55,56,68)       -100.6702                                         !
 ! D156  D(66,55,56,69)         14.663                                          !
 ! D157  D(67,55,56,57)         17.0976                                         !
 ! D158  D(67,55,56,68)        142.8615                                         !
 ! D159  D(67,55,56,69)       -101.8053                                         !
 ! D160  D(55,56,57,58)         81.3682                                         !
 ! D161  D(55,56,57,70)       -159.0463                                         !
 ! D162  D(55,56,57,71)        -41.7986                                         !
 ! D163  D(68,56,57,58)        -45.53                                           !
 ! D164  D(68,56,57,70)         74.0555                                         !
 ! D165  D(68,56,57,71)       -168.6968                                         !
 ! D166  D(69,56,57,58)       -158.9963                                         !
 ! D167  D(69,56,57,70)        -39.4108                                         !
 ! D168  D(69,56,57,71)         77.8369                                         !
 ! D169  D(56,57,58,59)       -102.0297                                         !
 ! D170  D(56,57,58,72)        112.031                                          !
 ! D171  D(70,57,58,59)        137.5794                                         !
 ! D172  D(70,57,58,72)         -8.3599                                         !
 ! D173  D(71,57,58,59)         21.8478                                         !
 ! D174  D(71,57,58,72)       -124.0915                                         !
 ! D175  D(57,58,59,60)         24.1132                                         !
 ! D176  D(57,58,59,61)       -162.9966                                         !
 ! D177  D(72,58,59,60)        170.119                                          !
 ! D178  D(72,58,59,61)        -16.9909                                         !
 ! D179  D(58,59,60,73)       -177.1824                                         !
 ! D180  D(61,59,60,73)         10.8406                                         !
 ! D181  D(58,59,61,74)        173.7517                                         !
 ! D182  D(58,59,61,75)         45.3591                                         !
 ! D183  D(60,59,61,74)        -13.8047                                         !
 ! D184  D(60,59,61,75)       -142.1973                                         !
 --------------------------------------------------------------------------------
 Symmetry turned off by external request.
 Stoichiometry    C23H36N9O7(1+)
 Framework group  C1[X(C23H36N9O7)]
 Deg. of freedom   219
 Full point group                 C1      NOp   1
                          Input orientation:                          
 ---------------------------------------------------------------------
 Center     Atomic      Atomic             Coordinates (Angstroms)
 Number     Number       Type             X           Y           Z
 ---------------------------------------------------------------------
      1          7           0      -10.613728   -0.440835   -8.542348
      2          6           0      -10.068490   -1.697617   -8.033873
      3          6           0       -9.449010   -1.550428   -6.626179
      4          8           0       -9.993544   -0.787750   -5.831388
      5          6           0       -9.099264   -2.271247   -9.098655
      6          6           0       -9.836192   -2.342987  -10.389678
      7          7           0       -9.634651   -1.486101  -11.346307
      8          8           0      -10.695336   -3.335133  -10.481142
      9          1           0      -11.273745   -0.084789   -7.851686
     10          1           0      -11.242063   -3.315365  -11.288772
     11          1           0      -10.905384   -2.398923   -7.920264
     12          1           0       -8.215642   -1.634528   -9.203964
     13          1           0       -8.777314   -3.283134   -8.835483
     14          1           0      -10.192250   -1.478575  -12.194869
     15          1           0       -9.032608   -0.655878  -11.158900
     16          1           0       -9.871128    0.262870   -8.584288
     17          7           0       -8.328772   -2.257482   -6.338726
     18          6           0       -7.644449   -2.156110   -5.051103
     19          6           0       -6.201329   -1.700341   -5.337635
     20          8           0       -5.240570   -2.459222   -5.188757
     21          6           0       -7.727203   -3.462011   -4.220301
     22          6           0       -7.430517   -4.742496   -4.972102
     23          6           0       -8.410892   -5.320725   -5.792158
     24          6           0       -6.177618   -5.366300   -4.887272
     25          6           0       -8.137772   -6.468634   -6.539056
     26          6           0       -5.902589   -6.518879   -5.626245
     27          6           0       -6.877602   -7.068568   -6.463880
     28          1           0       -7.868973   -2.855822   -7.023809
     29          1           0       -8.166182   -1.378546   -4.487878
     30          1           0       -7.051007   -3.355593   -3.366885
     31          1           0       -8.747766   -3.507237   -3.823751
     32          1           0       -9.398120   -4.867623   -5.840464
     33          1           0       -5.409137   -4.925889   -4.260932
     34          1           0       -8.913820   -6.906783   -7.161671
     35          1           0       -4.926569   -6.989257   -5.545379
     36          1           0       -6.665463   -7.970541   -7.031451
     37          7           0       -6.029037   -0.442570   -5.825651
     38          6           0       -7.015069    0.583609   -6.120919
     39          6           0       -7.207268    0.873106   -7.624962
     40          8           0       -7.982140    1.773325   -7.951414
     41          6           0       -6.651014    1.917723   -5.435949
     42          6           0       -5.331304    2.481827   -5.963144
     43          7           0       -4.935974    3.655904   -5.419874
     44          8           0       -4.673842    1.894555   -6.824843
     45          1           0       -5.067752   -0.187752   -6.035110
     46          1           0       -7.990628    0.292038   -5.733294
     47          1           0       -6.585794    1.761176   -4.352845
     48          1           0       -7.456288    2.634840   -5.624278
     49          1           0       -4.073165    4.073039   -5.742307
     50          1           0       -5.489653    4.156024   -4.739961
     51          7           0       -6.490263    0.179402   -8.560212
     52          6           0       -6.087756    0.969851   -9.723911
     53          6           0       -7.286747    1.433330  -10.531753
     54          8           0       -8.261047    0.763288  -10.855067
     55          6           0       -5.061440    0.247177  -10.627470
     56          6           0       -5.534026   -0.956400  -11.479650
     57          6           0       -5.092741   -2.352043  -11.006047
     58          7           0       -5.898603   -2.932919   -9.926966
     59          6           0       -5.453561   -2.932221   -8.618361
     60          7           0       -4.591911   -2.058034   -8.224769
     61          7           0       -6.138484   -3.835013   -7.791508
     62          8           0       -7.123229    2.680197  -10.972557
     63          1           0       -7.898350    2.913541  -11.518548
     64          1           0       -5.759968   -0.468064   -8.242543
     65          1           0       -5.596588    1.877990   -9.355769
     66          1           0       -4.671409    1.022797  -11.295437
     67          1           0       -4.231392   -0.053814   -9.980258
     68          1           0       -6.622139   -0.950841  -11.604849
     69          1           0       -5.117488   -0.830778  -12.486722
     70          1           0       -5.158160   -3.040269  -11.856300
     71          1           0       -4.046672   -2.323510  -10.683897
     72          1           0       -6.447701   -3.739510  -10.188819
     73          1           0       -4.332975   -2.220003   -7.251097
     74          1           0       -5.737444   -3.899526   -6.858726
     75          1           0       -6.295778   -4.770987   -8.156656
 ---------------------------------------------------------------------
 Rotational constants (GHZ):           0.1217809           0.0878369           0.0735684
 Standard basis: 6-31G(d) (6D, 7F)
   657 basis functions,  1236 primitive gaussians,   657 cartesian basis functions
   146 alpha electrons      146 beta electrons
       nuclear repulsion energy      5216.0728063993 Hartrees.
 NAtoms=   75 NActive=   75 NUniq=   75 SFac= 1.00D+00 NAtFMM=   60 NAOKFM=T Big=T
 Integral buffers will be    131072 words long.
 Raffenetti 2 integral format.
 Two-electron integral symmetry is turned off.
 Nuclear repulsion after empirical dispersion term =     5215.9473480945 Hartrees.
 One-electron integrals computed using PRISM.
 NBasis=   657 RedAO= T EigKep=  4.69D-04  NBF=   657
 NBsUse=   657 1.00D-06 EigRej= -1.00D+00 NBFU=   657
 Initial guess from the checkpoint file:  "conf-549.chk"
 B after Tr=     0.000000    0.000000    0.000000
         Rot=    1.000000    0.000000    0.000000    0.000000 Ang=   0.00 deg.
 Requested convergence on RMS density matrix=1.00D-08 within 128 cycles.
 Requested convergence on MAX density matrix=1.00D-06.
 Requested convergence on             energy=1.00D-06.
 No special actions if energy rises.
 SCF Done:  E(RB3LYP) =  -1917.45723909     A.U. after    3 cycles
            NFock=  3  Conv=0.11D-08     -V/T= 2.0093

 **********************************************************************

            Population analysis using the SCF Density.

 **********************************************************************

 Alpha  occ. eigenvalues --  -19.38191 -19.30492 -19.25848 -19.21630 -19.21558
 Alpha  occ. eigenvalues --  -19.21308 -19.20859 -14.54048 -14.46190 -14.45475
 Alpha  occ. eigenvalues --  -14.45157 -14.44845 -14.44439 -14.44282 -14.41815
 Alpha  occ. eigenvalues --  -14.37846 -10.49459 -10.43646 -10.38802 -10.38643
 Alpha  occ. eigenvalues --  -10.38524 -10.38324 -10.38120 -10.34728 -10.33735
 Alpha  occ. eigenvalues --  -10.33358 -10.33152 -10.32976 -10.31256 -10.29297
 Alpha  occ. eigenvalues --  -10.28338 -10.28036 -10.27987 -10.27863 -10.27490
 Alpha  occ. eigenvalues --  -10.27265 -10.27250 -10.27081 -10.26666  -1.27918
 Alpha  occ. eigenvalues --   -1.22011  -1.13957  -1.13565  -1.13010  -1.12761
 Alpha  occ. eigenvalues --   -1.12372  -1.10780  -1.07549  -1.03140  -1.02147
 Alpha  occ. eigenvalues --   -1.00930  -1.00046  -0.99633  -0.98570  -0.93969
 Alpha  occ. eigenvalues --   -0.93542  -0.91660  -0.89044  -0.87827  -0.87181
 Alpha  occ. eigenvalues --   -0.84015  -0.83258  -0.82563  -0.81091  -0.77872
 Alpha  occ. eigenvalues --   -0.77414  -0.77105  -0.75761  -0.74706  -0.72661
 Alpha  occ. eigenvalues --   -0.71108  -0.69633  -0.69336  -0.68630  -0.68528
 Alpha  occ. eigenvalues --   -0.68002  -0.67562  -0.66560  -0.66196  -0.64293
 Alpha  occ. eigenvalues --   -0.63718  -0.62909  -0.62893  -0.62495  -0.61517
 Alpha  occ. eigenvalues --   -0.60954  -0.60237  -0.59509  -0.59354  -0.58323
 Alpha  occ. eigenvalues --   -0.57430  -0.57084  -0.56767  -0.56681  -0.56276
 Alpha  occ. eigenvalues --   -0.55631  -0.55548  -0.54986  -0.54911  -0.54052
 Alpha  occ. eigenvalues --   -0.53824  -0.53308  -0.52968  -0.52749  -0.52354
 Alpha  occ. eigenvalues --   -0.51974  -0.51523  -0.51282  -0.50384  -0.50262
 Alpha  occ. eigenvalues --   -0.49821  -0.49711  -0.49491  -0.49326  -0.49187
 Alpha  occ. eigenvalues --   -0.48840  -0.47950  -0.47527  -0.47454  -0.46597
 Alpha  occ. eigenvalues --   -0.46148  -0.45725  -0.45529  -0.45041  -0.44445
 Alpha  occ. eigenvalues --   -0.43744  -0.43733  -0.42963  -0.42591  -0.42019
 Alpha  occ. eigenvalues --   -0.41837  -0.39568  -0.38022  -0.37362  -0.36808
 Alpha  occ. eigenvalues --   -0.36271  -0.36100  -0.35717  -0.35395  -0.34571
 Alpha  occ. eigenvalues --   -0.34462  -0.34384  -0.33394  -0.33125  -0.32393
 Alpha  occ. eigenvalues --   -0.32337
 Alpha virt. eigenvalues --   -0.17236  -0.10515  -0.10305  -0.09582  -0.08773
 Alpha virt. eigenvalues --   -0.08505  -0.08205  -0.06642  -0.06572  -0.05283
 Alpha virt. eigenvalues --   -0.05089  -0.04154  -0.02076  -0.00808  -0.00487
 Alpha virt. eigenvalues --    0.00253   0.01188   0.01431   0.01915   0.02116
 Alpha virt. eigenvalues --    0.02904   0.03632   0.04038   0.04422   0.04770
 Alpha virt. eigenvalues --    0.05304   0.05608   0.05721   0.05841   0.06069
 Alpha virt. eigenvalues --    0.06327   0.06714   0.07163   0.07674   0.08016
 Alpha virt. eigenvalues --    0.08673   0.08777   0.08864   0.08918   0.09513
 Alpha virt. eigenvalues --    0.09669   0.09929   0.10088   0.10528   0.11033
 Alpha virt. eigenvalues --    0.11396   0.11954   0.12304   0.12578   0.12681
 Alpha virt. eigenvalues --    0.12907   0.13538   0.13621   0.14523   0.14567
 Alpha virt. eigenvalues --    0.14883   0.15778   0.16482   0.16998   0.18292
 Alpha virt. eigenvalues --    0.18576   0.18915   0.19934   0.20583   0.21159
 Alpha virt. eigenvalues --    0.22001   0.22548   0.23922   0.24315   0.24862
 Alpha virt. eigenvalues --    0.25432   0.25816   0.26591   0.26977   0.27610
 Alpha virt. eigenvalues --    0.27689   0.28375   0.29064   0.29562   0.30036
 Alpha virt. eigenvalues --    0.33050   0.33958   0.34669   0.37164   0.37647
 Alpha virt. eigenvalues --    0.38228   0.39481   0.39882   0.40699   0.41053
 Alpha virt. eigenvalues --    0.41304   0.41942   0.42858   0.43309   0.44162
 Alpha virt. eigenvalues --    0.44482   0.45436   0.45564   0.46316   0.46615
 Alpha virt. eigenvalues --    0.46799   0.47388   0.48101   0.48128   0.48492
 Alpha virt. eigenvalues --    0.48774   0.49577   0.49812   0.50391   0.50655
 Alpha virt. eigenvalues --    0.50987   0.51131   0.51447   0.51881   0.52013
 Alpha virt. eigenvalues --    0.52595   0.53009   0.53325   0.53762   0.53914
 Alpha virt. eigenvalues --    0.54082   0.54784   0.55369   0.55429   0.55837
 Alpha virt. eigenvalues --    0.56238   0.57105   0.57306   0.57384   0.57741
 Alpha virt. eigenvalues --    0.58574   0.58590   0.58767   0.59330   0.60175
 Alpha virt. eigenvalues --    0.60317   0.61412   0.61641   0.62102   0.62955
 Alpha virt. eigenvalues --    0.63251   0.63641   0.64514   0.65241   0.65432
 Alpha virt. eigenvalues --    0.66042   0.66299   0.67230   0.68068   0.68319
 Alpha virt. eigenvalues --    0.69140   0.69817   0.70062   0.71023   0.71712
 Alpha virt. eigenvalues --    0.71807   0.72923   0.73573   0.73980   0.74103
 Alpha virt. eigenvalues --    0.74610   0.75013   0.75460   0.75736   0.76080
 Alpha virt. eigenvalues --    0.76598   0.76794   0.77067   0.77701   0.78041
 Alpha virt. eigenvalues --    0.78394   0.78648   0.79132   0.79297   0.79401
 Alpha virt. eigenvalues --    0.79747   0.79930   0.80080   0.80656   0.80926
 Alpha virt. eigenvalues --    0.81536   0.81673   0.82098   0.82505   0.82728
 Alpha virt. eigenvalues --    0.83159   0.84094   0.84387   0.84885   0.85108
 Alpha virt. eigenvalues --    0.85241   0.85547   0.85734   0.86419   0.87316
 Alpha virt. eigenvalues --    0.87595   0.87815   0.88321   0.88523   0.88791
 Alpha virt. eigenvalues --    0.89878   0.90210   0.90679   0.91056   0.91910
 Alpha virt. eigenvalues --    0.92699   0.93310   0.93375   0.94297   0.94676
 Alpha virt. eigenvalues --    0.95413   0.96326   0.96654   0.98072   0.98560
 Alpha virt. eigenvalues --    1.00236   1.00851   1.01303   1.01918   1.02834
 Alpha virt. eigenvalues --    1.03506   1.04079   1.05329   1.05723   1.06866
 Alpha virt. eigenvalues --    1.06924   1.07351   1.07888   1.08788   1.09441
 Alpha virt. eigenvalues --    1.10629   1.12002   1.12270   1.12430   1.13856
 Alpha virt. eigenvalues --    1.14526   1.15660   1.16349   1.16932   1.17570
 Alpha virt. eigenvalues --    1.17702   1.18808   1.19068   1.20313   1.21129
 Alpha virt. eigenvalues --    1.21515   1.22336   1.22595   1.24353   1.24664
 Alpha virt. eigenvalues --    1.25571   1.26124   1.26599   1.27406   1.28661
 Alpha virt. eigenvalues --    1.29295   1.31186   1.31621   1.32282   1.32763
 Alpha virt. eigenvalues --    1.33528   1.33975   1.34062   1.34595   1.34873
 Alpha virt. eigenvalues --    1.36131   1.37431   1.38649   1.39333   1.39804
 Alpha virt. eigenvalues --    1.40360   1.40654   1.41125   1.41646   1.42984
 Alpha virt. eigenvalues --    1.43934   1.44806   1.45534   1.46391   1.47353
 Alpha virt. eigenvalues --    1.47721   1.48324   1.49488   1.50106   1.51132
 Alpha virt. eigenvalues --    1.51990   1.52568   1.53498   1.54106   1.55697
 Alpha virt. eigenvalues --    1.56368   1.56676   1.57711   1.58853   1.59670
 Alpha virt. eigenvalues --    1.60078   1.60417   1.61284   1.62456   1.64201
 Alpha virt. eigenvalues --    1.64603   1.65280   1.66219   1.66510   1.66816
 Alpha virt. eigenvalues --    1.67603   1.68127   1.68704   1.69389   1.70464
 Alpha virt. eigenvalues --    1.70798   1.70801   1.71552   1.71990   1.72515
 Alpha virt. eigenvalues --    1.72887   1.73651   1.74959   1.75187   1.76272
 Alpha virt. eigenvalues --    1.76506   1.76667   1.77709   1.78148   1.78810
 Alpha virt. eigenvalues --    1.79079   1.79333   1.80337   1.80775   1.81723
 Alpha virt. eigenvalues --    1.81984   1.82329   1.82762   1.82786   1.84183
 Alpha virt. eigenvalues --    1.84453   1.84947   1.85635   1.86637   1.87210
 Alpha virt. eigenvalues --    1.87364   1.88832   1.89017   1.89877   1.90563
 Alpha virt. eigenvalues --    1.90878   1.91215   1.92071   1.92873   1.93414
 Alpha virt. eigenvalues --    1.94249   1.94682   1.95793   1.96156   1.96761
 Alpha virt. eigenvalues --    1.97297   1.97710   1.97979   1.98387   2.00361
 Alpha virt. eigenvalues --    2.01042   2.01262   2.02885   2.03000   2.03403
 Alpha virt. eigenvalues --    2.04160   2.04839   2.06101   2.06675   2.07559
 Alpha virt. eigenvalues --    2.08170   2.08331   2.08877   2.09646   2.10054
 Alpha virt. eigenvalues --    2.11288   2.11902   2.13734   2.14149   2.14979
 Alpha virt. eigenvalues --    2.15380   2.16430   2.17245   2.17717   2.19060
 Alpha virt. eigenvalues --    2.20119   2.20737   2.21478   2.22963   2.23215
 Alpha virt. eigenvalues --    2.23754   2.25213   2.25610   2.26888   2.27383
 Alpha virt. eigenvalues --    2.27699   2.29608   2.30023   2.31083   2.31642
 Alpha virt. eigenvalues --    2.32731   2.33611   2.34450   2.34810   2.34862
 Alpha virt. eigenvalues --    2.35993   2.36135   2.37183   2.38501   2.39375
 Alpha virt. eigenvalues --    2.40719   2.40870   2.42382   2.43450   2.43641
 Alpha virt. eigenvalues --    2.45231   2.46081   2.47004   2.47494   2.48293
 Alpha virt. eigenvalues --    2.48943   2.49799   2.50630   2.50878   2.51520
 Alpha virt. eigenvalues --    2.52011   2.53218   2.53554   2.54221   2.54736
 Alpha virt. eigenvalues --    2.56561   2.57365   2.57846   2.59293   2.61140
 Alpha virt. eigenvalues --    2.61659   2.62600   2.62937   2.63555   2.63953
 Alpha virt. eigenvalues --    2.64250   2.65937   2.66403   2.66443   2.67056
 Alpha virt. eigenvalues --    2.68704   2.69091   2.71819   2.72605   2.74561
 Alpha virt. eigenvalues --    2.76248   2.78280   2.78915   2.82164   2.85558
 Alpha virt. eigenvalues --    2.87142   2.87712   2.90168   2.90714   2.92347
 Alpha virt. eigenvalues --    2.93803   2.94770   2.95060   2.96381   2.97490
 Alpha virt. eigenvalues --    2.97647   2.98452   3.00420   3.06187   3.07632
 Alpha virt. eigenvalues --    3.11996   3.32433   3.70884   3.72541   3.76078
 Alpha virt. eigenvalues --    3.82345   3.82944   3.87123   3.90561   3.92973
 Alpha virt. eigenvalues --    3.93630   4.00420   4.01634   4.03940   4.05877
 Alpha virt. eigenvalues --    4.06918   4.07703   4.10323   4.11367   4.11803
 Alpha virt. eigenvalues --    4.15004   4.17841   4.18919   4.20912   4.23976
 Alpha virt. eigenvalues --    4.27920   4.28557   4.30129   4.35900   4.37196
 Alpha virt. eigenvalues --    4.39290   4.41572   4.42014   4.46923   4.48341
 Alpha virt. eigenvalues --    4.50641   4.58528   4.61232   4.63778   4.65994
 Alpha virt. eigenvalues --    4.73439
          Condensed to atoms (all electrons):
 Mulliken charges:
               1
     1  N   -0.748575
     2  C   -0.086865
     3  C    0.614019
     4  O   -0.521370
     5  C   -0.401432
     6  C    0.640187
     7  N   -0.719099
     8  O   -0.521214
     9  H    0.340338
    10  H    0.448734
    11  H    0.192903
    12  H    0.244364
    13  H    0.194837
    14  H    0.371061
    15  H    0.483592
    16  H    0.339061
    17  N   -0.646232
    18  C   -0.076584
    19  C    0.608341
    20  O   -0.532745
    21  C   -0.349098
    22  C    0.151648
    23  C   -0.183690
    24  C   -0.194219
    25  C   -0.144436
    26  C   -0.135184
    27  C   -0.149550
    28  H    0.413749
    29  H    0.203637
    30  H    0.177931
    31  H    0.170855
    32  H    0.127717
    33  H    0.164857
    34  H    0.136950
    35  H    0.153211
    36  H    0.146782
    37  N   -0.611323
    38  C   -0.084444
    39  C    0.626863
    40  O   -0.540054
    41  C   -0.377891
    42  C    0.620915
    43  N   -0.743722
    44  O   -0.535274
    45  H    0.366274
    46  H    0.218165
    47  H    0.186336
    48  H    0.212151
    49  H    0.360851
    50  H    0.355830
    51  N   -0.643226
    52  C   -0.040498
    53  C    0.650104
    54  O   -0.540808
    55  C   -0.321204
    56  C   -0.265349
    57  C   -0.142074
    58  N   -0.586637
    59  C    0.598333
    60  N   -0.699127
    61  N   -0.835396
    62  O   -0.535219
    63  H    0.425785
    64  H    0.408447
    65  H    0.204212
    66  H    0.169915
    67  H    0.211090
    68  H    0.122234
    69  H    0.156248
    70  H    0.145761
    71  H    0.194296
    72  H    0.312247
    73  H    0.320492
    74  H    0.388136
    75  H    0.333081
 Sum of Mulliken charges =   1.00000
 Mulliken charges with hydrogens summed into heavy atoms:
               1
     1  N   -0.069176
     2  C    0.106038
     3  C    0.614019
     4  O   -0.521370
     5  C    0.037770
     6  C    0.640187
     7  N    0.135554
     8  O   -0.072479
    17  N   -0.232482
    18  C    0.127053
    19  C    0.608341
    20  O   -0.532745
    21  C   -0.000313
    22  C    0.151648
    23  C   -0.055973
    24  C   -0.029362
    25  C   -0.007486
    26  C    0.018027
    27  C   -0.002768
    37  N   -0.245049
    38  C    0.133721
    39  C    0.626863
    40  O   -0.540054
    41  C    0.020595
    42  C    0.620915
    43  N   -0.027041
    44  O   -0.535274
    51  N   -0.234779
    52  C    0.163714
    53  C    0.650104
    54  O   -0.540808
    55  C    0.059800
    56  C    0.013133
    57  C    0.197982
    58  N   -0.274390
    59  C    0.598333
    60  N   -0.378635
    61  N   -0.114180
    62  O   -0.109434
 Electronic spatial extent (au):  <R**2>=         135479.2553
 Charge=              1.0000 electrons
 Dipole moment (field-independent basis, Debye):
    X=            -39.7706    Y=             -7.4625    Z=            -46.5790  Tot=             61.7008
 Quadrupole moment (field-independent basis, Debye-Ang):
   XX=            124.6834   YY=           -151.0895   ZZ=            281.5918
   XY=             79.7925   XZ=            410.2815   YZ=             93.6367
 Traceless Quadrupole moment (field-independent basis, Debye-Ang):
   XX=             39.6215   YY=           -236.1514   ZZ=            196.5299
   XY=             79.7925   XZ=            410.2815   YZ=             93.6367
 Octapole moment (field-independent basis, Debye-Ang**2):
  XXX=           1579.5992  YYY=            856.0347  ZZZ=           -604.9075  XYY=           1098.7606
  XXY=           -491.4816  XXZ=          -2082.5868  XZZ=          -2980.7136  YZZ=           -702.1628
  YYZ=           1117.5152  XYZ=           -917.8538
 Hexadecapole moment (field-independent basis, Debye-Ang**3):
 XXXX=         -41869.3069 YYYY=         -10991.9748 ZZZZ=         -19098.6126 XXXY=            937.8420
 XXXZ=           -346.5891 YYYX=          -6554.8238 YYYZ=          -5151.5983 ZZZX=          15730.6929
 ZZZY=           4246.4491 XXYY=         -10393.5862 XXZZ=          17020.3680 YYZZ=         -11010.8360
 XXYZ=           6924.6429 YYXZ=          -7802.9188 ZZXY=           7427.7429
 N-N= 5.215947348094D+03 E-N=-1.487348484058D+04  KE= 1.899801232587D+03
 Unable to Open any file for archive entry.
 1\1\GINC-SKL-140\SP\RB3LYP\6-31G(d)\C23H36N9O7(1+)\KENGMITH\07-Jun-202
 2\0\\# B3LYP/6-31G* empiricaldispersion=gd3 guess=read geom=check nosy
 mm integral(ultrafinegrid)\\Candidate Structure: Conf:549 Charge calc 
 in gas phase\\1,1\N,0,-10.6137277168,-0.4408351003,-8.5423478294\C,0,-
 10.068490279,-1.6976174115,-8.0338734691\C,0,-9.449010082,-1.550427900
 2,-6.6261791939\O,0,-9.9935438285,-0.7877502733,-5.8313879277\C,0,-9.0
 992636996,-2.2712472456,-9.0986553029\C,0,-9.8361915723,-2.34298747,-1
 0.3896782094\N,0,-9.634650992,-1.4861014956,-11.3463072403\O,0,-10.695
 3364025,-3.3351333919,-10.4811415598\H,0,-11.2737449897,-0.0847890036,
 -7.851685512\H,0,-11.2420630841,-3.3153650997,-11.288771524\H,0,-10.90
 53843011,-2.3989234883,-7.9202644804\H,0,-8.2156422061,-1.6345275838,-
 9.2039639562\H,0,-8.7773138669,-3.2831341902,-8.8354834742\H,0,-10.192
 2495494,-1.4785749901,-12.1948686518\H,0,-9.0326075973,-0.6558784147,-
 11.1588999653\H,0,-9.871127554,0.2628698465,-8.5842882843\N,0,-8.32877
 21771,-2.2574816625,-6.3387264445\C,0,-7.6444494926,-2.1561100883,-5.0
 51103285\C,0,-6.2013292103,-1.7003409543,-5.3376350492\O,0,-5.24057028
 85,-2.4592223314,-5.1887568722\C,0,-7.7272026364,-3.4620109858,-4.2203
 007408\C,0,-7.4305165382,-4.7424964862,-4.9721023959\C,0,-8.4108924791
 ,-5.3207246213,-5.7921584324\C,0,-6.1776182888,-5.3662998858,-4.887271
 9562\C,0,-8.1377719509,-6.4686344284,-6.539055611\C,0,-5.9025891179,-6
 .5188792248,-5.6262452502\C,0,-6.8776015451,-7.0685677918,-6.463880475
 2\H,0,-7.8689725824,-2.8558217309,-7.0238085285\H,0,-8.1661823418,-1.3
 785456356,-4.4878781243\H,0,-7.0510072599,-3.355593209,-3.366884912\H,
 0,-8.7477660184,-3.5072373749,-3.8237510488\H,0,-9.3981203763,-4.86762
 33793,-5.8404640823\H,0,-5.4091369356,-4.925888984,-4.2609322947\H,0,-
 8.9138201859,-6.9067827152,-7.1616711409\H,0,-4.9265694445,-6.98925658
 35,-5.5453794944\H,0,-6.6654634441,-7.9705407337,-7.0314505563\N,0,-6.
 0290373755,-0.4425698806,-5.8256511379\C,0,-7.0150685417,0.5836087227,
 -6.1209185137\C,0,-7.2072681854,0.8731063189,-7.6249619698\O,0,-7.9821
 397855,1.7733250299,-7.9514144992\C,0,-6.651014002,1.917722916,-5.4359
 488584\C,0,-5.3313039268,2.4818265825,-5.9631438998\N,0,-4.9359743314,
 3.6559040268,-5.4198743482\O,0,-4.6738416545,1.8945548755,-6.824843291
 3\H,0,-5.0677516201,-0.1877524574,-6.0351104325\H,0,-7.9906276501,0.29
 2038052,-5.7332940384\H,0,-6.5857941127,1.7611762719,-4.352845292\H,0,
 -7.4562881114,2.6348401874,-5.624278283\H,0,-4.0731645859,4.0730391502
 ,-5.7423065923\H,0,-5.4896528087,4.1560241639,-4.7399608454\N,0,-6.490
 263085,0.1794023828,-8.5602121188\C,0,-6.0877559606,0.9698507384,-9.72
 39113201\C,0,-7.2867466198,1.4333301591,-10.53175345\O,0,-8.2610468551
 ,0.7632877418,-10.8550669999\C,0,-5.0614401639,0.2471770845,-10.627469
 8069\C,0,-5.53402554,-0.9563997094,-11.4796503691\C,0,-5.0927407244,-2
 .3520429563,-11.0060467217\N,0,-5.8986029612,-2.9329194675,-9.92696639
 77\C,0,-5.453561161,-2.9322207414,-8.6183611278\N,0,-4.5919113835,-2.0
 58034426,-8.2247686439\N,0,-6.1384838331,-3.8350130887,-7.7915077126\O
 ,0,-7.1232287489,2.6801968824,-10.9725569598\H,0,-7.898350237,2.913541
 1705,-11.5185483481\H,0,-5.7599683832,-0.4680640952,-8.2425427815\H,0,
 -5.5965883318,1.8779901529,-9.3557685353\H,0,-4.6714094854,1.022797384
 3,-11.2954370245\H,0,-4.2313922028,-0.0538138522,-9.9802580663\H,0,-6.
 6221390022,-0.9508407669,-11.6048491526\H,0,-5.1174880567,-0.830778244
 6,-12.4867217336\H,0,-5.1581599347,-3.0402689849,-11.856299992\H,0,-4.
 0466715451,-2.323509885,-10.6838969392\H,0,-6.4477010434,-3.7395098553
 ,-10.1888194944\H,0,-4.3329752747,-2.2200033228,-7.2510965063\H,0,-5.7
 374436867,-3.8995256761,-6.8587264807\H,0,-6.295777653,-4.7709866252,-
 8.1566563398\\Version=ES64L-G16RevC.01\HF=-1917.4572391\RMSD=1.100e-09
 \Dipole=-2.053,-0.2749245,-3.639979\Quadrupole=29.4576019,-175.572756,
 146.1151541,59.3237703,305.0342052,69.6165832\PG=C01 [X(C23H36N9O7)]\\
 @
 The archive entry for this job was punched.


 WHAT, THEN, IS TIME?  IF NO ONE ASKS ME, I KNOW WHAT IT IS.
 IF I WISH TO EXPLAIN WHAT IT IS TO HIM WHO ASKS ME, I DO NOT KNOW.
                                   -- ST. AUGUSTINE (FIFTH CENTURY)
 Job cpu time:       0 days  0 hours  5 minutes 34.0 seconds.
 Elapsed time:       0 days  0 hours  1 minutes 25.7 seconds.
 File lengths (MBytes):  RWF=    344 Int=      0 D2E=      0 Chk=     48 Scr=     16
 Normal termination of Gaussian 16 at Tue Jun  7 01:06:58 2022.
