 Entering Gaussian System, Link 0=/opt/software/Gaussian/g16-AVX2-C.01/g16/g16
 Input=charge-conf-962.com
 Output=charge-conf-962.log
 Initial command:
 /opt/software/Gaussian/g16-AVX2-C.01/g16/l1.exe "/mnt/gs18/scratch/users/kengmith/Gau-2151.inp" -scrdir="/mnt/gs18/scratch/users/kengmith/"
 Entering Link 1 = /opt/software/Gaussian/g16-AVX2-C.01/g16/l1.exe PID=      2163.
  
 Copyright (c) 1988-2019, Gaussian, Inc.  All Rights Reserved.
  
 This is part of the Gaussian(R) 16 program.  It is based on
 the Gaussian(R) 09 system (copyright 2009, Gaussian, Inc.),
 the Gaussian(R) 03 system (copyright 2003, Gaussian, Inc.),
 the Gaussian(R) 98 system (copyright 1998, Gaussian, Inc.),
 the Gaussian(R) 94 system (copyright 1995, Gaussian, Inc.),
 the Gaussian 92(TM) system (copyright 1992, Gaussian, Inc.),
 the Gaussian 90(TM) system (copyright 1990, Gaussian, Inc.),
 the Gaussian 88(TM) system (copyright 1988, Gaussian, Inc.),
 the Gaussian 86(TM) system (copyright 1986, Carnegie Mellon
 University), and the Gaussian 82(TM) system (copyright 1983,
 Carnegie Mellon University). Gaussian is a federally registered
 trademark of Gaussian, Inc.
  
 This software contains proprietary and confidential information,
 including trade secrets, belonging to Gaussian, Inc.
  
 This software is provided under written license and may be
 used, copied, transmitted, or stored only in accord with that
 written license.
  
 The following legend is applicable only to US Government
 contracts under FAR:
  
                    RESTRICTED RIGHTS LEGEND
  
 Use, reproduction and disclosure by the US Government is
 subject to restrictions as set forth in subparagraphs (a)
 and (c) of the Commercial Computer Software - Restricted
 Rights clause in FAR 52.227-19.
  
 Gaussian, Inc.
 340 Quinnipiac St., Bldg. 40, Wallingford CT 06492
  
  
 ---------------------------------------------------------------
 Warning -- This program may not be used in any manner that
 competes with the business of Gaussian, Inc. or will provide
 assistance to any competitor of Gaussian, Inc.  The licensee
 of this program is prohibited from giving any competitor of
 Gaussian, Inc. access to this program.  By using this program,
 the user acknowledges that Gaussian, Inc. is engaged in the
 business of creating and licensing software in the field of
 computational chemistry and represents and warrants to the
 licensee that it is not a competitor of Gaussian, Inc. and that
 it will not use this program in any manner prohibited above.
 ---------------------------------------------------------------
  

 Cite this work as:
 Gaussian 16, Revision C.01,
 M. J. Frisch, G. W. Trucks, H. B. Schlegel, G. E. Scuseria, 
 M. A. Robb, J. R. Cheeseman, G. Scalmani, V. Barone, 
 G. A. Petersson, H. Nakatsuji, X. Li, M. Caricato, A. V. Marenich, 
 J. Bloino, B. G. Janesko, R. Gomperts, B. Mennucci, H. P. Hratchian, 
 J. V. Ortiz, A. F. Izmaylov, J. L. Sonnenberg, D. Williams-Young, 
 F. Ding, F. Lipparini, F. Egidi, J. Goings, B. Peng, A. Petrone, 
 T. Henderson, D. Ranasinghe, V. G. Zakrzewski, J. Gao, N. Rega, 
 G. Zheng, W. Liang, M. Hada, M. Ehara, K. Toyota, R. Fukuda, 
 J. Hasegawa, M. Ishida, T. Nakajima, Y. Honda, O. Kitao, H. Nakai, 
 T. Vreven, K. Throssell, J. A. Montgomery, Jr., J. E. Peralta, 
 F. Ogliaro, M. J. Bearpark, J. J. Heyd, E. N. Brothers, K. N. Kudin, 
 V. N. Staroverov, T. A. Keith, R. Kobayashi, J. Normand, 
 K. Raghavachari, A. P. Rendell, J. C. Burant, S. S. Iyengar, 
 J. Tomasi, M. Cossi, J. M. Millam, M. Klene, C. Adamo, R. Cammi, 
 J. W. Ochterski, R. L. Martin, K. Morokuma, O. Farkas, 
 J. B. Foresman, and D. J. Fox, Gaussian, Inc., Wallingford CT, 2019.
 
 ******************************************
 Gaussian 16:  ES64L-G16RevC.01  3-Jul-2019
                 7-Jun-2022 
 ******************************************
 %mem=8gb
 %nproc=4
 Will use up to    4 processors via shared memory.
 %chk=conf-962.chk
 ----------------------------------------------------------------------
 # B3LYP/6-31G* empiricaldispersion=gd3 guess=read geom=check nosymm in
 tegral(ultrafinegrid)
 ----------------------------------------------------------------------
 1/29=2,38=1,172=1/1;
 2/12=2,15=1,40=1/2;
 3/5=1,6=6,7=1,11=2,14=-4,25=1,30=1,74=-5,75=-5,116=-2,124=31/1,2,3;
 4/5=1/1;
 5/5=2,38=6/2;
 6/7=2,8=2,9=2,10=2,28=1/1;
 99/5=1,9=1/99;
 ------------------------------------------------------
 Candidate Structure: Conf:962 Charge calc in gas phase
 ------------------------------------------------------
 Structure from the checkpoint file:  "conf-962.chk"
 Charge =  1 Multiplicity = 1
 Redundant internal coordinates found in file.  (old form).
 N,0,-6.9120154791,2.1329131585,-8.0811733386
 C,0,-6.7133322032,1.1109717081,-7.0572119959
 C,0,-5.9020644003,-0.1035216179,-7.5445188023
 O,0,-5.030232214,0.0738741862,-8.3885919172
 C,0,-8.0850751513,0.7724417106,-6.4100393937
 C,0,-8.8659292112,2.0454138311,-6.3730421966
 N,0,-9.8982567794,2.2339803922,-7.1439465309
 O,0,-8.4459982707,2.9228702065,-5.4913127886
 H,0,-7.3893336201,1.7180745282,-8.8828028443
 H,0,-8.8787185196,3.7935925481,-5.5639446323
 H,0,-6.0904080747,1.551943192,-6.2683151797
 H,0,-8.6395768727,0.0187166962,-6.9719156487
 H,0,-7.9421460682,0.4165777719,-5.3850148945
 H,0,-10.3952495545,3.1187128188,-7.1747855107
 H,0,-10.1620558345,1.4878743953,-7.8346278832
 H,0,-5.995808991,2.4193684724,-8.4226957805
 N,0,-6.1400523038,-1.3135640202,-6.9608054927
 C,0,-5.0680577365,-2.3087487711,-6.8650843592
 C,0,-5.6507748004,-3.6771356775,-7.2531426677
 O,0,-5.8803045833,-4.5350567699,-6.3947069163
 C,0,-4.4456855111,-2.3195316391,-5.4439421113
 C,0,-4.3181291341,-0.9150572146,-4.8988312805
 C,0,-3.3413400455,-0.0361701318,-5.3836172667
 C,0,-5.2538491405,-0.4301871079,-3.9740115544
 C,0,-3.305547518,1.2944996137,-4.9636921696
 C,0,-5.2220213365,0.8994902808,-3.5476689012
 C,0,-4.2486215113,1.768567092,-4.0476581088
 H,0,-6.8617417821,-1.4093478347,-6.2505719974
 H,0,-4.3067589365,-1.9984380521,-7.5829852588
 H,0,-5.0666882218,-2.9324248021,-4.7858840701
 H,0,-3.472557799,-2.8197928747,-5.501803763
 H,0,-2.6134525567,-0.3911549828,-6.1088035876
 H,0,-6.0118314855,-1.1054786537,-3.5814657839
 H,0,-2.5401241394,1.9609587451,-5.3508575056
 H,0,-5.9471337612,1.253448139,-2.819314673
 H,0,-4.2153458231,2.8022803234,-3.7153486005
 N,0,-5.9790083643,-3.8779839653,-8.5543770942
 C,0,-5.8875819323,-2.9457542746,-9.662272406
 C,0,-7.1871255364,-2.2145753875,-10.0246765254
 O,0,-7.0918659361,-1.3366896909,-10.9136983147
 C,0,-5.3268910757,-3.6286640734,-10.9251172356
 C,0,-6.2461305588,-4.7467752946,-11.4203558814
 N,0,-5.9231792633,-5.2814606475,-12.6216332885
 O,0,-7.2087232419,-5.1326798091,-10.7575289042
 H,0,-6.4599202967,-4.7483468536,-8.7673244464
 H,0,-5.204699828,-2.1337016003,-9.4043022955
 H,0,-4.3389501878,-4.0445851229,-10.6946470515
 H,0,-5.1963168376,-2.8708291187,-11.7039628606
 H,0,-6.4848587537,-6.0423631713,-12.9792703799
 H,0,-5.1487953031,-4.9497688569,-13.1774928102
 N,0,-8.3464430862,-2.4773641482,-9.4026217124
 C,0,-9.5895806848,-1.8770625755,-9.9270704882
 C,0,-9.6395618149,-0.4148462128,-9.4444548845
 O,0,-10.4442065983,0.0341708388,-8.6315283864
 C,0,-10.8534320732,-2.7429023578,-9.7137158714
 C,0,-11.778259022,-2.5778952631,-8.4908236641
 C,0,-11.3241670577,-3.1784057304,-7.1599721871
 N,0,-10.1349032484,-2.571459514,-6.5454125859
 C,0,-9.0076945319,-3.3351858796,-6.3398938444
 N,0,-8.7283764997,-4.2824956678,-7.166984106
 N,0,-8.1913757899,-2.8997530666,-5.2711712073
 O,0,-8.6940957133,0.370482116,-9.9383187281
 H,0,-8.0459468636,-0.1832071118,-10.5079284382
 H,0,-8.4284141786,-3.2458208574,-8.7122436499
 H,0,-9.4402980162,-1.8105754046,-11.0124041846
 H,0,-11.4780856382,-2.5518520335,-10.5938393697
 H,0,-10.5297700299,-3.7873285813,-9.7991057823
 H,0,-12.0476224339,-1.5291906088,-8.3605911623
 H,0,-12.7068553278,-3.1056811744,-8.7473472454
 H,0,-12.1543435501,-3.1004547955,-6.4458880647
 H,0,-11.0974940438,-4.2390060015,-7.2925929143
 H,0,-10.3002586636,-1.8213351252,-5.8895580664
 H,0,-7.9254805375,-4.8257638937,-6.8531584688
 H,0,-7.4014306642,-3.5300607988,-5.1368963958
 H,0,-8.6940706062,-2.7622207261,-4.397543832
 Recover connectivity data from disk.
                           ----------------------------
                           !    Current Parameters    !
                           ! (Angstroms and Degrees)  !
 --------------------------                            --------------------------
 ! Name  Definition              Value                                          !
 --------------------------------------------------------------------------------
 ! R1    R(1,2)                  1.4603                                         !
 ! R2    R(1,9)                  1.021                                          !
 ! R3    R(1,16)                 1.0189                                         !
 ! R4    R(2,3)                  1.5397                                         !
 ! R5    R(2,5)                  1.5541                                         !
 ! R6    R(2,11)                 1.0977                                         !
 ! R7    R(3,4)                  1.2264                                         !
 ! R8    R(3,17)                 1.3644                                         !
 ! R9    R(5,6)                  1.4938                                         !
 ! R10   R(5,12)                 1.0915                                         !
 ! R11   R(5,13)                 1.0944                                         !
 ! R12   R(6,7)                  1.3021                                         !
 ! R13   R(6,8)                  1.3129                                         !
 ! R14   R(7,14)                 1.0152                                         !
 ! R15   R(7,15)                 1.0504                                         !
 ! R16   R(8,10)                 0.975                                          !
 ! R17   R(17,18)                1.4659                                         !
 ! R18   R(17,28)                1.0171                                         !
 ! R19   R(18,19)                1.5371                                         !
 ! R20   R(18,21)                1.5515                                         !
 ! R21   R(18,29)                1.0914                                         !
 ! R22   R(19,20)                1.2352                                         !
 ! R23   R(19,37)                1.3569                                         !
 ! R24   R(21,22)                1.5119                                         !
 ! R25   R(21,30)                1.0929                                         !
 ! R26   R(21,31)                1.0957                                         !
 ! R27   R(22,23)                1.4006                                         !
 ! R28   R(22,24)                1.4021                                         !
 ! R29   R(23,25)                1.3958                                         !
 ! R30   R(23,32)                1.0871                                         !
 ! R31   R(24,26)                1.3967                                         !
 ! R32   R(24,33)                1.0884                                         !
 ! R33   R(25,27)                1.3976                                         !
 ! R34   R(25,34)                1.0862                                         !
 ! R35   R(26,27)                1.3974                                         !
 ! R36   R(26,35)                1.087                                          !
 ! R37   R(27,36)                1.0863                                         !
 ! R38   R(37,38)                1.4508                                         !
 ! R39   R(37,45)                1.0169                                         !
 ! R40   R(38,39)                1.5345                                         !
 ! R41   R(38,41)                1.5413                                         !
 ! R42   R(38,46)                1.0919                                         !
 ! R43   R(39,40)                1.253                                          !
 ! R44   R(39,51)                1.3417                                         !
 ! R45   R(41,42)                1.5298                                         !
 ! R46   R(41,47)                1.0964                                         !
 ! R47   R(41,48)                1.0945                                         !
 ! R48   R(42,43)                1.354                                          !
 ! R49   R(42,44)                1.2308                                         !
 ! R50   R(43,49)                1.0111                                         !
 ! R51   R(43,50)                1.0093                                         !
 ! R52   R(51,52)                1.4768                                         !
 ! R53   R(51,64)                1.0363                                         !
 ! R54   R(52,53)                1.5406                                         !
 ! R55   R(52,55)                1.5468                                         !
 ! R56   R(52,65)                1.0976                                         !
 ! R57   R(53,54)                1.2288                                         !
 ! R58   R(53,62)                1.3246                                         !
 ! R59   R(55,56)                1.5421                                         !
 ! R60   R(55,66)                1.096                                          !
 ! R61   R(55,67)                1.0968                                         !
 ! R62   R(56,57)                1.529                                          !
 ! R63   R(56,68)                1.0905                                         !
 ! R64   R(56,69)                1.0985                                         !
 ! R65   R(57,58)                1.4698                                         !
 ! R66   R(57,70)                1.0978                                         !
 ! R67   R(57,71)                1.0926                                         !
 ! R68   R(58,59)                1.377                                          !
 ! R69   R(58,72)                1.01                                           !
 ! R70   R(59,60)                1.2882                                         !
 ! R71   R(59,61)                1.4136                                         !
 ! R72   R(60,73)                1.019                                          !
 ! R73   R(61,74)                1.0195                                         !
 ! R74   R(61,75)                1.0173                                         !
 ! R75   R(62,63)                1.0252                                         !
 ! A1    A(2,1,9)              109.2569                                         !
 ! A2    A(2,1,16)             108.0262                                         !
 ! A3    A(9,1,16)             105.7496                                         !
 ! A4    A(1,2,3)              113.6898                                         !
 ! A5    A(1,2,5)              108.9273                                         !
 ! A6    A(1,2,11)             107.4599                                         !
 ! A7    A(3,2,5)              115.1548                                         !
 ! A8    A(3,2,11)             104.2019                                         !
 ! A9    A(5,2,11)             106.8064                                         !
 ! A10   A(2,3,4)              118.5751                                         !
 ! A11   A(2,3,17)             118.1805                                         !
 ! A12   A(4,3,17)             123.1435                                         !
 ! A13   A(2,5,6)              106.6233                                         !
 ! A14   A(2,5,12)             112.6118                                         !
 ! A15   A(2,5,13)             110.2178                                         !
 ! A16   A(6,5,12)             109.6124                                         !
 ! A17   A(6,5,13)             108.7934                                         !
 ! A18   A(12,5,13)            108.9024                                         !
 ! A19   A(5,6,7)              121.5436                                         !
 ! A20   A(5,6,8)              114.769                                          !
 ! A21   A(7,6,8)              123.6689                                         !
 ! A22   A(6,7,14)             122.1599                                         !
 ! A23   A(6,7,15)             119.0476                                         !
 ! A24   A(14,7,15)            118.4305                                         !
 ! A25   A(6,8,10)             113.8822                                         !
 ! A26   A(3,17,18)            120.1645                                         !
 ! A27   A(3,17,28)            120.4006                                         !
 ! A28   A(18,17,28)           114.166                                          !
 ! A29   A(17,18,19)           108.0996                                         !
 ! A30   A(17,18,21)           110.971                                          !
 ! A31   A(17,18,29)           105.9099                                         !
 ! A32   A(19,18,21)           112.1568                                         !
 ! A33   A(19,18,29)           110.5779                                         !
 ! A34   A(21,18,29)           108.9453                                         !
 ! A35   A(18,19,20)           120.8864                                         !
 ! A36   A(18,19,37)           117.7473                                         !
 ! A37   A(20,19,37)           121.2456                                         !
 ! A38   A(18,21,22)           110.955                                          !
 ! A39   A(18,21,30)           109.1177                                         !
 ! A40   A(18,21,31)           108.1237                                         !
 ! A41   A(22,21,30)           110.5976                                         !
 ! A42   A(22,21,31)           111.606                                          !
 ! A43   A(30,21,31)           106.285                                          !
 ! A44   A(21,22,23)           121.1289                                         !
 ! A45   A(21,22,24)           120.1809                                         !
 ! A46   A(23,22,24)           118.4723                                         !
 ! A47   A(22,23,25)           120.7962                                         !
 ! A48   A(22,23,32)           119.5363                                         !
 ! A49   A(25,23,32)           119.6588                                         !
 ! A50   A(22,24,26)           121.0201                                         !
 ! A51   A(22,24,33)           119.2148                                         !
 ! A52   A(26,24,33)           119.7644                                         !
 ! A53   A(23,25,27)           120.2157                                         !
 ! A54   A(23,25,34)           119.719                                          !
 ! A55   A(27,25,34)           120.0653                                         !
 ! A56   A(24,26,27)           119.9154                                         !
 ! A57   A(24,26,35)           119.9556                                         !
 ! A58   A(27,26,35)           120.1253                                         !
 ! A59   A(25,27,26)           119.5769                                         !
 ! A60   A(25,27,36)           120.1727                                         !
 ! A61   A(26,27,36)           120.2439                                         !
 ! A62   A(19,37,38)           128.4578                                         !
 ! A63   A(19,37,45)           116.2238                                         !
 ! A64   A(38,37,45)           114.8245                                         !
 ! A65   A(37,38,39)           115.6675                                         !
 ! A66   A(37,38,41)           111.3405                                         !
 ! A67   A(37,38,46)           109.6858                                         !
 ! A68   A(39,38,41)           109.0078                                         !
 ! A69   A(39,38,46)           103.3597                                         !
 ! A70   A(41,38,46)           107.1923                                         !
 ! A71   A(38,39,40)           115.9128                                         !
 ! A72   A(38,39,51)           121.9346                                         !
 ! A73   A(40,39,51)           122.132                                          !
 ! A74   A(38,41,42)           111.7455                                         !
 ! A75   A(38,41,47)           108.8834                                         !
 ! A76   A(38,41,48)           108.642                                          !
 ! A77   A(42,41,47)           109.4034                                         !
 ! A78   A(42,41,48)           110.3268                                         !
 ! A79   A(47,41,48)           107.7424                                         !
 ! A80   A(41,42,43)           115.6268                                         !
 ! A81   A(41,42,44)           121.652                                          !
 ! A82   A(43,42,44)           122.7197                                         !
 ! A83   A(42,43,49)           118.5869                                         !
 ! A84   A(42,43,50)           122.8102                                         !
 ! A85   A(49,43,50)           118.6021                                         !
 ! A86   A(39,51,52)           118.8895                                         !
 ! A87   A(39,51,64)           121.4993                                         !
 ! A88   A(52,51,64)           118.1285                                         !
 ! A89   A(51,52,53)           107.5702                                         !
 ! A90   A(51,52,55)           114.2862                                         !
 ! A91   A(51,52,65)           105.1476                                         !
 ! A92   A(53,52,55)           117.4883                                         !
 ! A93   A(53,52,65)           104.8736                                         !
 ! A94   A(55,52,65)           106.3462                                         !
 ! A95   A(52,53,54)           125.1212                                         !
 ! A96   A(52,53,62)           115.0089                                         !
 ! A97   A(54,53,62)           119.8291                                         !
 ! A98   A(52,55,56)           122.6508                                         !
 ! A99   A(52,55,66)           104.9121                                         !
 ! A100  A(52,55,67)           106.3314                                         !
 ! A101  A(56,55,66)           106.0423                                         !
 ! A102  A(56,55,67)           109.9149                                         !
 ! A103  A(66,55,67)           105.7631                                         !
 ! A104  A(55,56,57)           118.0406                                         !
 ! A105  A(55,56,68)           110.2264                                         !
 ! A106  A(55,56,69)           105.6867                                         !
 ! A107  A(57,56,68)           110.3087                                         !
 ! A108  A(57,56,69)           105.4031                                         !
 ! A109  A(68,56,69)           106.3272                                         !
 ! A110  A(56,57,58)           116.2337                                         !
 ! A111  A(56,57,70)           108.2815                                         !
 ! A112  A(56,57,71)           109.7056                                         !
 ! A113  A(58,57,70)           108.0937                                         !
 ! A114  A(58,57,71)           106.4826                                         !
 ! A115  A(70,57,71)           107.7435                                         !
 ! A116  A(57,58,59)           119.7171                                         !
 ! A117  A(57,58,72)           116.4688                                         !
 ! A118  A(59,58,72)           116.6802                                         !
 ! A119  A(58,59,60)           119.3095                                         !
 ! A120  A(58,59,61)           114.5022                                         !
 ! A121  A(60,59,61)           125.925                                          !
 ! A122  A(59,60,73)           111.4186                                         !
 ! A123  A(59,61,74)           110.8916                                         !
 ! A124  A(59,61,75)           113.9266                                         !
 ! A125  A(74,61,75)           110.6941                                         !
 ! A126  A(53,62,63)           109.7672                                         !
 ! D1    D(9,1,2,3)             58.2309                                         !
 ! D2    D(9,1,2,5)            -71.6479                                         !
 ! D3    D(9,1,2,11)           172.9934                                         !
 ! D4    D(16,1,2,3)           -56.3545                                         !
 ! D5    D(16,1,2,5)           173.7667                                         !
 ! D6    D(16,1,2,11)           58.408                                          !
 ! D7    D(1,2,3,4)             32.3589                                         !
 ! D8    D(1,2,3,17)          -151.1774                                         !
 ! D9    D(5,2,3,4)            159.0406                                         !
 ! D10   D(5,2,3,17)           -24.4956                                         !
 ! D11   D(11,2,3,4)           -84.3217                                         !
 ! D12   D(11,2,3,17)           92.1421                                         !
 ! D13   D(1,2,5,6)            -34.9518                                         !
 ! D14   D(1,2,5,12)            85.3008                                         !
 ! D15   D(1,2,5,13)          -152.8717                                         !
 ! D16   D(3,2,5,6)           -164.0229                                         !
 ! D17   D(3,2,5,12)           -43.7703                                         !
 ! D18   D(3,2,5,13)            78.0573                                         !
 ! D19   D(11,2,5,6)            80.828                                          !
 ! D20   D(11,2,5,12)         -158.9194                                         !
 ! D21   D(11,2,5,13)          -37.0919                                         !
 ! D22   D(2,3,17,18)         -150.4372                                         !
 ! D23   D(2,3,17,28)            2.4318                                         !
 ! D24   D(4,3,17,18)           25.8536                                         !
 ! D25   D(4,3,17,28)          178.7227                                         !
 ! D26   D(2,5,6,7)            109.4584                                         !
 ! D27   D(2,5,6,8)            -72.0534                                         !
 ! D28   D(12,5,6,7)           -12.706                                          !
 ! D29   D(12,5,6,8)           165.7822                                         !
 ! D30   D(13,5,6,7)          -131.688                                          !
 ! D31   D(13,5,6,8)            46.8002                                         !
 ! D32   D(5,6,7,14)          -175.525                                          !
 ! D33   D(5,6,7,15)            -2.5453                                         !
 ! D34   D(8,6,7,14)             6.1244                                         !
 ! D35   D(8,6,7,15)           179.1042                                         !
 ! D36   D(5,6,8,10)           171.6718                                         !
 ! D37   D(7,6,8,10)            -9.8763                                         !
 ! D38   D(3,17,18,19)        -136.0393                                         !
 ! D39   D(3,17,18,21)         100.5802                                         !
 ! D40   D(3,17,18,29)         -17.5058                                         !
 ! D41   D(28,17,18,19)         69.4985                                         !
 ! D42   D(28,17,18,21)        -53.8819                                         !
 ! D43   D(28,17,18,29)       -171.968                                          !
 ! D44   D(17,18,19,20)       -105.7606                                         !
 ! D45   D(17,18,19,37)         70.2929                                         !
 ! D46   D(21,18,19,20)         16.8987                                         !
 ! D47   D(21,18,19,37)       -167.0477                                         !
 ! D48   D(29,18,19,20)        138.7236                                         !
 ! D49   D(29,18,19,37)        -45.2229                                         !
 ! D50   D(17,18,21,22)        -39.4431                                         !
 ! D51   D(17,18,21,30)         82.6605                                         !
 ! D52   D(17,18,21,31)       -162.1425                                         !
 ! D53   D(19,18,21,22)       -160.4615                                         !
 ! D54   D(19,18,21,30)        -38.3579                                         !
 ! D55   D(19,18,21,31)         76.8391                                         !
 ! D56   D(29,18,21,22)         76.7853                                         !
 ! D57   D(29,18,21,30)       -161.111                                          !
 ! D58   D(29,18,21,31)        -45.9141                                         !
 ! D59   D(18,19,37,38)         -1.7628                                         !
 ! D60   D(18,19,37,45)       -173.2129                                         !
 ! D61   D(20,19,37,38)        174.2758                                         !
 ! D62   D(20,19,37,45)          2.8258                                         !
 ! D63   D(18,21,22,23)        -73.5379                                         !
 ! D64   D(18,21,22,24)        101.0166                                         !
 ! D65   D(30,21,22,23)        165.2249                                         !
 ! D66   D(30,21,22,24)        -20.2206                                         !
 ! D67   D(31,21,22,23)         47.1223                                         !
 ! D68   D(31,21,22,24)       -138.3232                                         !
 ! D69   D(21,22,23,25)        174.1827                                         !
 ! D70   D(21,22,23,32)         -4.7417                                         !
 ! D71   D(24,22,23,25)         -0.4626                                         !
 ! D72   D(24,22,23,32)       -179.387                                          !
 ! D73   D(21,22,24,26)       -174.3621                                         !
 ! D74   D(21,22,24,33)          5.9373                                         !
 ! D75   D(23,22,24,26)          0.3355                                         !
 ! D76   D(23,22,24,33)       -179.365                                          !
 ! D77   D(22,23,25,27)          0.077                                          !
 ! D78   D(22,23,25,34)        179.99                                           !
 ! D79   D(32,23,25,27)        179.0001                                         !
 ! D80   D(32,23,25,34)         -1.0869                                         !
 ! D81   D(22,24,26,27)          0.178                                          !
 ! D82   D(22,24,26,35)       -179.1281                                         !
 ! D83   D(33,24,26,27)        179.8769                                         !
 ! D84   D(33,24,26,35)          0.5709                                         !
 ! D85   D(23,25,27,26)          0.4435                                         !
 ! D86   D(23,25,27,36)        179.5175                                         !
 ! D87   D(34,25,27,26)       -179.4691                                         !
 ! D88   D(34,25,27,36)         -0.3952                                         !
 ! D89   D(24,26,27,25)         -0.5685                                         !
 ! D90   D(24,26,27,36)       -179.6417                                         !
 ! D91   D(35,26,27,25)        178.7364                                         !
 ! D92   D(35,26,27,36)         -0.3369                                         !
 ! D93   D(19,37,38,39)        -97.441                                          !
 ! D94   D(19,37,38,41)        137.4096                                         !
 ! D95   D(19,37,38,46)         18.9318                                         !
 ! D96   D(45,37,38,39)         74.109                                          !
 ! D97   D(45,37,38,41)        -51.0405                                         !
 ! D98   D(45,37,38,46)       -169.5183                                         !
 ! D99   D(37,38,39,40)        174.8869                                         !
 ! D100  D(37,38,39,51)         -3.4963                                         !
 ! D101  D(41,38,39,40)        -58.7728                                         !
 ! D102  D(41,38,39,51)        122.844                                          !
 ! D103  D(46,38,39,40)         55.0014                                         !
 ! D104  D(46,38,39,51)       -123.3818                                         !
 ! D105  D(37,38,41,42)         62.8262                                         !
 ! D106  D(37,38,41,47)        -58.1344                                         !
 ! D107  D(37,38,41,48)       -175.2186                                         !
 ! D108  D(39,38,41,42)        -65.9617                                         !
 ! D109  D(39,38,41,47)        173.0776                                         !
 ! D110  D(39,38,41,48)         55.9935                                         !
 ! D111  D(46,38,41,42)       -177.2096                                         !
 ! D112  D(46,38,41,47)         61.8298                                         !
 ! D113  D(46,38,41,48)        -55.2544                                         !
 ! D114  D(38,39,51,52)       -171.5183                                         !
 ! D115  D(38,39,51,64)         -5.6716                                         !
 ! D116  D(40,39,51,52)         10.1991                                         !
 ! D117  D(40,39,51,64)        176.0457                                         !
 ! D118  D(38,41,42,43)        171.5852                                         !
 ! D119  D(38,41,42,44)         -8.8529                                         !
 ! D120  D(47,41,42,43)        -67.7569                                         !
 ! D121  D(47,41,42,44)        111.805                                          !
 ! D122  D(48,41,42,43)         50.6039                                         !
 ! D123  D(48,41,42,44)       -129.8341                                         !
 ! D124  D(41,42,43,49)        178.2266                                         !
 ! D125  D(41,42,43,50)         -2.1046                                         !
 ! D126  D(44,42,43,49)         -1.3302                                         !
 ! D127  D(44,42,43,50)        178.3386                                         !
 ! D128  D(39,51,52,53)        -79.0561                                         !
 ! D129  D(39,51,52,55)        148.5643                                         !
 ! D130  D(39,51,52,65)         32.3307                                         !
 ! D131  D(64,51,52,53)        114.6186                                         !
 ! D132  D(64,51,52,55)        -17.761                                          !
 ! D133  D(64,51,52,65)       -133.9946                                         !
 ! D134  D(51,52,53,54)       -111.9248                                         !
 ! D135  D(51,52,53,62)         65.7341                                         !
 ! D136  D(55,52,53,54)         18.6982                                         !
 ! D137  D(55,52,53,62)       -163.6429                                         !
 ! D138  D(65,52,53,54)        136.5018                                         !
 ! D139  D(65,52,53,62)        -45.8393                                         !
 ! D140  D(51,52,55,56)         93.3481                                         !
 ! D141  D(51,52,55,66)       -145.9685                                         !
 ! D142  D(51,52,55,67)        -34.1924                                         !
 ! D143  D(53,52,55,56)        -34.1047                                         !
 ! D144  D(53,52,55,66)         86.5787                                         !
 ! D145  D(53,52,55,67)       -161.6452                                         !
 ! D146  D(65,52,55,56)       -151.1148                                         !
 ! D147  D(65,52,55,66)        -30.4314                                         !
 ! D148  D(65,52,55,67)         81.3447                                         !
 ! D149  D(52,53,62,63)         -4.5922                                         !
 ! D150  D(54,53,62,63)        173.2006                                         !
 ! D151  D(52,55,56,57)        -77.852                                          !
 ! D152  D(52,55,56,68)         50.1237                                         !
 ! D153  D(52,55,56,69)        164.6218                                         !
 ! D154  D(66,55,56,57)        161.9977                                         !
 ! D155  D(66,55,56,68)        -70.0267                                         !
 ! D156  D(66,55,56,69)         44.4714                                         !
 ! D157  D(67,55,56,57)         48.1177                                         !
 ! D158  D(67,55,56,68)        176.0934                                         !
 ! D159  D(67,55,56,69)        -69.4085                                         !
 ! D160  D(55,56,57,58)         66.3738                                         !
 ! D161  D(55,56,57,70)       -171.7937                                         !
 ! D162  D(55,56,57,71)        -54.4553                                         !
 ! D163  D(68,56,57,58)        -61.5629                                         !
 ! D164  D(68,56,57,70)         60.2697                                         !
 ! D165  D(68,56,57,71)        177.608                                          !
 ! D166  D(69,56,57,58)       -175.9491                                         !
 ! D167  D(69,56,57,70)        -54.1165                                         !
 ! D168  D(69,56,57,71)         63.2218                                         !
 ! D169  D(56,57,58,59)       -118.4993                                         !
 ! D170  D(56,57,58,72)         91.9883                                         !
 ! D171  D(70,57,58,59)        119.569                                          !
 ! D172  D(70,57,58,72)        -29.9434                                         !
 ! D173  D(71,57,58,59)          4.0364                                         !
 ! D174  D(71,57,58,72)       -145.476                                          !
 ! D175  D(57,58,59,60)         32.4111                                         !
 ! D176  D(57,58,59,61)       -153.1356                                         !
 ! D177  D(72,58,59,60)       -178.1388                                         !
 ! D178  D(72,58,59,61)         -3.6856                                         !
 ! D179  D(58,59,60,73)       -174.4322                                         !
 ! D180  D(61,59,60,73)         11.8032                                         !
 ! D181  D(58,59,61,74)        177.0189                                         !
 ! D182  D(58,59,61,75)         51.3457                                         !
 ! D183  D(60,59,61,74)         -8.9554                                         !
 ! D184  D(60,59,61,75)       -134.6286                                         !
 --------------------------------------------------------------------------------
 Symmetry turned off by external request.
 Stoichiometry    C23H36N9O7(1+)
 Framework group  C1[X(C23H36N9O7)]
 Deg. of freedom   219
 Full point group                 C1      NOp   1
                          Input orientation:                          
 ---------------------------------------------------------------------
 Center     Atomic      Atomic             Coordinates (Angstroms)
 Number     Number       Type             X           Y           Z
 ---------------------------------------------------------------------
      1          7           0       -6.912015    2.132913   -8.081173
      2          6           0       -6.713332    1.110972   -7.057212
      3          6           0       -5.902064   -0.103522   -7.544519
      4          8           0       -5.030232    0.073874   -8.388592
      5          6           0       -8.085075    0.772442   -6.410039
      6          6           0       -8.865929    2.045414   -6.373042
      7          7           0       -9.898257    2.233980   -7.143947
      8          8           0       -8.445998    2.922870   -5.491313
      9          1           0       -7.389334    1.718075   -8.882803
     10          1           0       -8.878719    3.793593   -5.563945
     11          1           0       -6.090408    1.551943   -6.268315
     12          1           0       -8.639577    0.018717   -6.971916
     13          1           0       -7.942146    0.416578   -5.385015
     14          1           0      -10.395250    3.118713   -7.174786
     15          1           0      -10.162056    1.487874   -7.834628
     16          1           0       -5.995809    2.419368   -8.422696
     17          7           0       -6.140052   -1.313564   -6.960805
     18          6           0       -5.068058   -2.308749   -6.865084
     19          6           0       -5.650775   -3.677136   -7.253143
     20          8           0       -5.880305   -4.535057   -6.394707
     21          6           0       -4.445686   -2.319532   -5.443942
     22          6           0       -4.318129   -0.915057   -4.898831
     23          6           0       -3.341340   -0.036170   -5.383617
     24          6           0       -5.253849   -0.430187   -3.974012
     25          6           0       -3.305548    1.294500   -4.963692
     26          6           0       -5.222021    0.899490   -3.547669
     27          6           0       -4.248622    1.768567   -4.047658
     28          1           0       -6.861742   -1.409348   -6.250572
     29          1           0       -4.306759   -1.998438   -7.582985
     30          1           0       -5.066688   -2.932425   -4.785884
     31          1           0       -3.472558   -2.819793   -5.501804
     32          1           0       -2.613453   -0.391155   -6.108804
     33          1           0       -6.011831   -1.105479   -3.581466
     34          1           0       -2.540124    1.960959   -5.350858
     35          1           0       -5.947134    1.253448   -2.819315
     36          1           0       -4.215346    2.802280   -3.715349
     37          7           0       -5.979008   -3.877984   -8.554377
     38          6           0       -5.887582   -2.945754   -9.662272
     39          6           0       -7.187126   -2.214575  -10.024677
     40          8           0       -7.091866   -1.336690  -10.913698
     41          6           0       -5.326891   -3.628664  -10.925117
     42          6           0       -6.246131   -4.746775  -11.420356
     43          7           0       -5.923179   -5.281461  -12.621633
     44          8           0       -7.208723   -5.132680  -10.757529
     45          1           0       -6.459920   -4.748347   -8.767324
     46          1           0       -5.204700   -2.133702   -9.404302
     47          1           0       -4.338950   -4.044585  -10.694647
     48          1           0       -5.196317   -2.870829  -11.703963
     49          1           0       -6.484859   -6.042363  -12.979270
     50          1           0       -5.148795   -4.949769  -13.177493
     51          7           0       -8.346443   -2.477364   -9.402622
     52          6           0       -9.589581   -1.877063   -9.927070
     53          6           0       -9.639562   -0.414846   -9.444455
     54          8           0      -10.444207    0.034171   -8.631528
     55          6           0      -10.853432   -2.742902   -9.713716
     56          6           0      -11.778259   -2.577895   -8.490824
     57          6           0      -11.324167   -3.178406   -7.159972
     58          7           0      -10.134903   -2.571460   -6.545413
     59          6           0       -9.007695   -3.335186   -6.339894
     60          7           0       -8.728376   -4.282496   -7.166984
     61          7           0       -8.191376   -2.899753   -5.271171
     62          8           0       -8.694096    0.370482   -9.938319
     63          1           0       -8.045947   -0.183207  -10.507928
     64          1           0       -8.428414   -3.245821   -8.712244
     65          1           0       -9.440298   -1.810575  -11.012404
     66          1           0      -11.478086   -2.551852  -10.593839
     67          1           0      -10.529770   -3.787329   -9.799106
     68          1           0      -12.047622   -1.529191   -8.360591
     69          1           0      -12.706855   -3.105681   -8.747347
     70          1           0      -12.154344   -3.100455   -6.445888
     71          1           0      -11.097494   -4.239006   -7.292593
     72          1           0      -10.300259   -1.821335   -5.889558
     73          1           0       -7.925481   -4.825764   -6.853158
     74          1           0       -7.401431   -3.530061   -5.136896
     75          1           0       -8.694071   -2.762221   -4.397544
 ---------------------------------------------------------------------
 Rotational constants (GHZ):           0.1240640           0.0885805           0.0720581
 Standard basis: 6-31G(d) (6D, 7F)
   657 basis functions,  1236 primitive gaussians,   657 cartesian basis functions
   146 alpha electrons      146 beta electrons
       nuclear repulsion energy      5224.4118786222 Hartrees.
 NAtoms=   75 NActive=   75 NUniq=   75 SFac= 1.00D+00 NAtFMM=   60 NAOKFM=T Big=T
 Integral buffers will be    131072 words long.
 Raffenetti 2 integral format.
 Two-electron integral symmetry is turned off.
 Nuclear repulsion after empirical dispersion term =     5224.2885025023 Hartrees.
 One-electron integrals computed using PRISM.
 NBasis=   657 RedAO= T EigKep=  4.65D-04  NBF=   657
 NBsUse=   657 1.00D-06 EigRej= -1.00D+00 NBFU=   657
 Initial guess from the checkpoint file:  "conf-962.chk"
 B after Tr=     0.000000    0.000000    0.000000
         Rot=    1.000000    0.000000    0.000000    0.000000 Ang=   0.00 deg.
 Requested convergence on RMS density matrix=1.00D-08 within 128 cycles.
 Requested convergence on MAX density matrix=1.00D-06.
 Requested convergence on             energy=1.00D-06.
 No special actions if energy rises.
 SCF Done:  E(RB3LYP) =  -1917.46294564     A.U. after    1 cycles
            NFock=  1  Conv=0.66D-08     -V/T= 2.0093

 **********************************************************************

            Population analysis using the SCF Density.

 **********************************************************************

 Alpha  occ. eigenvalues --  -19.37341 -19.29367 -19.26333 -19.23188 -19.21841
 Alpha  occ. eigenvalues --  -19.21566 -19.20650 -14.53519 -14.46259 -14.45923
 Alpha  occ. eigenvalues --  -14.45495 -14.45387 -14.44975 -14.44714 -14.41999
 Alpha  occ. eigenvalues --  -14.38010 -10.49156 -10.43915 -10.39674 -10.38833
 Alpha  occ. eigenvalues --  -10.38805 -10.38397 -10.38366 -10.34573 -10.34356
 Alpha  occ. eigenvalues --  -10.34034 -10.33863 -10.33140 -10.30376 -10.29524
 Alpha  occ. eigenvalues --  -10.28457 -10.28437 -10.28038 -10.27888 -10.27781
 Alpha  occ. eigenvalues --  -10.27556 -10.27489 -10.27324 -10.26838  -1.27205
 Alpha  occ. eigenvalues --   -1.21567  -1.15029  -1.13955  -1.13255  -1.12666
 Alpha  occ. eigenvalues --   -1.12330  -1.10217  -1.07674  -1.03371  -1.02685
 Alpha  occ. eigenvalues --   -1.01678  -1.00185  -0.99501  -0.98674  -0.94199
 Alpha  occ. eigenvalues --   -0.93997  -0.91436  -0.89048  -0.87935  -0.87423
 Alpha  occ. eigenvalues --   -0.83723  -0.83413  -0.83005  -0.80927  -0.78118
 Alpha  occ. eigenvalues --   -0.77044  -0.76568  -0.75447  -0.74671  -0.72239
 Alpha  occ. eigenvalues --   -0.70445  -0.70214  -0.69429  -0.69295  -0.68899
 Alpha  occ. eigenvalues --   -0.68182  -0.67914  -0.67364  -0.66933  -0.64580
 Alpha  occ. eigenvalues --   -0.64138  -0.63550  -0.63042  -0.62377  -0.62106
 Alpha  occ. eigenvalues --   -0.61403  -0.60292  -0.59667  -0.59385  -0.58633
 Alpha  occ. eigenvalues --   -0.58156  -0.57301  -0.56984  -0.56545  -0.56075
 Alpha  occ. eigenvalues --   -0.55738  -0.55453  -0.55001  -0.54699  -0.54333
 Alpha  occ. eigenvalues --   -0.54058  -0.53739  -0.53608  -0.53388  -0.52899
 Alpha  occ. eigenvalues --   -0.52121  -0.51378  -0.51057  -0.50880  -0.50568
 Alpha  occ. eigenvalues --   -0.50196  -0.50062  -0.49486  -0.49206  -0.48809
 Alpha  occ. eigenvalues --   -0.48543  -0.48329  -0.47421  -0.47379  -0.46841
 Alpha  occ. eigenvalues --   -0.46612  -0.45664  -0.45646  -0.44709  -0.43971
 Alpha  occ. eigenvalues --   -0.43888  -0.43749  -0.43264  -0.42922  -0.42464
 Alpha  occ. eigenvalues --   -0.42343  -0.39850  -0.38957  -0.37741  -0.36972
 Alpha  occ. eigenvalues --   -0.36664  -0.36238  -0.35842  -0.35740  -0.35124
 Alpha  occ. eigenvalues --   -0.34730  -0.34307  -0.34028  -0.33502  -0.32988
 Alpha  occ. eigenvalues --   -0.32406
 Alpha virt. eigenvalues --   -0.16504  -0.11628  -0.09699  -0.09163  -0.09026
 Alpha virt. eigenvalues --   -0.08918  -0.08453  -0.08182  -0.06362  -0.05672
 Alpha virt. eigenvalues --   -0.04572  -0.04066  -0.01410  -0.00513  -0.00337
 Alpha virt. eigenvalues --    0.00376   0.00925   0.01524   0.01789   0.02597
 Alpha virt. eigenvalues --    0.03333   0.03638   0.03848   0.04364   0.04669
 Alpha virt. eigenvalues --    0.05360   0.05574   0.05832   0.05860   0.06356
 Alpha virt. eigenvalues --    0.06516   0.06982   0.07471   0.07643   0.08013
 Alpha virt. eigenvalues --    0.08219   0.08400   0.08714   0.09225   0.09444
 Alpha virt. eigenvalues --    0.09689   0.10007   0.10244   0.10471   0.11030
 Alpha virt. eigenvalues --    0.11303   0.11688   0.11849   0.12466   0.12963
 Alpha virt. eigenvalues --    0.13213   0.13758   0.14438   0.14574   0.14982
 Alpha virt. eigenvalues --    0.15485   0.16085   0.16342   0.16529   0.17400
 Alpha virt. eigenvalues --    0.18566   0.18949   0.19688   0.20196   0.21583
 Alpha virt. eigenvalues --    0.21877   0.22134   0.23283   0.23587   0.24136
 Alpha virt. eigenvalues --    0.24655   0.25780   0.26102   0.26660   0.27347
 Alpha virt. eigenvalues --    0.27732   0.27838   0.28560   0.30252   0.31400
 Alpha virt. eigenvalues --    0.33139   0.34548   0.35407   0.36786   0.37323
 Alpha virt. eigenvalues --    0.37642   0.38015   0.39228   0.40103   0.40666
 Alpha virt. eigenvalues --    0.41300   0.42500   0.42910   0.43159   0.43428
 Alpha virt. eigenvalues --    0.44436   0.44887   0.45130   0.45629   0.45744
 Alpha virt. eigenvalues --    0.46522   0.46982   0.47280   0.47316   0.48258
 Alpha virt. eigenvalues --    0.48400   0.49062   0.49325   0.49555   0.50043
 Alpha virt. eigenvalues --    0.50711   0.50838   0.51157   0.51647   0.52125
 Alpha virt. eigenvalues --    0.52617   0.52778   0.53068   0.53360   0.53793
 Alpha virt. eigenvalues --    0.54026   0.54509   0.54655   0.55002   0.56252
 Alpha virt. eigenvalues --    0.56431   0.56718   0.57359   0.57831   0.57958
 Alpha virt. eigenvalues --    0.58221   0.58771   0.59266   0.59322   0.60267
 Alpha virt. eigenvalues --    0.60490   0.60843   0.61130   0.61629   0.62164
 Alpha virt. eigenvalues --    0.62760   0.63084   0.64553   0.65314   0.65610
 Alpha virt. eigenvalues --    0.66034   0.66308   0.66701   0.67211   0.67627
 Alpha virt. eigenvalues --    0.68170   0.69070   0.69622   0.69889   0.70949
 Alpha virt. eigenvalues --    0.71939   0.72276   0.72748   0.73511   0.73780
 Alpha virt. eigenvalues --    0.74237   0.74538   0.75027   0.75197   0.75509
 Alpha virt. eigenvalues --    0.76272   0.76433   0.76923   0.77313   0.77594
 Alpha virt. eigenvalues --    0.77999   0.78381   0.78826   0.78917   0.79167
 Alpha virt. eigenvalues --    0.79285   0.79706   0.79852   0.80204   0.80296
 Alpha virt. eigenvalues --    0.80663   0.81285   0.81426   0.82135   0.82683
 Alpha virt. eigenvalues --    0.83005   0.83634   0.84241   0.84865   0.85163
 Alpha virt. eigenvalues --    0.85556   0.85800   0.86197   0.86472   0.87331
 Alpha virt. eigenvalues --    0.87595   0.88286   0.88391   0.89196   0.89715
 Alpha virt. eigenvalues --    0.90108   0.90801   0.91580   0.91992   0.92231
 Alpha virt. eigenvalues --    0.92513   0.92845   0.93247   0.94523   0.95207
 Alpha virt. eigenvalues --    0.96010   0.96195   0.96663   0.97163   0.98056
 Alpha virt. eigenvalues --    0.98937   0.99744   1.00499   1.01413   1.02458
 Alpha virt. eigenvalues --    1.03557   1.05015   1.05544   1.06009   1.06733
 Alpha virt. eigenvalues --    1.07142   1.07585   1.08461   1.09353   1.09955
 Alpha virt. eigenvalues --    1.10228   1.11468   1.11881   1.12535   1.13146
 Alpha virt. eigenvalues --    1.13526   1.14985   1.15502   1.15921   1.16417
 Alpha virt. eigenvalues --    1.17054   1.17742   1.19197   1.19893   1.20611
 Alpha virt. eigenvalues --    1.20736   1.21738   1.22871   1.23141   1.23567
 Alpha virt. eigenvalues --    1.24113   1.25076   1.26782   1.27279   1.28158
 Alpha virt. eigenvalues --    1.29520   1.30192   1.30530   1.31092   1.31844
 Alpha virt. eigenvalues --    1.32778   1.32983   1.33761   1.34822   1.35660
 Alpha virt. eigenvalues --    1.35837   1.36722   1.37398   1.38488   1.38806
 Alpha virt. eigenvalues --    1.39575   1.40278   1.40666   1.41513   1.42379
 Alpha virt. eigenvalues --    1.42962   1.43608   1.44375   1.44863   1.46056
 Alpha virt. eigenvalues --    1.47170   1.48176   1.48899   1.49592   1.51277
 Alpha virt. eigenvalues --    1.51676   1.52314   1.53152   1.54712   1.55373
 Alpha virt. eigenvalues --    1.56325   1.56627   1.57477   1.57912   1.58048
 Alpha virt. eigenvalues --    1.58525   1.59443   1.60452   1.60901   1.61853
 Alpha virt. eigenvalues --    1.63097   1.64553   1.64982   1.66098   1.66889
 Alpha virt. eigenvalues --    1.67412   1.67791   1.68234   1.69107   1.69464
 Alpha virt. eigenvalues --    1.69540   1.70214   1.71171   1.71707   1.71922
 Alpha virt. eigenvalues --    1.72743   1.73075   1.73646   1.73949   1.74556
 Alpha virt. eigenvalues --    1.75432   1.75975   1.76471   1.77156   1.77562
 Alpha virt. eigenvalues --    1.78132   1.78925   1.79618   1.79979   1.80684
 Alpha virt. eigenvalues --    1.81502   1.82460   1.83305   1.83679   1.84525
 Alpha virt. eigenvalues --    1.84689   1.85571   1.85999   1.86595   1.86744
 Alpha virt. eigenvalues --    1.87538   1.87786   1.88951   1.89685   1.89883
 Alpha virt. eigenvalues --    1.90641   1.91075   1.92330   1.93361   1.93586
 Alpha virt. eigenvalues --    1.94241   1.94649   1.95074   1.96354   1.96871
 Alpha virt. eigenvalues --    1.97060   1.97456   1.98414   1.99269   1.99944
 Alpha virt. eigenvalues --    2.00587   2.00977   2.01368   2.03074   2.04055
 Alpha virt. eigenvalues --    2.05264   2.05571   2.06285   2.07055   2.07254
 Alpha virt. eigenvalues --    2.08044   2.08350   2.08741   2.08839   2.09838
 Alpha virt. eigenvalues --    2.10783   2.11384   2.13018   2.14259   2.15445
 Alpha virt. eigenvalues --    2.15946   2.16218   2.17087   2.17996   2.19097
 Alpha virt. eigenvalues --    2.20203   2.20426   2.21325   2.22417   2.22949
 Alpha virt. eigenvalues --    2.23967   2.24776   2.26130   2.27508   2.27740
 Alpha virt. eigenvalues --    2.28340   2.29347   2.29992   2.31013   2.31922
 Alpha virt. eigenvalues --    2.33522   2.33800   2.34064   2.34371   2.35486
 Alpha virt. eigenvalues --    2.35792   2.36684   2.37497   2.37886   2.39401
 Alpha virt. eigenvalues --    2.39769   2.41073   2.42219   2.42930   2.44012
 Alpha virt. eigenvalues --    2.44731   2.46002   2.47429   2.47662   2.48500
 Alpha virt. eigenvalues --    2.49310   2.49664   2.50257   2.50868   2.51140
 Alpha virt. eigenvalues --    2.51882   2.53431   2.53985   2.54422   2.54680
 Alpha virt. eigenvalues --    2.55297   2.56542   2.57344   2.58713   2.59509
 Alpha virt. eigenvalues --    2.60874   2.61100   2.63007   2.63810   2.63990
 Alpha virt. eigenvalues --    2.64650   2.65314   2.66362   2.66792   2.67457
 Alpha virt. eigenvalues --    2.67808   2.69341   2.73334   2.74124   2.75378
 Alpha virt. eigenvalues --    2.76717   2.78373   2.80162   2.81819   2.85905
 Alpha virt. eigenvalues --    2.87839   2.88179   2.89317   2.89749   2.91799
 Alpha virt. eigenvalues --    2.93215   2.94357   2.94816   2.95909   2.96640
 Alpha virt. eigenvalues --    2.97098   2.98864   3.00485   3.05898   3.06798
 Alpha virt. eigenvalues --    3.11811   3.32324   3.71862   3.72576   3.79406
 Alpha virt. eigenvalues --    3.81595   3.85112   3.87726   3.89396   3.94408
 Alpha virt. eigenvalues --    3.96871   3.98188   4.00876   4.02476   4.03972
 Alpha virt. eigenvalues --    4.05753   4.06817   4.10865   4.12798   4.13609
 Alpha virt. eigenvalues --    4.14998   4.17581   4.18842   4.20484   4.22410
 Alpha virt. eigenvalues --    4.23807   4.29188   4.31745   4.32124   4.34764
 Alpha virt. eigenvalues --    4.35520   4.39857   4.42669   4.43516   4.46517
 Alpha virt. eigenvalues --    4.50337   4.56786   4.60537   4.63464   4.65157
 Alpha virt. eigenvalues --    4.72044
          Condensed to atoms (all electrons):
 Mulliken charges:
               1
     1  N   -0.760321
     2  C   -0.076879
     3  C    0.616171
     4  O   -0.523521
     5  C   -0.411968
     6  C    0.649281
     7  N   -0.715798
     8  O   -0.513401
     9  H    0.343074
    10  H    0.447896
    11  H    0.217718
    12  H    0.211499
    13  H    0.207379
    14  H    0.371866
    15  H    0.447934
    16  H    0.339764
    17  N   -0.642105
    18  C   -0.081738
    19  C    0.635173
    20  O   -0.540324
    21  C   -0.373642
    22  C    0.165548
    23  C   -0.169607
    24  C   -0.201810
    25  C   -0.130160
    26  C   -0.139294
    27  C   -0.139390
    28  H    0.389794
    29  H    0.202241
    30  H    0.170698
    31  H    0.179721
    32  H    0.145850
    33  H    0.120577
    34  H    0.153404
    35  H    0.137408
    36  H    0.146495
    37  N   -0.612838
    38  C   -0.067746
    39  C    0.662175
    40  O   -0.598779
    41  C   -0.384312
    42  C    0.611860
    43  N   -0.742557
    44  O   -0.524924
    45  H    0.375150
    46  H    0.218949
    47  H    0.193845
    48  H    0.207101
    49  H    0.360999
    50  H    0.354640
    51  N   -0.639231
    52  C   -0.073683
    53  C    0.659807
    54  O   -0.522885
    55  C   -0.311972
    56  C   -0.263428
    57  C   -0.147360
    58  N   -0.577636
    59  C    0.584347
    60  N   -0.701889
    61  N   -0.819781
    62  O   -0.599071
    63  H    0.475634
    64  H    0.435384
    65  H    0.198702
    66  H    0.166144
    67  H    0.190181
    68  H    0.167177
    69  H    0.152814
    70  H    0.149747
    71  H    0.200177
    72  H    0.313768
    73  H    0.326177
    74  H    0.372534
    75  H    0.331247
 Sum of Mulliken charges =   1.00000
 Mulliken charges with hydrogens summed into heavy atoms:
               1
     1  N   -0.077483
     2  C    0.140840
     3  C    0.616171
     4  O   -0.523521
     5  C    0.006909
     6  C    0.649281
     7  N    0.104002
     8  O   -0.065505
    17  N   -0.252310
    18  C    0.120503
    19  C    0.635173
    20  O   -0.540324
    21  C   -0.023223
    22  C    0.165548
    23  C   -0.023757
    24  C   -0.081233
    25  C    0.023244
    26  C   -0.001886
    27  C    0.007105
    37  N   -0.237688
    38  C    0.151203
    39  C    0.662175
    40  O   -0.598779
    41  C    0.016634
    42  C    0.611860
    43  N   -0.026918
    44  O   -0.524924
    51  N   -0.203847
    52  C    0.125019
    53  C    0.659807
    54  O   -0.522885
    55  C    0.044353
    56  C    0.056562
    57  C    0.202564
    58  N   -0.263868
    59  C    0.584347
    60  N   -0.375712
    61  N   -0.116000
    62  O   -0.123437
 Electronic spatial extent (au):  <R**2>=         135817.6629
 Charge=              1.0000 electrons
 Dipole moment (field-independent basis, Debye):
    X=            -40.0512    Y=              0.4392    Z=            -35.6066  Tot=             53.5922
 Quadrupole moment (field-independent basis, Debye-Ang):
   XX=            147.8428   YY=           -175.9343   ZZ=             91.6323
   XY=            -23.9841   XZ=            278.3853   YZ=             36.3335
 Traceless Quadrupole moment (field-independent basis, Debye-Ang):
   XX=            126.6625   YY=           -197.1146   ZZ=             70.4520
   XY=            -23.9841   XZ=            278.3853   YZ=             36.3335
 Octapole moment (field-independent basis, Debye-Ang**2):
  XXX=           1199.3673  YYY=           1023.2218  ZZZ=           1858.0444  XYY=           1256.5848
  XXY=            623.5551  XXZ=           -797.8798  XZZ=           -660.6404  YZZ=           -446.5245
  YYZ=           1241.4305  XYZ=            -39.8070
 Hexadecapole moment (field-independent basis, Debye-Ang**3):
 XXXX=         -40218.5621 YYYY=          -9334.3284 ZZZZ=         -47518.4657 XXXY=         -10122.7638
 XXXZ=         -13401.1369 YYYX=          -8065.0891 YYYZ=          -8367.7930 ZZZX=         -16147.4243
 ZZZY=           3108.2645 XXYY=         -11338.5177 XXZZ=          -7746.0410 YYZZ=         -10339.2541
 XXYZ=          -3914.2022 YYXZ=          -9595.3491 ZZXY=            703.2679
 N-N= 5.224288502502D+03 E-N=-1.488963687987D+04  KE= 1.899773268678D+03
 Unable to Open any file for archive entry.
 1\1\GINC-NVL-000\SP\RB3LYP\6-31G(d)\C23H36N9O7(1+)\KENGMITH\07-Jun-202
 2\0\\# B3LYP/6-31G* empiricaldispersion=gd3 guess=read geom=check nosy
 mm integral(ultrafinegrid)\\Candidate Structure: Conf:962 Charge calc 
 in gas phase\\1,1\N,0,-6.9120154791,2.1329131585,-8.0811733386\C,0,-6.
 7133322032,1.1109717081,-7.0572119959\C,0,-5.9020644003,-0.1035216179,
 -7.5445188023\O,0,-5.030232214,0.0738741862,-8.3885919172\C,0,-8.08507
 51513,0.7724417106,-6.4100393937\C,0,-8.8659292112,2.0454138311,-6.373
 0421966\N,0,-9.8982567794,2.2339803922,-7.1439465309\O,0,-8.4459982707
 ,2.9228702065,-5.4913127886\H,0,-7.3893336201,1.7180745282,-8.88280284
 43\H,0,-8.8787185196,3.7935925481,-5.5639446323\H,0,-6.0904080747,1.55
 1943192,-6.2683151797\H,0,-8.6395768727,0.0187166962,-6.9719156487\H,0
 ,-7.9421460682,0.4165777719,-5.3850148945\H,0,-10.3952495545,3.1187128
 188,-7.1747855107\H,0,-10.1620558345,1.4878743953,-7.8346278832\H,0,-5
 .995808991,2.4193684724,-8.4226957805\N,0,-6.1400523038,-1.3135640202,
 -6.9608054927\C,0,-5.0680577365,-2.3087487711,-6.8650843592\C,0,-5.650
 7748004,-3.6771356775,-7.2531426677\O,0,-5.8803045833,-4.5350567699,-6
 .3947069163\C,0,-4.4456855111,-2.3195316391,-5.4439421113\C,0,-4.31812
 91341,-0.9150572146,-4.8988312805\C,0,-3.3413400455,-0.0361701318,-5.3
 836172667\C,0,-5.2538491405,-0.4301871079,-3.9740115544\C,0,-3.3055475
 18,1.2944996137,-4.9636921696\C,0,-5.2220213365,0.8994902808,-3.547668
 9012\C,0,-4.2486215113,1.768567092,-4.0476581088\H,0,-6.8617417821,-1.
 4093478347,-6.2505719974\H,0,-4.3067589365,-1.9984380521,-7.5829852588
 \H,0,-5.0666882218,-2.9324248021,-4.7858840701\H,0,-3.472557799,-2.819
 7928747,-5.501803763\H,0,-2.6134525567,-0.3911549828,-6.1088035876\H,0
 ,-6.0118314855,-1.1054786537,-3.5814657839\H,0,-2.5401241394,1.9609587
 451,-5.3508575056\H,0,-5.9471337612,1.253448139,-2.819314673\H,0,-4.21
 53458231,2.8022803234,-3.7153486005\N,0,-5.9790083643,-3.8779839653,-8
 .5543770942\C,0,-5.8875819323,-2.9457542746,-9.662272406\C,0,-7.187125
 5364,-2.2145753875,-10.0246765254\O,0,-7.0918659361,-1.3366896909,-10.
 9136983147\C,0,-5.3268910757,-3.6286640734,-10.9251172356\C,0,-6.24613
 05588,-4.7467752946,-11.4203558814\N,0,-5.9231792633,-5.2814606475,-12
 .6216332885\O,0,-7.2087232419,-5.1326798091,-10.7575289042\H,0,-6.4599
 202967,-4.7483468536,-8.7673244464\H,0,-5.204699828,-2.1337016003,-9.4
 043022955\H,0,-4.3389501878,-4.0445851229,-10.6946470515\H,0,-5.196316
 8376,-2.8708291187,-11.7039628606\H,0,-6.4848587537,-6.0423631713,-12.
 9792703799\H,0,-5.1487953031,-4.9497688569,-13.1774928102\N,0,-8.34644
 30862,-2.4773641482,-9.4026217124\C,0,-9.5895806848,-1.8770625755,-9.9
 270704882\C,0,-9.6395618149,-0.4148462128,-9.4444548845\O,0,-10.444206
 5983,0.0341708388,-8.6315283864\C,0,-10.8534320732,-2.7429023578,-9.71
 37158714\C,0,-11.778259022,-2.5778952631,-8.4908236641\C,0,-11.3241670
 577,-3.1784057304,-7.1599721871\N,0,-10.1349032484,-2.571459514,-6.545
 4125859\C,0,-9.0076945319,-3.3351858796,-6.3398938444\N,0,-8.728376499
 7,-4.2824956678,-7.166984106\N,0,-8.1913757899,-2.8997530666,-5.271171
 2073\O,0,-8.6940957133,0.370482116,-9.9383187281\H,0,-8.0459468636,-0.
 1832071118,-10.5079284382\H,0,-8.4284141786,-3.2458208574,-8.712243649
 9\H,0,-9.4402980162,-1.8105754046,-11.0124041846\H,0,-11.4780856382,-2
 .5518520335,-10.5938393697\H,0,-10.5297700299,-3.7873285813,-9.7991057
 823\H,0,-12.0476224339,-1.5291906088,-8.3605911623\H,0,-12.7068553278,
 -3.1056811744,-8.7473472454\H,0,-12.1543435501,-3.1004547955,-6.445888
 0647\H,0,-11.0974940438,-4.2390060015,-7.2925929143\H,0,-10.3002586636
 ,-1.8213351252,-5.8895580664\H,0,-7.9254805375,-4.8257638937,-6.853158
 4688\H,0,-7.4014306642,-3.5300607988,-5.1368963958\H,0,-8.6940706062,-
 2.7622207261,-4.397543832\\Version=ES64L-G16RevC.01\HF=-1917.4629456\R
 MSD=6.640e-09\Dipole=-2.0370716,2.8683642,0.5690398\Quadrupole=94.1704
 922,-146.5498573,52.3793651,-17.831572,206.9726562,27.0130671\PG=C01 [
 X(C23H36N9O7)]\\@
 The archive entry for this job was punched.


 IF YOU BELIEVE CERTAIN WORDS, YOU BELIEVE THEIR HIDDEN ARGUMENTS.
 WHEN YOU BELIEVE SOMETHING IS RIGHT OR WRONG, TRUE OR FALSE, 
 YOU BELIEVE THE ASSUMPTIONS IN THE WORDS WHICH EXPRESS THE ARGUMENTS.
 SUCH ASSUMPTIONS ARE OFTEN FULL OF HOLES, BUT REMAIN MOST PRECIOUS 
 TO THE CONVINCED.

                 -- THE OPEN-ENDED PROOF FROM THE PANOPLIA PROPHETICA
                    CHILDREN OF DUNE BY FRANK HERBERT
 Job cpu time:       0 days  0 hours  2 minutes 11.7 seconds.
 Elapsed time:       0 days  0 hours  0 minutes 34.0 seconds.
 File lengths (MBytes):  RWF=    344 Int=      0 D2E=      0 Chk=     48 Scr=     16
 Normal termination of Gaussian 16 at Tue Jun  7 01:06:06 2022.
