 Entering Gaussian System, Link 0=/opt/software/Gaussian/g16-AVX2-C.01/g16/g16
 Input=charge-conf-879.com
 Output=charge-conf-879.log
 Initial command:
 /opt/software/Gaussian/g16-AVX2-C.01/g16/l1.exe "/mnt/gs18/scratch/users/kengmith/Gau-23265.inp" -scrdir="/mnt/gs18/scratch/users/kengmith/"
 Entering Link 1 = /opt/software/Gaussian/g16-AVX2-C.01/g16/l1.exe PID=     23294.
  
 Copyright (c) 1988-2019, Gaussian, Inc.  All Rights Reserved.
  
 This is part of the Gaussian(R) 16 program.  It is based on
 the Gaussian(R) 09 system (copyright 2009, Gaussian, Inc.),
 the Gaussian(R) 03 system (copyright 2003, Gaussian, Inc.),
 the Gaussian(R) 98 system (copyright 1998, Gaussian, Inc.),
 the Gaussian(R) 94 system (copyright 1995, Gaussian, Inc.),
 the Gaussian 92(TM) system (copyright 1992, Gaussian, Inc.),
 the Gaussian 90(TM) system (copyright 1990, Gaussian, Inc.),
 the Gaussian 88(TM) system (copyright 1988, Gaussian, Inc.),
 the Gaussian 86(TM) system (copyright 1986, Carnegie Mellon
 University), and the Gaussian 82(TM) system (copyright 1983,
 Carnegie Mellon University). Gaussian is a federally registered
 trademark of Gaussian, Inc.
  
 This software contains proprietary and confidential information,
 including trade secrets, belonging to Gaussian, Inc.
  
 This software is provided under written license and may be
 used, copied, transmitted, or stored only in accord with that
 written license.
  
 The following legend is applicable only to US Government
 contracts under FAR:
  
                    RESTRICTED RIGHTS LEGEND
  
 Use, reproduction and disclosure by the US Government is
 subject to restrictions as set forth in subparagraphs (a)
 and (c) of the Commercial Computer Software - Restricted
 Rights clause in FAR 52.227-19.
  
 Gaussian, Inc.
 340 Quinnipiac St., Bldg. 40, Wallingford CT 06492
  
  
 ---------------------------------------------------------------
 Warning -- This program may not be used in any manner that
 competes with the business of Gaussian, Inc. or will provide
 assistance to any competitor of Gaussian, Inc.  The licensee
 of this program is prohibited from giving any competitor of
 Gaussian, Inc. access to this program.  By using this program,
 the user acknowledges that Gaussian, Inc. is engaged in the
 business of creating and licensing software in the field of
 computational chemistry and represents and warrants to the
 licensee that it is not a competitor of Gaussian, Inc. and that
 it will not use this program in any manner prohibited above.
 ---------------------------------------------------------------
  

 Cite this work as:
 Gaussian 16, Revision C.01,
 M. J. Frisch, G. W. Trucks, H. B. Schlegel, G. E. Scuseria, 
 M. A. Robb, J. R. Cheeseman, G. Scalmani, V. Barone, 
 G. A. Petersson, H. Nakatsuji, X. Li, M. Caricato, A. V. Marenich, 
 J. Bloino, B. G. Janesko, R. Gomperts, B. Mennucci, H. P. Hratchian, 
 J. V. Ortiz, A. F. Izmaylov, J. L. Sonnenberg, D. Williams-Young, 
 F. Ding, F. Lipparini, F. Egidi, J. Goings, B. Peng, A. Petrone, 
 T. Henderson, D. Ranasinghe, V. G. Zakrzewski, J. Gao, N. Rega, 
 G. Zheng, W. Liang, M. Hada, M. Ehara, K. Toyota, R. Fukuda, 
 J. Hasegawa, M. Ishida, T. Nakajima, Y. Honda, O. Kitao, H. Nakai, 
 T. Vreven, K. Throssell, J. A. Montgomery, Jr., J. E. Peralta, 
 F. Ogliaro, M. J. Bearpark, J. J. Heyd, E. N. Brothers, K. N. Kudin, 
 V. N. Staroverov, T. A. Keith, R. Kobayashi, J. Normand, 
 K. Raghavachari, A. P. Rendell, J. C. Burant, S. S. Iyengar, 
 J. Tomasi, M. Cossi, J. M. Millam, M. Klene, C. Adamo, R. Cammi, 
 J. W. Ochterski, R. L. Martin, K. Morokuma, O. Farkas, 
 J. B. Foresman, and D. J. Fox, Gaussian, Inc., Wallingford CT, 2019.
 
 ******************************************
 Gaussian 16:  ES64L-G16RevC.01  3-Jul-2019
                 7-Jun-2022 
 ******************************************
 %mem=8gb
 %nproc=4
 Will use up to    4 processors via shared memory.
 %chk=conf-879.chk
 ----------------------------------------------------------------------
 # B3LYP/6-31G* empiricaldispersion=gd3 guess=read geom=check nosymm in
 tegral(ultrafinegrid)
 ----------------------------------------------------------------------
 1/29=2,38=1,172=1/1;
 2/12=2,15=1,40=1/2;
 3/5=1,6=6,7=1,11=2,14=-4,25=1,30=1,74=-5,75=-5,116=-2,124=31/1,2,3;
 4/5=1/1;
 5/5=2,38=6/2;
 6/7=2,8=2,9=2,10=2,28=1/1;
 99/5=1,9=1/99;
 ------------------------------------------------------
 Candidate Structure: Conf:879 Charge calc in gas phase
 ------------------------------------------------------
 Structure from the checkpoint file:  "conf-879.chk"
 Charge =  1 Multiplicity = 1
 Redundant internal coordinates found in file.  (old form).
 N,0,-9.8932414347,-3.0070594621,-7.0737032202
 C,0,-9.1817379379,-3.3207442176,-5.8748029781
 C,0,-8.4298470891,-2.0867592812,-5.3314618225
 O,0,-8.6672501259,-1.658994175,-4.2127424418
 C,0,-8.0845250186,-4.4905115338,-5.9495829433
 C,0,-8.7030618864,-5.728890202,-6.4303591241
 N,0,-8.8302669155,-5.9619693116,-7.7176490511
 O,0,-9.2095128227,-6.526196612,-5.5157497056
 H,0,-10.6858459686,-3.6003330107,-7.283115797
 H,0,-9.6711504282,-7.3094801086,-5.8693669239
 H,0,-9.8964775545,-3.5852561319,-5.0937377087
 H,0,-7.2901483827,-4.1862186124,-6.6313734656
 H,0,-7.6601563174,-4.6441312365,-4.9544615712
 H,0,-9.3060336301,-6.7797722508,-8.0843006691
 H,0,-8.4109518286,-5.3017929147,-8.3898298685
 H,0,-9.3244700079,-2.8463685392,-7.8957527671
 N,0,-7.4887868866,-1.5558339211,-6.1657893327
 C,0,-6.5128150549,-0.589983753,-5.6777368053
 C,0,-6.2312061251,0.5842600888,-6.6382760542
 O,0,-5.1383494836,1.1429315393,-6.5596385215
 C,0,-5.1501265345,-1.2789898472,-5.3643827109
 C,0,-5.2648367014,-2.6218641013,-4.6777007498
 C,0,-5.8933700982,-2.7633582595,-3.4317233794
 C,0,-4.7240251718,-3.7650974238,-5.2823446682
 C,0,-5.9836963203,-4.0124525007,-2.81558042
 C,0,-4.800441385,-5.0160652097,-4.6650703028
 C,0,-5.4354136181,-5.1442619498,-3.428117909
 H,0,-7.3742012058,-1.9197002821,-7.105170186
 H,0,-6.9359206259,-0.1863432762,-4.7526980236
 H,0,-4.6090672039,-1.405389276,-6.3085884192
 H,0,-4.5535461237,-0.5796043585,-4.7717150952
 H,0,-6.33516656,-1.8972875168,-2.949436785
 H,0,-4.2200590517,-3.6716635306,-6.242555163
 H,0,-6.4746429874,-4.0992586933,-1.8503959109
 H,0,-4.3551919892,-5.8842663159,-5.1442327558
 H,0,-5.4915427988,-6.1122139092,-2.9376764819
 N,0,-7.1290374341,0.9344062622,-7.6080196064
 C,0,-8.5683671989,0.7256528682,-7.6810274404
 C,0,-9.0105240175,-0.3218806082,-8.7197880714
 O,0,-10.1990869245,-0.5097215298,-8.9333954153
 C,0,-9.3053224689,2.0458120081,-7.9632165374
 C,0,-8.9502065763,2.5865544088,-9.348125669
 N,0,-9.2487462918,3.8863947714,-9.5744208017
 O,0,-8.440303399,1.8623281882,-10.2021123342
 H,0,-6.714122929,1.5470709642,-8.3164198535
 H,0,-8.9245903906,0.3512948838,-6.7199401372
 H,0,-9.0755445516,2.7739885215,-7.1779904541
 H,0,-10.3823129492,1.8465307488,-7.9395072027
 H,0,-9.0449594971,4.2788187042,-10.4836416267
 H,0,-9.6507057088,4.4854377167,-8.8687674185
 N,0,-8.018442998,-1.0950597241,-9.2912727099
 C,0,-8.3926228242,-1.8805854952,-10.4561534418
 C,0,-7.8232306816,-3.2822357717,-10.3319053112
 O,0,-7.7035328041,-3.8881261851,-9.2665091123
 C,0,-8.2061492552,-1.1708811745,-11.8138259223
 C,0,-6.7864492108,-0.9008953958,-12.3439285307
 C,0,-5.9527766033,0.1434725883,-11.5941278739
 N,0,-5.3173053299,-0.4405381272,-10.3954253788
 C,0,-4.6245152311,0.4445964666,-9.5441466409
 N,0,-4.9320196857,1.6897555792,-9.5284716019
 N,0,-3.6482471713,-0.1828642912,-8.7731617447
 O,0,-7.5338060268,-3.8524261528,-11.5026215274
 H,0,-7.2207214105,-4.7625180352,-11.3386585233
 H,0,-7.0737584593,-0.7053412702,-9.3391300834
 H,0,-9.4786983801,-2.0347848113,-10.3457853353
 H,0,-8.7413390303,-1.76722113,-12.561637788
 H,0,-8.7400351277,-0.2195990386,-11.7185592376
 H,0,-6.226595046,-1.8424538554,-12.4353900777
 H,0,-6.9086374865,-0.5349684244,-13.3703373524
 H,0,-5.1805044051,0.5532330199,-12.2592935882
 H,0,-6.5719739119,0.9792407005,-11.2682047641
 H,0,-4.7317156061,-1.2319763894,-10.6536258305
 H,0,-4.4099806899,2.1749542317,-8.7986438105
 H,0,-3.4732441797,0.2935622312,-7.8942963456
 H,0,-3.7719065229,-1.1789613763,-8.6290579268
 Recover connectivity data from disk.
                           ----------------------------
                           !    Current Parameters    !
                           ! (Angstroms and Degrees)  !
 --------------------------                            --------------------------
 ! Name  Definition              Value                                          !
 --------------------------------------------------------------------------------
 ! R1    R(1,2)                  1.429                                          !
 ! R2    R(1,9)                  1.012                                          !
 ! R3    R(1,16)                 1.0125                                         !
 ! R4    R(2,3)                  1.5438                                         !
 ! R5    R(2,5)                  1.6056                                         !
 ! R6    R(2,11)                 1.0913                                         !
 ! R7    R(3,4)                  1.221                                          !
 ! R8    R(3,17)                 1.3651                                         !
 ! R9    R(5,6)                  1.4654                                         !
 ! R10   R(5,12)                 1.0902                                         !
 ! R11   R(5,13)                 1.0927                                         !
 ! R12   R(6,7)                  1.3144                                         !
 ! R13   R(6,8)                  1.3148                                         !
 ! R14   R(7,14)                 1.0147                                         !
 ! R15   R(7,15)                 1.0313                                         !
 ! R16   R(8,10)                 0.9755                                         !
 ! R17   R(17,18)                1.4573                                         !
 ! R18   R(17,28)                1.0139                                         !
 ! R19   R(18,19)                1.543                                          !
 ! R20   R(18,21)                1.5588                                         !
 ! R21   R(18,29)                1.0944                                         !
 ! R22   R(19,20)                1.2299                                         !
 ! R23   R(19,37)                1.3672                                         !
 ! R24   R(21,22)                1.5126                                         !
 ! R25   R(21,30)                1.0956                                         !
 ! R26   R(21,31)                1.0938                                         !
 ! R27   R(22,23)                1.4027                                         !
 ! R28   R(22,24)                1.4018                                         !
 ! R29   R(23,25)                1.3957                                         !
 ! R30   R(23,32)                1.0853                                         !
 ! R31   R(24,26)                1.3971                                         !
 ! R32   R(24,33)                1.0884                                         !
 ! R33   R(25,27)                1.3989                                         !
 ! R34   R(25,34)                1.0863                                         !
 ! R35   R(26,27)                1.3963                                         !
 ! R36   R(26,35)                1.087                                          !
 ! R37   R(27,36)                1.0866                                         !
 ! R38   R(37,38)                1.4562                                         !
 ! R39   R(37,45)                1.0244                                         !
 ! R40   R(38,39)                1.5401                                         !
 ! R41   R(38,41)                1.538                                          !
 ! R42   R(38,46)                1.0912                                         !
 ! R43   R(39,40)                1.2221                                         !
 ! R44   R(39,51)                1.3815                                         !
 ! R45   R(41,42)                1.5286                                         !
 ! R46   R(41,47)                1.0953                                         !
 ! R47   R(41,48)                1.0955                                         !
 ! R48   R(42,43)                1.3527                                         !
 ! R49   R(42,44)                1.2304                                         !
 ! R50   R(43,49)                1.011                                          !
 ! R51   R(43,50)                1.0091                                         !
 ! R52   R(51,52)                1.454                                          !
 ! R53   R(51,64)                1.023                                          !
 ! R54   R(52,53)                1.518                                          !
 ! R55   R(52,55)                1.5433                                         !
 ! R56   R(52,65)                1.1025                                         !
 ! R57   R(53,54)                1.2315                                         !
 ! R58   R(53,62)                1.334                                          !
 ! R59   R(55,56)                1.5393                                         !
 ! R60   R(55,66)                1.096                                          !
 ! R61   R(55,67)                1.095                                          !
 ! R62   R(56,57)                1.5323                                         !
 ! R63   R(56,68)                1.0992                                         !
 ! R64   R(56,69)                1.0965                                         !
 ! R65   R(57,58)                1.4771                                         !
 ! R66   R(57,70)                1.0985                                         !
 ! R67   R(57,71)                1.09                                           !
 ! R68   R(58,59)                1.41                                           !
 ! R69   R(58,72)                1.0178                                         !
 ! R70   R(59,60)                1.2827                                         !
 ! R71   R(59,61)                1.3933                                         !
 ! R72   R(60,73)                1.0201                                         !
 ! R73   R(61,74)                1.0149                                         !
 ! R74   R(61,75)                1.014                                          !
 ! R75   R(62,63)                0.9763                                         !
 ! A1    A(2,1,9)              115.7794                                         !
 ! A2    A(2,1,16)             115.8698                                         !
 ! A3    A(9,1,16)             111.4094                                         !
 ! A4    A(1,2,3)              111.2429                                         !
 ! A5    A(1,2,5)              117.4593                                         !
 ! A6    A(1,2,11)             109.1227                                         !
 ! A7    A(3,2,5)              105.4217                                         !
 ! A8    A(3,2,11)             105.1195                                         !
 ! A9    A(5,2,11)             107.7176                                         !
 ! A10   A(2,3,4)              120.5176                                         !
 ! A11   A(2,3,17)             115.5637                                         !
 ! A12   A(4,3,17)             123.9002                                         !
 ! A13   A(2,5,6)              110.0315                                         !
 ! A14   A(2,5,12)             108.8886                                         !
 ! A15   A(2,5,13)             108.9911                                         !
 ! A16   A(6,5,12)             109.7717                                         !
 ! A17   A(6,5,13)             110.1158                                         !
 ! A18   A(12,5,13)            109.0143                                         !
 ! A19   A(5,6,7)              120.7996                                         !
 ! A20   A(5,6,8)              116.5408                                         !
 ! A21   A(7,6,8)              122.4437                                         !
 ! A22   A(6,7,14)             122.833                                          !
 ! A23   A(6,7,15)             119.0452                                         !
 ! A24   A(14,7,15)            118.1042                                         !
 ! A25   A(6,8,10)             114.6467                                         !
 ! A26   A(3,17,18)            120.9819                                         !
 ! A27   A(3,17,28)            120.3042                                         !
 ! A28   A(18,17,28)           118.195                                          !
 ! A29   A(17,18,19)           114.7172                                         !
 ! A30   A(17,18,21)           111.0905                                         !
 ! A31   A(17,18,29)           105.5821                                         !
 ! A32   A(19,18,21)           107.5762                                         !
 ! A33   A(19,18,29)           108.4255                                         !
 ! A34   A(21,18,29)           109.335                                          !
 ! A35   A(18,19,20)           117.9086                                         !
 ! A36   A(18,19,37)           121.1055                                         !
 ! A37   A(20,19,37)           120.8345                                         !
 ! A38   A(18,21,22)           114.669                                          !
 ! A39   A(18,21,30)           108.0279                                         !
 ! A40   A(18,21,31)           107.6446                                         !
 ! A41   A(22,21,30)           109.0431                                         !
 ! A42   A(22,21,31)           111.2878                                         !
 ! A43   A(30,21,31)           105.7479                                         !
 ! A44   A(21,22,23)           121.7886                                         !
 ! A45   A(21,22,24)           119.9311                                         !
 ! A46   A(23,22,24)           118.2779                                         !
 ! A47   A(22,23,25)           120.7577                                         !
 ! A48   A(22,23,32)           119.7783                                         !
 ! A49   A(25,23,32)           119.4494                                         !
 ! A50   A(22,24,26)           121.237                                          !
 ! A51   A(22,24,33)           119.2839                                         !
 ! A52   A(26,24,33)           119.4703                                         !
 ! A53   A(23,25,27)           120.3597                                         !
 ! A54   A(23,25,34)           119.5364                                         !
 ! A55   A(27,25,34)           120.101                                          !
 ! A56   A(24,26,27)           119.9005                                         !
 ! A57   A(24,26,35)           119.8682                                         !
 ! A58   A(27,26,35)           120.2275                                         !
 ! A59   A(25,27,26)           119.4632                                         !
 ! A60   A(25,27,36)           120.1906                                         !
 ! A61   A(26,27,36)           120.3405                                         !
 ! A62   A(19,37,38)           130.3869                                         !
 ! A63   A(19,37,45)           112.1915                                         !
 ! A64   A(38,37,45)           116.8342                                         !
 ! A65   A(37,38,39)           114.525                                          !
 ! A66   A(37,38,41)           111.0848                                         !
 ! A67   A(37,38,46)           109.1284                                         !
 ! A68   A(39,38,41)           108.8149                                         !
 ! A69   A(39,38,46)           105.4849                                         !
 ! A70   A(41,38,46)           107.4364                                         !
 ! A71   A(38,39,40)           120.109                                          !
 ! A72   A(38,39,51)           116.9689                                         !
 ! A73   A(40,39,51)           122.6878                                         !
 ! A74   A(38,41,42)           111.0119                                         !
 ! A75   A(38,41,47)           109.7915                                         !
 ! A76   A(38,41,48)           108.1158                                         !
 ! A77   A(42,41,47)           111.4457                                         !
 ! A78   A(42,41,48)           108.2008                                         !
 ! A79   A(47,41,48)           108.1594                                         !
 ! A80   A(41,42,43)           116.1178                                         !
 ! A81   A(41,42,44)           121.1254                                         !
 ! A82   A(43,42,44)           122.7488                                         !
 ! A83   A(42,43,49)           118.6145                                         !
 ! A84   A(42,43,50)           122.7741                                         !
 ! A85   A(49,43,50)           118.6017                                         !
 ! A86   A(39,51,52)           116.6777                                         !
 ! A87   A(39,51,64)           117.9863                                         !
 ! A88   A(52,51,64)           113.9522                                         !
 ! A89   A(51,52,53)           109.6791                                         !
 ! A90   A(51,52,55)           115.1679                                         !
 ! A91   A(51,52,65)           104.411                                          !
 ! A92   A(53,52,55)           116.8276                                         !
 ! A93   A(53,52,65)           103.4249                                         !
 ! A94   A(55,52,65)           105.7484                                         !
 ! A95   A(52,53,54)           124.1649                                         !
 ! A96   A(52,53,62)           113.8431                                         !
 ! A97   A(54,53,62)           121.8622                                         !
 ! A98   A(52,55,56)           119.6736                                         !
 ! A99   A(52,55,66)           106.9192                                         !
 ! A100  A(52,55,67)           105.3109                                         !
 ! A101  A(56,55,66)           108.1089                                         !
 ! A102  A(56,55,67)           109.103                                          !
 ! A103  A(66,55,67)           107.0952                                         !
 ! A104  A(55,56,57)           116.9251                                         !
 ! A105  A(55,56,68)           110.3745                                         !
 ! A106  A(55,56,69)           106.1479                                         !
 ! A107  A(57,56,68)           110.3295                                         !
 ! A108  A(57,56,69)           106.9311                                         !
 ! A109  A(68,56,69)           105.3501                                         !
 ! A110  A(56,57,58)           111.2045                                         !
 ! A111  A(56,57,70)           109.9027                                         !
 ! A112  A(56,57,71)           111.0906                                         !
 ! A113  A(58,57,70)           109.6591                                         !
 ! A114  A(58,57,71)           107.7518                                         !
 ! A115  A(70,57,71)           107.1215                                         !
 ! A116  A(57,58,59)           116.9453                                         !
 ! A117  A(57,58,72)           110.4318                                         !
 ! A118  A(59,58,72)           111.0144                                         !
 ! A119  A(58,59,60)           119.9329                                         !
 ! A120  A(58,59,61)           113.3072                                         !
 ! A121  A(60,59,61)           126.7556                                         !
 ! A122  A(59,60,73)           110.3522                                         !
 ! A123  A(59,61,74)           112.8679                                         !
 ! A124  A(59,61,75)           115.8216                                         !
 ! A125  A(74,61,75)           111.0447                                         !
 ! A126  A(53,62,63)           108.7015                                         !
 ! D1    D(9,1,2,3)           -155.7686                                         !
 ! D2    D(9,1,2,5)             82.6612                                         !
 ! D3    D(9,1,2,11)           -40.239                                          !
 ! D4    D(16,1,2,3)            71.0172                                         !
 ! D5    D(16,1,2,5)           -50.553                                          !
 ! D6    D(16,1,2,11)         -173.4532                                         !
 ! D7    D(1,2,3,4)            120.7882                                         !
 ! D8    D(1,2,3,17)           -60.7178                                         !
 ! D9    D(5,2,3,4)           -110.863                                          !
 ! D10   D(5,2,3,17)            67.6311                                         !
 ! D11   D(11,2,3,4)             2.8117                                         !
 ! D12   D(11,2,3,17)         -178.6942                                         !
 ! D13   D(1,2,5,6)            -56.6857                                         !
 ! D14   D(1,2,5,12)            63.6652                                         !
 ! D15   D(1,2,5,13)          -177.5237                                         !
 ! D16   D(3,2,5,6)            178.778                                          !
 ! D17   D(3,2,5,12)           -60.8711                                         !
 ! D18   D(3,2,5,13)            57.94                                           !
 ! D19   D(11,2,5,6)            66.9281                                         !
 ! D20   D(11,2,5,12)         -172.721                                          !
 ! D21   D(11,2,5,13)          -53.91                                           !
 ! D22   D(2,3,17,18)         -166.3998                                         !
 ! D23   D(2,3,17,28)            5.1894                                         !
 ! D24   D(4,3,17,18)           12.0372                                         !
 ! D25   D(4,3,17,28)         -176.3736                                         !
 ! D26   D(2,5,6,7)             85.2578                                         !
 ! D27   D(2,5,6,8)            -89.5312                                         !
 ! D28   D(12,5,6,7)           -34.5583                                         !
 ! D29   D(12,5,6,8)           150.6527                                         !
 ! D30   D(13,5,6,7)          -154.5824                                         !
 ! D31   D(13,5,6,8)            30.6286                                         !
 ! D32   D(5,6,7,14)          -175.972                                          !
 ! D33   D(5,6,7,15)             5.585                                          !
 ! D34   D(8,6,7,14)            -1.497                                          !
 ! D35   D(8,6,7,15)          -179.94                                           !
 ! D36   D(5,6,8,10)           175.7457                                         !
 ! D37   D(7,6,8,10)             1.0499                                         !
 ! D38   D(3,17,18,19)        -138.9169                                         !
 ! D39   D(3,17,18,21)          98.8185                                         !
 ! D40   D(3,17,18,29)         -19.6031                                         !
 ! D41   D(28,17,18,19)         49.3211                                         !
 ! D42   D(28,17,18,21)        -72.9435                                         !
 ! D43   D(28,17,18,29)        168.6349                                         !
 ! D44   D(17,18,19,20)       -154.063                                          !
 ! D45   D(17,18,19,37)         21.4999                                         !
 ! D46   D(21,18,19,20)        -29.9143                                         !
 ! D47   D(21,18,19,37)        145.6487                                         !
 ! D48   D(29,18,19,20)         88.224                                          !
 ! D49   D(29,18,19,37)        -96.213                                          !
 ! D50   D(17,18,21,22)        -41.2607                                         !
 ! D51   D(17,18,21,30)         80.5467                                         !
 ! D52   D(17,18,21,31)       -165.6857                                         !
 ! D53   D(19,18,21,22)       -167.5793                                         !
 ! D54   D(19,18,21,30)        -45.7719                                         !
 ! D55   D(19,18,21,31)         67.9956                                         !
 ! D56   D(29,18,21,22)         74.8713                                         !
 ! D57   D(29,18,21,30)       -163.3213                                         !
 ! D58   D(29,18,21,31)        -49.5537                                         !
 ! D59   D(18,19,37,38)         24.5912                                         !
 ! D60   D(18,19,37,45)       -164.6345                                         !
 ! D61   D(20,19,37,38)       -159.9755                                         !
 ! D62   D(20,19,37,45)         10.7988                                         !
 ! D63   D(18,21,22,23)        -59.8093                                         !
 ! D64   D(18,21,22,24)        120.7603                                         !
 ! D65   D(30,21,22,23)        178.9381                                         !
 ! D66   D(30,21,22,24)         -0.4923                                         !
 ! D67   D(31,21,22,23)         62.666                                          !
 ! D68   D(31,21,22,24)       -116.7644                                         !
 ! D69   D(21,22,23,25)       -179.8117                                         !
 ! D70   D(21,22,23,32)          1.5863                                         !
 ! D71   D(24,22,23,25)         -0.3722                                         !
 ! D72   D(24,22,23,32)       -178.9742                                         !
 ! D73   D(21,22,24,26)        179.2325                                         !
 ! D74   D(21,22,24,33)          0.3213                                         !
 ! D75   D(23,22,24,26)         -0.2177                                         !
 ! D76   D(23,22,24,33)       -179.1289                                         !
 ! D77   D(22,23,25,27)          0.6069                                         !
 ! D78   D(22,23,25,34)        179.9892                                         !
 ! D79   D(32,23,25,27)        179.2135                                         !
 ! D80   D(32,23,25,34)         -1.4043                                         !
 ! D81   D(22,24,26,27)          0.5751                                         !
 ! D82   D(22,24,26,35)       -178.7207                                         !
 ! D83   D(33,24,26,27)        179.4843                                         !
 ! D84   D(33,24,26,35)          0.1885                                         !
 ! D85   D(23,25,27,26)         -0.2447                                         !
 ! D86   D(23,25,27,36)        178.8956                                         !
 ! D87   D(34,25,27,26)       -179.6234                                         !
 ! D88   D(34,25,27,36)         -0.4831                                         !
 ! D89   D(24,26,27,25)         -0.3386                                         !
 ! D90   D(24,26,27,36)       -179.4776                                         !
 ! D91   D(35,26,27,25)        178.9546                                         !
 ! D92   D(35,26,27,36)         -0.1844                                         !
 ! D93   D(19,37,38,39)       -108.8425                                         !
 ! D94   D(19,37,38,41)        127.3886                                         !
 ! D95   D(19,37,38,46)          9.1176                                         !
 ! D96   D(45,37,38,39)         80.7339                                         !
 ! D97   D(45,37,38,41)        -43.035                                          !
 ! D98   D(45,37,38,46)       -161.306                                          !
 ! D99   D(37,38,39,40)       -174.8294                                         !
 ! D100  D(37,38,39,51)         10.5826                                         !
 ! D101  D(41,38,39,40)        -49.8558                                         !
 ! D102  D(41,38,39,51)        135.5562                                         !
 ! D103  D(46,38,39,40)         65.1607                                         !
 ! D104  D(46,38,39,51)       -109.4273                                         !
 ! D105  D(37,38,41,42)         65.3042                                         !
 ! D106  D(37,38,41,47)        -58.37                                           !
 ! D107  D(37,38,41,48)       -176.1599                                         !
 ! D108  D(39,38,41,42)        -61.6629                                         !
 ! D109  D(39,38,41,47)        174.6628                                         !
 ! D110  D(39,38,41,48)         56.8729                                         !
 ! D111  D(46,38,41,42)       -175.4071                                         !
 ! D112  D(46,38,41,47)         60.9187                                         !
 ! D113  D(46,38,41,48)        -56.8712                                         !
 ! D114  D(38,39,51,52)       -167.7126                                         !
 ! D115  D(38,39,51,64)        -26.313                                          !
 ! D116  D(40,39,51,52)         17.8506                                         !
 ! D117  D(40,39,51,64)        159.2503                                         !
 ! D118  D(38,41,42,43)       -163.4266                                         !
 ! D119  D(38,41,42,44)         17.5748                                         !
 ! D120  D(47,41,42,43)        -40.7036                                         !
 ! D121  D(47,41,42,44)        140.2978                                         !
 ! D122  D(48,41,42,43)         78.0888                                         !
 ! D123  D(48,41,42,44)       -100.9098                                         !
 ! D124  D(41,42,43,49)       -178.9299                                         !
 ! D125  D(41,42,43,50)          2.221                                          !
 ! D126  D(44,42,43,49)          0.0508                                         !
 ! D127  D(44,42,43,50)       -178.7983                                         !
 ! D128  D(39,51,52,53)       -135.5948                                         !
 ! D129  D(39,51,52,55)         90.1683                                         !
 ! D130  D(39,51,52,65)        -25.3225                                         !
 ! D131  D(64,51,52,53)         81.4789                                         !
 ! D132  D(64,51,52,55)        -52.758                                          !
 ! D133  D(64,51,52,65)       -168.2488                                         !
 ! D134  D(51,52,53,54)         34.5815                                         !
 ! D135  D(51,52,53,62)       -149.5045                                         !
 ! D136  D(55,52,53,54)        167.9747                                         !
 ! D137  D(55,52,53,62)        -16.1112                                         !
 ! D138  D(65,52,53,54)        -76.3411                                         !
 ! D139  D(65,52,53,62)         99.573                                          !
 ! D140  D(51,52,55,56)         70.1715                                         !
 ! D141  D(51,52,55,66)       -166.6504                                         !
 ! D142  D(51,52,55,67)        -52.9568                                         !
 ! D143  D(53,52,55,56)        -60.7172                                         !
 ! D144  D(53,52,55,66)         62.461                                          !
 ! D145  D(53,52,55,67)        176.1546                                         !
 ! D146  D(65,52,55,56)       -175.1067                                         !
 ! D147  D(65,52,55,66)        -51.9286                                         !
 ! D148  D(65,52,55,67)         61.765                                          !
 ! D149  D(52,53,62,63)       -176.982                                          !
 ! D150  D(54,53,62,63)         -0.9624                                         !
 ! D151  D(52,55,56,57)        -69.169                                          !
 ! D152  D(52,55,56,68)         58.0082                                         !
 ! D153  D(52,55,56,69)        171.6811                                         !
 ! D154  D(66,55,56,57)        168.2334                                         !
 ! D155  D(66,55,56,68)        -64.5893                                         !
 ! D156  D(66,55,56,69)         49.0836                                         !
 ! D157  D(67,55,56,57)         52.0935                                         !
 ! D158  D(67,55,56,68)        179.2708                                         !
 ! D159  D(67,55,56,69)        -67.0563                                         !
 ! D160  D(55,56,57,58)         81.9909                                         !
 ! D161  D(55,56,57,70)       -156.3921                                         !
 ! D162  D(55,56,57,71)        -38.0188                                         !
 ! D163  D(68,56,57,58)        -45.2084                                         !
 ! D164  D(68,56,57,70)         76.4086                                         !
 ! D165  D(68,56,57,71)       -165.2181                                         !
 ! D166  D(69,56,57,58)       -159.2799                                         !
 ! D167  D(69,56,57,70)        -37.6629                                         !
 ! D168  D(69,56,57,71)         80.7105                                         !
 ! D169  D(56,57,58,59)       -174.1232                                         !
 ! D170  D(56,57,58,72)         57.6594                                         !
 ! D171  D(70,57,58,59)         64.1178                                         !
 ! D172  D(70,57,58,72)        -64.0995                                         !
 ! D173  D(71,57,58,59)        -52.1533                                         !
 ! D174  D(71,57,58,72)        179.6294                                         !
 ! D175  D(57,58,59,60)         24.4678                                         !
 ! D176  D(57,58,59,61)       -156.2383                                         !
 ! D177  D(72,58,59,60)        152.4038                                         !
 ! D178  D(72,58,59,61)        -28.3023                                         !
 ! D179  D(58,59,60,73)        174.2634                                         !
 ! D180  D(61,59,60,73)         -4.9272                                         !
 ! D181  D(58,59,61,74)       -152.1905                                         !
 ! D182  D(58,59,61,75)        -22.6193                                         !
 ! D183  D(60,59,61,74)         27.0457                                         !
 ! D184  D(60,59,61,75)        156.6169                                         !
 --------------------------------------------------------------------------------
 Symmetry turned off by external request.
 Stoichiometry    C23H36N9O7(1+)
 Framework group  C1[X(C23H36N9O7)]
 Deg. of freedom   219
 Full point group                 C1      NOp   1
                          Input orientation:                          
 ---------------------------------------------------------------------
 Center     Atomic      Atomic             Coordinates (Angstroms)
 Number     Number       Type             X           Y           Z
 ---------------------------------------------------------------------
      1          7           0       -9.893241   -3.007059   -7.073703
      2          6           0       -9.181738   -3.320744   -5.874803
      3          6           0       -8.429847   -2.086759   -5.331462
      4          8           0       -8.667250   -1.658994   -4.212742
      5          6           0       -8.084525   -4.490512   -5.949583
      6          6           0       -8.703062   -5.728890   -6.430359
      7          7           0       -8.830267   -5.961969   -7.717649
      8          8           0       -9.209513   -6.526197   -5.515750
      9          1           0      -10.685846   -3.600333   -7.283116
     10          1           0       -9.671150   -7.309480   -5.869367
     11          1           0       -9.896478   -3.585256   -5.093738
     12          1           0       -7.290148   -4.186219   -6.631373
     13          1           0       -7.660156   -4.644131   -4.954462
     14          1           0       -9.306034   -6.779772   -8.084301
     15          1           0       -8.410952   -5.301793   -8.389830
     16          1           0       -9.324470   -2.846369   -7.895753
     17          7           0       -7.488787   -1.555834   -6.165789
     18          6           0       -6.512815   -0.589984   -5.677737
     19          6           0       -6.231206    0.584260   -6.638276
     20          8           0       -5.138349    1.142932   -6.559639
     21          6           0       -5.150127   -1.278990   -5.364383
     22          6           0       -5.264837   -2.621864   -4.677701
     23          6           0       -5.893370   -2.763358   -3.431723
     24          6           0       -4.724025   -3.765097   -5.282345
     25          6           0       -5.983696   -4.012453   -2.815580
     26          6           0       -4.800441   -5.016065   -4.665070
     27          6           0       -5.435414   -5.144262   -3.428118
     28          1           0       -7.374201   -1.919700   -7.105170
     29          1           0       -6.935921   -0.186343   -4.752698
     30          1           0       -4.609067   -1.405389   -6.308588
     31          1           0       -4.553546   -0.579604   -4.771715
     32          1           0       -6.335167   -1.897288   -2.949437
     33          1           0       -4.220059   -3.671664   -6.242555
     34          1           0       -6.474643   -4.099259   -1.850396
     35          1           0       -4.355192   -5.884266   -5.144233
     36          1           0       -5.491543   -6.112214   -2.937676
     37          7           0       -7.129037    0.934406   -7.608020
     38          6           0       -8.568367    0.725653   -7.681027
     39          6           0       -9.010524   -0.321881   -8.719788
     40          8           0      -10.199087   -0.509722   -8.933395
     41          6           0       -9.305322    2.045812   -7.963217
     42          6           0       -8.950207    2.586554   -9.348126
     43          7           0       -9.248746    3.886395   -9.574421
     44          8           0       -8.440303    1.862328  -10.202112
     45          1           0       -6.714123    1.547071   -8.316420
     46          1           0       -8.924590    0.351295   -6.719940
     47          1           0       -9.075545    2.773989   -7.177990
     48          1           0      -10.382313    1.846531   -7.939507
     49          1           0       -9.044959    4.278819  -10.483642
     50          1           0       -9.650706    4.485438   -8.868767
     51          7           0       -8.018443   -1.095060   -9.291273
     52          6           0       -8.392623   -1.880585  -10.456153
     53          6           0       -7.823231   -3.282236  -10.331905
     54          8           0       -7.703533   -3.888126   -9.266509
     55          6           0       -8.206149   -1.170881  -11.813826
     56          6           0       -6.786449   -0.900895  -12.343929
     57          6           0       -5.952777    0.143473  -11.594128
     58          7           0       -5.317305   -0.440538  -10.395425
     59          6           0       -4.624515    0.444596   -9.544147
     60          7           0       -4.932020    1.689756   -9.528472
     61          7           0       -3.648247   -0.182864   -8.773162
     62          8           0       -7.533806   -3.852426  -11.502622
     63          1           0       -7.220721   -4.762518  -11.338659
     64          1           0       -7.073758   -0.705341   -9.339130
     65          1           0       -9.478698   -2.034785  -10.345785
     66          1           0       -8.741339   -1.767221  -12.561638
     67          1           0       -8.740035   -0.219599  -11.718559
     68          1           0       -6.226595   -1.842454  -12.435390
     69          1           0       -6.908637   -0.534968  -13.370337
     70          1           0       -5.180504    0.553233  -12.259294
     71          1           0       -6.571974    0.979241  -11.268205
     72          1           0       -4.731716   -1.231976  -10.653626
     73          1           0       -4.409981    2.174954   -8.798644
     74          1           0       -3.473244    0.293562   -7.894296
     75          1           0       -3.771907   -1.178961   -8.629058
 ---------------------------------------------------------------------
 Rotational constants (GHZ):           0.1330490           0.0769988           0.0688924
 Standard basis: 6-31G(d) (6D, 7F)
   657 basis functions,  1236 primitive gaussians,   657 cartesian basis functions
   146 alpha electrons      146 beta electrons
       nuclear repulsion energy      5144.8734345703 Hartrees.
 NAtoms=   75 NActive=   75 NUniq=   75 SFac= 1.00D+00 NAtFMM=   60 NAOKFM=T Big=T
 Integral buffers will be    131072 words long.
 Raffenetti 2 integral format.
 Two-electron integral symmetry is turned off.
 Nuclear repulsion after empirical dispersion term =     5144.7508969830 Hartrees.
 One-electron integrals computed using PRISM.
 NBasis=   657 RedAO= T EigKep=  4.60D-04  NBF=   657
 NBsUse=   657 1.00D-06 EigRej= -1.00D+00 NBFU=   657
 Initial guess from the checkpoint file:  "conf-879.chk"
 B after Tr=     0.000000    0.000000    0.000000
         Rot=    1.000000    0.000000    0.000000    0.000000 Ang=   0.00 deg.
 Requested convergence on RMS density matrix=1.00D-08 within 128 cycles.
 Requested convergence on MAX density matrix=1.00D-06.
 Requested convergence on             energy=1.00D-06.
 No special actions if energy rises.
 SCF Done:  E(RB3LYP) =  -1917.42659064     A.U. after    1 cycles
            NFock=  1  Conv=0.95D-08     -V/T= 2.0093

 **********************************************************************

            Population analysis using the SCF Density.

 **********************************************************************

 Alpha  occ. eigenvalues --  -19.38975 -19.33595 -19.28525 -19.21577 -19.20767
 Alpha  occ. eigenvalues --  -19.20218 -19.20120 -14.55885 -14.45957 -14.44730
 Alpha  occ. eigenvalues --  -14.44262 -14.44257 -14.43496 -14.43449 -14.42366
 Alpha  occ. eigenvalues --  -14.35868 -10.50064 -10.46125 -10.38889 -10.37981
 Alpha  occ. eigenvalues --  -10.37814 -10.37811 -10.35802 -10.35569 -10.34146
 Alpha  occ. eigenvalues --  -10.33553 -10.32942 -10.32825 -10.28670 -10.28406
 Alpha  occ. eigenvalues --  -10.28364 -10.27958 -10.27803 -10.27725 -10.27644
 Alpha  occ. eigenvalues --  -10.27581 -10.27455 -10.27135 -10.26941  -1.28666
 Alpha  occ. eigenvalues --   -1.24749  -1.15419  -1.13728  -1.13091  -1.12145
 Alpha  occ. eigenvalues --   -1.12115  -1.11790  -1.05453  -1.03199  -1.02084
 Alpha  occ. eigenvalues --   -1.01121  -1.00316  -0.99031  -0.96537  -0.94168
 Alpha  occ. eigenvalues --   -0.92535  -0.91854  -0.88877  -0.87659  -0.86601
 Alpha  occ. eigenvalues --   -0.83725  -0.83581  -0.82927  -0.81645  -0.78023
 Alpha  occ. eigenvalues --   -0.77552  -0.76995  -0.76623  -0.74745  -0.73155
 Alpha  occ. eigenvalues --   -0.71911  -0.69561  -0.68733  -0.68653  -0.68250
 Alpha  occ. eigenvalues --   -0.67682  -0.67059  -0.66756  -0.66358  -0.64521
 Alpha  occ. eigenvalues --   -0.63488  -0.63244  -0.62598  -0.62024  -0.61117
 Alpha  occ. eigenvalues --   -0.60942  -0.60483  -0.59776  -0.59212  -0.59079
 Alpha  occ. eigenvalues --   -0.58793  -0.58357  -0.56976  -0.56504  -0.55958
 Alpha  occ. eigenvalues --   -0.55358  -0.55158  -0.54544  -0.54483  -0.54207
 Alpha  occ. eigenvalues --   -0.53696  -0.53562  -0.53216  -0.52697  -0.52310
 Alpha  occ. eigenvalues --   -0.52289  -0.51828  -0.51051  -0.50370  -0.50159
 Alpha  occ. eigenvalues --   -0.49848  -0.49610  -0.49442  -0.49248  -0.48485
 Alpha  occ. eigenvalues --   -0.47974  -0.47860  -0.47242  -0.47085  -0.46583
 Alpha  occ. eigenvalues --   -0.46311  -0.45753  -0.45164  -0.45004  -0.44461
 Alpha  occ. eigenvalues --   -0.43972  -0.43425  -0.42469  -0.42150  -0.42037
 Alpha  occ. eigenvalues --   -0.41773  -0.41046  -0.37252  -0.36944  -0.36344
 Alpha  occ. eigenvalues --   -0.35651  -0.35312  -0.34314  -0.34100  -0.34008
 Alpha  occ. eigenvalues --   -0.33775  -0.33656  -0.33234  -0.32751  -0.32575
 Alpha  occ. eigenvalues --   -0.30501
 Alpha virt. eigenvalues --   -0.18636  -0.13485  -0.11372  -0.09290  -0.08909
 Alpha virt. eigenvalues --   -0.07818  -0.07166  -0.06890  -0.06211  -0.05818
 Alpha virt. eigenvalues --   -0.05559  -0.04182  -0.02403  -0.02306  -0.00156
 Alpha virt. eigenvalues --    0.00086   0.00264   0.01358   0.01578   0.02115
 Alpha virt. eigenvalues --    0.02306   0.03789   0.03997   0.04320   0.04992
 Alpha virt. eigenvalues --    0.05492   0.05712   0.05891   0.06520   0.06592
 Alpha virt. eigenvalues --    0.06772   0.07173   0.07318   0.07470   0.07770
 Alpha virt. eigenvalues --    0.08401   0.08441   0.08699   0.09162   0.09400
 Alpha virt. eigenvalues --    0.09706   0.09915   0.10310   0.10580   0.10966
 Alpha virt. eigenvalues --    0.11188   0.11554   0.11880   0.12448   0.13316
 Alpha virt. eigenvalues --    0.13442   0.13920   0.14147   0.14618   0.15207
 Alpha virt. eigenvalues --    0.15586   0.16578   0.16862   0.17313   0.18003
 Alpha virt. eigenvalues --    0.18484   0.18767   0.19195   0.19637   0.20393
 Alpha virt. eigenvalues --    0.20737   0.22165   0.22754   0.23580   0.24276
 Alpha virt. eigenvalues --    0.24532   0.24698   0.25510   0.26388   0.26851
 Alpha virt. eigenvalues --    0.28133   0.28738   0.29965   0.30125   0.30453
 Alpha virt. eigenvalues --    0.33928   0.34653   0.35384   0.36258   0.37004
 Alpha virt. eigenvalues --    0.37302   0.37938   0.38680   0.39364   0.40442
 Alpha virt. eigenvalues --    0.41509   0.42573   0.42961   0.43544   0.44145
 Alpha virt. eigenvalues --    0.44854   0.45093   0.45376   0.46022   0.46766
 Alpha virt. eigenvalues --    0.46874   0.47027   0.47727   0.48014   0.48164
 Alpha virt. eigenvalues --    0.48963   0.49275   0.49874   0.50308   0.50468
 Alpha virt. eigenvalues --    0.51118   0.51511   0.51854   0.52263   0.52507
 Alpha virt. eigenvalues --    0.52836   0.53025   0.53425   0.53967   0.54010
 Alpha virt. eigenvalues --    0.54374   0.55374   0.55860   0.56279   0.56649
 Alpha virt. eigenvalues --    0.57027   0.57053   0.57787   0.58077   0.58421
 Alpha virt. eigenvalues --    0.59086   0.59187   0.59836   0.60400   0.60881
 Alpha virt. eigenvalues --    0.61292   0.61687   0.61938   0.62512   0.63997
 Alpha virt. eigenvalues --    0.64163   0.64315   0.64397   0.64963   0.65237
 Alpha virt. eigenvalues --    0.66063   0.66659   0.67067   0.68028   0.68300
 Alpha virt. eigenvalues --    0.68807   0.69078   0.69468   0.70635   0.70999
 Alpha virt. eigenvalues --    0.71626   0.72380   0.73040   0.73260   0.73798
 Alpha virt. eigenvalues --    0.74355   0.74951   0.75378   0.76005   0.76175
 Alpha virt. eigenvalues --    0.76324   0.76723   0.76899   0.77230   0.77504
 Alpha virt. eigenvalues --    0.78262   0.78671   0.78708   0.79367   0.79461
 Alpha virt. eigenvalues --    0.79991   0.80098   0.80682   0.80757   0.81061
 Alpha virt. eigenvalues --    0.81182   0.81590   0.81979   0.82113   0.82258
 Alpha virt. eigenvalues --    0.82956   0.82991   0.83716   0.84221   0.84808
 Alpha virt. eigenvalues --    0.85078   0.85767   0.85987   0.86448   0.87074
 Alpha virt. eigenvalues --    0.87551   0.87952   0.88918   0.89508   0.89635
 Alpha virt. eigenvalues --    0.90607   0.90941   0.91591   0.92340   0.92758
 Alpha virt. eigenvalues --    0.93616   0.94064   0.94568   0.95216   0.95480
 Alpha virt. eigenvalues --    0.96141   0.96797   0.97444   0.98081   0.98415
 Alpha virt. eigenvalues --    0.99678   1.00059   1.00837   1.01463   1.02051
 Alpha virt. eigenvalues --    1.02392   1.03179   1.05293   1.05660   1.06164
 Alpha virt. eigenvalues --    1.06255   1.06986   1.07792   1.08364   1.09025
 Alpha virt. eigenvalues --    1.10450   1.10733   1.10874   1.12274   1.12589
 Alpha virt. eigenvalues --    1.13145   1.14235   1.15067   1.15709   1.17045
 Alpha virt. eigenvalues --    1.17259   1.17571   1.18223   1.18908   1.19513
 Alpha virt. eigenvalues --    1.20745   1.21227   1.22651   1.22902   1.23982
 Alpha virt. eigenvalues --    1.24517   1.25799   1.26707   1.27487   1.28352
 Alpha virt. eigenvalues --    1.29061   1.29816   1.31161   1.31355   1.31980
 Alpha virt. eigenvalues --    1.33236   1.34098   1.34884   1.35812   1.36420
 Alpha virt. eigenvalues --    1.37126   1.37546   1.38709   1.39335   1.39877
 Alpha virt. eigenvalues --    1.40150   1.40959   1.41044   1.41715   1.42491
 Alpha virt. eigenvalues --    1.43044   1.43497   1.45112   1.45313   1.46599
 Alpha virt. eigenvalues --    1.47419   1.48095   1.48463   1.49527   1.50397
 Alpha virt. eigenvalues --    1.51676   1.52960   1.53448   1.54606   1.55423
 Alpha virt. eigenvalues --    1.55624   1.56544   1.57451   1.58146   1.58743
 Alpha virt. eigenvalues --    1.59943   1.61406   1.61479   1.62064   1.62388
 Alpha virt. eigenvalues --    1.64525   1.64895   1.65012   1.65569   1.66042
 Alpha virt. eigenvalues --    1.66874   1.67368   1.67970   1.68278   1.69078
 Alpha virt. eigenvalues --    1.69669   1.70712   1.71060   1.71908   1.72534
 Alpha virt. eigenvalues --    1.73401   1.73501   1.74226   1.74662   1.74889
 Alpha virt. eigenvalues --    1.75856   1.75928   1.77399   1.77534   1.78269
 Alpha virt. eigenvalues --    1.78531   1.79018   1.79714   1.80244   1.80742
 Alpha virt. eigenvalues --    1.81230   1.81928   1.82694   1.83082   1.83435
 Alpha virt. eigenvalues --    1.83975   1.84370   1.85750   1.86325   1.86875
 Alpha virt. eigenvalues --    1.87224   1.87982   1.89002   1.89613   1.89979
 Alpha virt. eigenvalues --    1.90558   1.91249   1.91514   1.92507   1.93431
 Alpha virt. eigenvalues --    1.93940   1.94232   1.94803   1.95841   1.95938
 Alpha virt. eigenvalues --    1.96860   1.97473   1.98543   1.98863   1.99480
 Alpha virt. eigenvalues --    1.99938   2.00771   2.01960   2.02269   2.03632
 Alpha virt. eigenvalues --    2.04972   2.06046   2.06674   2.06905   2.07097
 Alpha virt. eigenvalues --    2.07752   2.08601   2.09068   2.10555   2.11228
 Alpha virt. eigenvalues --    2.11804   2.12177   2.13879   2.14439   2.15029
 Alpha virt. eigenvalues --    2.16072   2.16823   2.17602   2.18906   2.19817
 Alpha virt. eigenvalues --    2.19989   2.20293   2.21025   2.21633   2.22702
 Alpha virt. eigenvalues --    2.22878   2.23305   2.24610   2.25505   2.27288
 Alpha virt. eigenvalues --    2.27780   2.28162   2.28959   2.29332   2.29909
 Alpha virt. eigenvalues --    2.31005   2.32237   2.32646   2.33698   2.34644
 Alpha virt. eigenvalues --    2.34993   2.35372   2.36682   2.37853   2.39209
 Alpha virt. eigenvalues --    2.39575   2.41469   2.41735   2.42305   2.42888
 Alpha virt. eigenvalues --    2.44130   2.45474   2.46215   2.48838   2.49230
 Alpha virt. eigenvalues --    2.49940   2.49987   2.50404   2.51343   2.52310
 Alpha virt. eigenvalues --    2.52971   2.54085   2.54613   2.55194   2.56511
 Alpha virt. eigenvalues --    2.56652   2.57290   2.58162   2.58677   2.59470
 Alpha virt. eigenvalues --    2.60845   2.61152   2.63318   2.63466   2.64326
 Alpha virt. eigenvalues --    2.65647   2.66215   2.66436   2.67344   2.67754
 Alpha virt. eigenvalues --    2.68721   2.68980   2.69980   2.73155   2.74007
 Alpha virt. eigenvalues --    2.75861   2.79884   2.80217   2.82103   2.83983
 Alpha virt. eigenvalues --    2.85664   2.87600   2.91226   2.91767   2.92494
 Alpha virt. eigenvalues --    2.93420   2.93856   2.95711   2.96661   2.97691
 Alpha virt. eigenvalues --    2.98899   2.99597   3.02698   3.04505   3.05994
 Alpha virt. eigenvalues --    3.11213   3.32414   3.69521   3.73266   3.74308
 Alpha virt. eigenvalues --    3.76126   3.81033   3.82601   3.89836   3.95136
 Alpha virt. eigenvalues --    3.96883   3.98761   4.02405   4.03814   4.06009
 Alpha virt. eigenvalues --    4.07099   4.08219   4.09685   4.12560   4.13450
 Alpha virt. eigenvalues --    4.15434   4.16211   4.17333   4.20676   4.22428
 Alpha virt. eigenvalues --    4.24194   4.26866   4.28469   4.30629   4.33609
 Alpha virt. eigenvalues --    4.37176   4.39735   4.41966   4.45762   4.48345
 Alpha virt. eigenvalues --    4.49903   4.55707   4.58217   4.63095   4.64993
 Alpha virt. eigenvalues --    4.72766
          Condensed to atoms (all electrons):
 Mulliken charges:
               1
     1  N   -0.728016
     2  C   -0.089672
     3  C    0.659172
     4  O   -0.499540
     5  C   -0.394484
     6  C    0.608831
     7  N   -0.724258
     8  O   -0.509830
     9  H    0.318837
    10  H    0.447766
    11  H    0.200967
    12  H    0.207121
    13  H    0.241593
    14  H    0.374404
    15  H    0.439443
    16  H    0.345124
    17  N   -0.634905
    18  C   -0.072908
    19  C    0.611070
    20  O   -0.526920
    21  C   -0.354258
    22  C    0.174018
    23  C   -0.172547
    24  C   -0.205198
    25  C   -0.142876
    26  C   -0.137324
    27  C   -0.146637
    28  H    0.343682
    29  H    0.218123
    30  H    0.125526
    31  H    0.200438
    32  H    0.162726
    33  H    0.117645
    34  H    0.154723
    35  H    0.136792
    36  H    0.144774
    37  N   -0.655717
    38  C   -0.058862
    39  C    0.657068
    40  O   -0.523505
    41  C   -0.379532
    42  C    0.625778
    43  N   -0.747550
    44  O   -0.517915
    45  H    0.390868
    46  H    0.204861
    47  H    0.175907
    48  H    0.218301
    49  H    0.360363
    50  H    0.354537
    51  N   -0.658838
    52  C   -0.093753
    53  C    0.611672
    54  O   -0.528238
    55  C   -0.273890
    56  C   -0.292463
    57  C   -0.151710
    58  N   -0.655922
    59  C    0.599912
    60  N   -0.657996
    61  N   -0.753228
    62  O   -0.525060
    63  H    0.420246
    64  H    0.403510
    65  H    0.219975
    66  H    0.154742
    67  H    0.202209
    68  H    0.131453
    69  H    0.165761
    70  H    0.159989
    71  H    0.235587
    72  H    0.312734
    73  H    0.302603
    74  H    0.362690
    75  H    0.310015
 Sum of Mulliken charges =   1.00000
 Mulliken charges with hydrogens summed into heavy atoms:
               1
     1  N   -0.064055
     2  C    0.111295
     3  C    0.659172
     4  O   -0.499540
     5  C    0.054230
     6  C    0.608831
     7  N    0.089588
     8  O   -0.062065
    17  N   -0.291224
    18  C    0.145215
    19  C    0.611070
    20  O   -0.526920
    21  C   -0.028293
    22  C    0.174018
    23  C   -0.009822
    24  C   -0.087553
    25  C    0.011847
    26  C   -0.000532
    27  C   -0.001863
    37  N   -0.264849
    38  C    0.145999
    39  C    0.657068
    40  O   -0.523505
    41  C    0.014676
    42  C    0.625778
    43  N   -0.032650
    44  O   -0.517915
    51  N   -0.255329
    52  C    0.126222
    53  C    0.611672
    54  O   -0.528238
    55  C    0.083061
    56  C    0.004750
    57  C    0.243866
    58  N   -0.343188
    59  C    0.599912
    60  N   -0.355393
    61  N   -0.080524
    62  O   -0.104814
 Electronic spatial extent (au):  <R**2>=         137557.6950
 Charge=              1.0000 electrons
 Dipole moment (field-independent basis, Debye):
    X=            -40.1906    Y=            -21.6720    Z=            -39.7086  Tot=             60.5123
 Quadrupole moment (field-independent basis, Debye-Ang):
   XX=            119.1758   YY=            -42.5509   ZZ=            124.1470
   XY=            176.7737   XZ=            328.8364   YZ=            164.6433
 Traceless Quadrupole moment (field-independent basis, Debye-Ang):
   XX=             52.2519   YY=           -109.4749   ZZ=             57.2230
   XY=            176.7737   XZ=            328.8364   YZ=            164.6433
 Octapole moment (field-independent basis, Debye-Ang**2):
  XXX=           1887.8505  YYY=             96.2589  ZZZ=           1917.4112  XYY=            -37.5967
  XXY=          -1170.3295  XXZ=          -1063.9982  XZZ=          -1200.4022  YZZ=           -997.2176
  YYZ=            332.9734  XYZ=          -1300.4596
 Hexadecapole moment (field-independent basis, Debye-Ang**3):
 XXXX=         -48812.7880 YYYY=          -4422.7178 ZZZZ=         -56051.7646 XXXY=           6007.7295
 XXXZ=         -13936.0202 YYYX=            970.5126 YYYZ=            490.7924 ZZZX=         -12231.9260
 ZZZY=           5503.0756 XXYY=            952.3464 XXZZ=          -3813.1911 YYZZ=          -5461.9092
 XXYZ=           8851.0358 YYXZ=             -6.9480 ZZXY=           7644.0726
 N-N= 5.144750896983D+03 E-N=-1.473123005384D+04  KE= 1.899757912980D+03
 Unable to Open any file for archive entry.
 1\1\GINC-SKL-141\SP\RB3LYP\6-31G(d)\C23H36N9O7(1+)\KENGMITH\07-Jun-202
 2\0\\# B3LYP/6-31G* empiricaldispersion=gd3 guess=read geom=check nosy
 mm integral(ultrafinegrid)\\Candidate Structure: Conf:879 Charge calc 
 in gas phase\\1,1\N,0,-9.8932414347,-3.0070594621,-7.0737032202\C,0,-9
 .1817379379,-3.3207442176,-5.8748029781\C,0,-8.4298470891,-2.086759281
 2,-5.3314618225\O,0,-8.6672501259,-1.658994175,-4.2127424418\C,0,-8.08
 45250186,-4.4905115338,-5.9495829433\C,0,-8.7030618864,-5.728890202,-6
 .4303591241\N,0,-8.8302669155,-5.9619693116,-7.7176490511\O,0,-9.20951
 28227,-6.526196612,-5.5157497056\H,0,-10.6858459686,-3.6003330107,-7.2
 83115797\H,0,-9.6711504282,-7.3094801086,-5.8693669239\H,0,-9.89647755
 45,-3.5852561319,-5.0937377087\H,0,-7.2901483827,-4.1862186124,-6.6313
 734656\H,0,-7.6601563174,-4.6441312365,-4.9544615712\H,0,-9.3060336301
 ,-6.7797722508,-8.0843006691\H,0,-8.4109518286,-5.3017929147,-8.389829
 8685\H,0,-9.3244700079,-2.8463685392,-7.8957527671\N,0,-7.4887868866,-
 1.5558339211,-6.1657893327\C,0,-6.5128150549,-0.589983753,-5.677736805
 3\C,0,-6.2312061251,0.5842600888,-6.6382760542\O,0,-5.1383494836,1.142
 9315393,-6.5596385215\C,0,-5.1501265345,-1.2789898472,-5.3643827109\C,
 0,-5.2648367014,-2.6218641013,-4.6777007498\C,0,-5.8933700982,-2.76335
 82595,-3.4317233794\C,0,-4.7240251718,-3.7650974238,-5.2823446682\C,0,
 -5.9836963203,-4.0124525007,-2.81558042\C,0,-4.800441385,-5.0160652097
 ,-4.6650703028\C,0,-5.4354136181,-5.1442619498,-3.428117909\H,0,-7.374
 2012058,-1.9197002821,-7.105170186\H,0,-6.9359206259,-0.1863432762,-4.
 7526980236\H,0,-4.6090672039,-1.405389276,-6.3085884192\H,0,-4.5535461
 237,-0.5796043585,-4.7717150952\H,0,-6.33516656,-1.8972875168,-2.94943
 6785\H,0,-4.2200590517,-3.6716635306,-6.242555163\H,0,-6.4746429874,-4
 .0992586933,-1.8503959109\H,0,-4.3551919892,-5.8842663159,-5.144232755
 8\H,0,-5.4915427988,-6.1122139092,-2.9376764819\N,0,-7.1290374341,0.93
 44062622,-7.6080196064\C,0,-8.5683671989,0.7256528682,-7.6810274404\C,
 0,-9.0105240175,-0.3218806082,-8.7197880714\O,0,-10.1990869245,-0.5097
 215298,-8.9333954153\C,0,-9.3053224689,2.0458120081,-7.9632165374\C,0,
 -8.9502065763,2.5865544088,-9.348125669\N,0,-9.2487462918,3.8863947714
 ,-9.5744208017\O,0,-8.440303399,1.8623281882,-10.2021123342\H,0,-6.714
 122929,1.5470709642,-8.3164198535\H,0,-8.9245903906,0.3512948838,-6.71
 99401372\H,0,-9.0755445516,2.7739885215,-7.1779904541\H,0,-10.38231294
 92,1.8465307488,-7.9395072027\H,0,-9.0449594971,4.2788187042,-10.48364
 16267\H,0,-9.6507057088,4.4854377167,-8.8687674185\N,0,-8.018442998,-1
 .0950597241,-9.2912727099\C,0,-8.3926228242,-1.8805854952,-10.45615344
 18\C,0,-7.8232306816,-3.2822357717,-10.3319053112\O,0,-7.7035328041,-3
 .8881261851,-9.2665091123\C,0,-8.2061492552,-1.1708811745,-11.81382592
 23\C,0,-6.7864492108,-0.9008953958,-12.3439285307\C,0,-5.9527766033,0.
 1434725883,-11.5941278739\N,0,-5.3173053299,-0.4405381272,-10.39542537
 88\C,0,-4.6245152311,0.4445964666,-9.5441466409\N,0,-4.9320196857,1.68
 97555792,-9.5284716019\N,0,-3.6482471713,-0.1828642912,-8.7731617447\O
 ,0,-7.5338060268,-3.8524261528,-11.5026215274\H,0,-7.2207214105,-4.762
 5180352,-11.3386585233\H,0,-7.0737584593,-0.7053412702,-9.3391300834\H
 ,0,-9.4786983801,-2.0347848113,-10.3457853353\H,0,-8.7413390303,-1.767
 22113,-12.561637788\H,0,-8.7400351277,-0.2195990386,-11.7185592376\H,0
 ,-6.226595046,-1.8424538554,-12.4353900777\H,0,-6.9086374865,-0.534968
 4244,-13.3703373524\H,0,-5.1805044051,0.5532330199,-12.2592935882\H,0,
 -6.5719739119,0.9792407005,-11.2682047641\H,0,-4.7317156061,-1.2319763
 894,-10.6536258305\H,0,-4.4099806899,2.1749542317,-8.7986438105\H,0,-3
 .4732441797,0.2935622312,-7.8942963456\H,0,-3.7719065229,-1.1789613763
 ,-8.6290579268\\Version=ES64L-G16RevC.01\HF=-1917.4265906\RMSD=9.482e-
 09\Dipole=-2.0250517,-5.5747996,-1.0400647\Quadrupole=38.8479857,-81.3
 919033,42.5439175,131.4268971,244.4817777,122.4082776\PG=C01 [X(C23H36
 N9O7)]\\@
 The archive entry for this job was punched.


 KNIGHT- SIRE, I'VE JUST RETURNED FROM THE FRONT
 KING-   HOW GOES THE BATTLE                    
 KNIGHT- THE SITUATION IS QUITE FLUID           
 KING-   WHAT DOES *THAT* MEAN                  
 KNIGHT- WE'RE UP THE CREEK                     
                THE WIZARD OF ID                
 Job cpu time:       0 days  0 hours  2 minutes 16.1 seconds.
 Elapsed time:       0 days  0 hours  0 minutes 35.2 seconds.
 File lengths (MBytes):  RWF=    344 Int=      0 D2E=      0 Chk=     48 Scr=     16
 Normal termination of Gaussian 16 at Tue Jun  7 01:06:07 2022.
