 Entering Gaussian System, Link 0=/opt/software/Gaussian/g16-AVX2-C.01/g16/g16
 Input=charge-conf-322.com
 Output=charge-conf-322.log
 Initial command:
 /opt/software/Gaussian/g16-AVX2-C.01/g16/l1.exe "/mnt/gs18/scratch/users/kengmith/Gau-3423.inp" -scrdir="/mnt/gs18/scratch/users/kengmith/"
 Entering Link 1 = /opt/software/Gaussian/g16-AVX2-C.01/g16/l1.exe PID=      3441.
  
 Copyright (c) 1988-2019, Gaussian, Inc.  All Rights Reserved.
  
 This is part of the Gaussian(R) 16 program.  It is based on
 the Gaussian(R) 09 system (copyright 2009, Gaussian, Inc.),
 the Gaussian(R) 03 system (copyright 2003, Gaussian, Inc.),
 the Gaussian(R) 98 system (copyright 1998, Gaussian, Inc.),
 the Gaussian(R) 94 system (copyright 1995, Gaussian, Inc.),
 the Gaussian 92(TM) system (copyright 1992, Gaussian, Inc.),
 the Gaussian 90(TM) system (copyright 1990, Gaussian, Inc.),
 the Gaussian 88(TM) system (copyright 1988, Gaussian, Inc.),
 the Gaussian 86(TM) system (copyright 1986, Carnegie Mellon
 University), and the Gaussian 82(TM) system (copyright 1983,
 Carnegie Mellon University). Gaussian is a federally registered
 trademark of Gaussian, Inc.
  
 This software contains proprietary and confidential information,
 including trade secrets, belonging to Gaussian, Inc.
  
 This software is provided under written license and may be
 used, copied, transmitted, or stored only in accord with that
 written license.
  
 The following legend is applicable only to US Government
 contracts under FAR:
  
                    RESTRICTED RIGHTS LEGEND
  
 Use, reproduction and disclosure by the US Government is
 subject to restrictions as set forth in subparagraphs (a)
 and (c) of the Commercial Computer Software - Restricted
 Rights clause in FAR 52.227-19.
  
 Gaussian, Inc.
 340 Quinnipiac St., Bldg. 40, Wallingford CT 06492
  
  
 ---------------------------------------------------------------
 Warning -- This program may not be used in any manner that
 competes with the business of Gaussian, Inc. or will provide
 assistance to any competitor of Gaussian, Inc.  The licensee
 of this program is prohibited from giving any competitor of
 Gaussian, Inc. access to this program.  By using this program,
 the user acknowledges that Gaussian, Inc. is engaged in the
 business of creating and licensing software in the field of
 computational chemistry and represents and warrants to the
 licensee that it is not a competitor of Gaussian, Inc. and that
 it will not use this program in any manner prohibited above.
 ---------------------------------------------------------------
  

 Cite this work as:
 Gaussian 16, Revision C.01,
 M. J. Frisch, G. W. Trucks, H. B. Schlegel, G. E. Scuseria, 
 M. A. Robb, J. R. Cheeseman, G. Scalmani, V. Barone, 
 G. A. Petersson, H. Nakatsuji, X. Li, M. Caricato, A. V. Marenich, 
 J. Bloino, B. G. Janesko, R. Gomperts, B. Mennucci, H. P. Hratchian, 
 J. V. Ortiz, A. F. Izmaylov, J. L. Sonnenberg, D. Williams-Young, 
 F. Ding, F. Lipparini, F. Egidi, J. Goings, B. Peng, A. Petrone, 
 T. Henderson, D. Ranasinghe, V. G. Zakrzewski, J. Gao, N. Rega, 
 G. Zheng, W. Liang, M. Hada, M. Ehara, K. Toyota, R. Fukuda, 
 J. Hasegawa, M. Ishida, T. Nakajima, Y. Honda, O. Kitao, H. Nakai, 
 T. Vreven, K. Throssell, J. A. Montgomery, Jr., J. E. Peralta, 
 F. Ogliaro, M. J. Bearpark, J. J. Heyd, E. N. Brothers, K. N. Kudin, 
 V. N. Staroverov, T. A. Keith, R. Kobayashi, J. Normand, 
 K. Raghavachari, A. P. Rendell, J. C. Burant, S. S. Iyengar, 
 J. Tomasi, M. Cossi, J. M. Millam, M. Klene, C. Adamo, R. Cammi, 
 J. W. Ochterski, R. L. Martin, K. Morokuma, O. Farkas, 
 J. B. Foresman, and D. J. Fox, Gaussian, Inc., Wallingford CT, 2019.
 
 ******************************************
 Gaussian 16:  ES64L-G16RevC.01  3-Jul-2019
                 7-Jun-2022 
 ******************************************
 %mem=8gb
 %nproc=4
 Will use up to    4 processors via shared memory.
 %chk=conf-322.chk
 ----------------------------------------------------------------------
 # B3LYP/6-31G* empiricaldispersion=gd3 guess=read geom=check nosymm in
 tegral(ultrafinegrid)
 ----------------------------------------------------------------------
 1/29=2,38=1,172=1/1;
 2/12=2,15=1,40=1/2;
 3/5=1,6=6,7=1,11=2,14=-4,25=1,30=1,74=-5,75=-5,116=-2,124=31/1,2,3;
 4/5=1/1;
 5/5=2,38=6/2;
 6/7=2,8=2,9=2,10=2,28=1/1;
 99/5=1,9=1/99;
 ------------------------------------------------------
 Candidate Structure: Conf:322 Charge calc in gas phase
 ------------------------------------------------------
 Structure from the checkpoint file:  "conf-322.chk"
 Charge =  1 Multiplicity = 1
 Redundant internal coordinates found in file.  (old form).
 N,0,-9.2590653043,0.6613563395,-6.7548460069
 C,0,-7.9294473253,1.1060905937,-6.3237576073
 C,0,-6.7937299691,0.8698200675,-7.3421587795
 O,0,-6.3339485679,1.8064821031,-7.9836178497
 C,0,-7.5799321336,0.4610992129,-4.9469067663
 C,0,-8.832321586,0.2912306016,-4.1636271204
 N,0,-9.4215040537,-0.8736022169,-4.08042329
 O,0,-9.2776357009,1.3648327671,-3.5619983612
 H,0,-9.1991697434,-0.2986437131,-7.0823848406
 H,0,-10.1493208553,1.2569688545,-3.1372368884
 H,0,-7.970147356,2.1891512623,-6.1932542315
 H,0,-7.1052188232,-0.5119645498,-5.0616567998
 H,0,-6.8809687853,1.0971791153,-4.3968511922
 H,0,-10.3123119242,-1.0035161874,-3.6116696005
 H,0,-9.089473342,-1.6364687484,-4.6962592511
 H,0,-9.5336703499,1.1879949609,-7.5830251552
 N,0,-6.3550383401,-0.4194721997,-7.4946356369
 C,0,-5.0451325728,-0.6881746012,-8.0823956264
 C,0,-5.0946617552,-1.8567245783,-9.087950432
 O,0,-4.3649775093,-2.839383655,-8.9409880624
 C,0,-3.9708982044,-0.9628138186,-6.9978817406
 C,0,-4.0913964298,-0.0898656437,-5.7672248157
 C,0,-4.0452851682,1.3101306268,-5.8436185573
 C,0,-4.2583770012,-0.6820940828,-4.507575531
 C,0,-4.1722419406,2.0923965497,-4.694721284
 C,0,-4.373309237,0.0956410498,-3.3526046838
 C,0,-4.3348274486,1.4886902025,-3.4434761348
 H,0,-6.8362092606,-1.178652211,-7.0250807138
 H,0,-4.7872095871,0.2223603421,-8.6317551667
 H,0,-4.0297278021,-2.0126728932,-6.7003318316
 H,0,-2.986479585,-0.8490536112,-7.4666027523
 H,0,-3.9311813239,1.79465044,-6.808439262
 H,0,-4.2788290785,-1.7673026682,-4.4275616452
 H,0,-4.1329826678,3.175014688,-4.7763241309
 H,0,-4.4821499392,-0.386413611,-2.384572252
 H,0,-4.4148057987,2.0991838904,-2.5482418637
 N,0,-5.9466367216,-1.7730094275,-10.1469208502
 C,0,-7.0172948336,-0.8114111614,-10.366270198
 C,0,-8.3275852119,-1.1456314067,-9.6253435544
 O,0,-9.2124523279,-0.2942230428,-9.5481501624
 C,0,-7.3043115928,-0.6239615799,-11.8659318367
 C,0,-7.7833708646,-1.9125735705,-12.5379944797
 N,0,-8.1898965934,-1.7832856537,-13.8229312527
 O,0,-7.7923634678,-2.9916259417,-11.9449299475
 H,0,-5.9999926018,-2.6181086103,-10.7103433388
 H,0,-6.7152382175,0.1636640742,-9.9770772043
 H,0,-6.3958152484,-0.2676270518,-12.366150395
 H,0,-8.065997815,0.1563063931,-11.971031566
 H,0,-8.4689819689,-2.6137080368,-14.3278310154
 H,0,-8.168853025,-0.9029568852,-14.3164550312
 N,0,-8.4205700074,-2.3765439516,-9.054403306
 C,0,-9.6282337991,-2.7960299094,-8.3875072472
 C,0,-9.3698417397,-2.9868981232,-6.8893083789
 O,0,-8.5032586276,-2.3662752112,-6.2677458283
 C,0,-10.3567028955,-3.9428020949,-9.1294222353
 C,0,-9.5269027627,-5.1820188731,-9.487398591
 C,0,-8.9497851794,-5.9649936128,-8.3041485907
 N,0,-8.0958979963,-5.1504366962,-7.4193711686
 C,0,-6.7962733966,-4.8296178511,-7.8556663636
 N,0,-6.4929620876,-4.9586289528,-9.0954548895
 N,0,-5.9804537605,-4.3811875602,-6.8221182766
 O,0,-10.2988380938,-3.6291278824,-6.1670289703
 H,0,-10.9155973774,-4.1056512775,-6.7501528684
 H,0,-7.7451206521,-3.0940352619,-9.3106585233
 H,0,-10.2985780024,-1.9219499887,-8.4138867705
 H,0,-11.2634394691,-4.232463613,-8.57059033
 H,0,-10.7318595339,-3.5001482976,-10.0579748491
 H,0,-10.1763764401,-5.8652412673,-10.0483595334
 H,0,-8.7174594926,-4.9020501384,-10.1650445168
 H,0,-9.7647245118,-6.3444684811,-7.6742512616
 H,0,-8.3903109198,-6.8260977887,-8.6882042265
 H,0,-8.0892741485,-5.4991226522,-6.465898853
 H,0,-5.5454008732,-4.6226462886,-9.2732485493
 H,0,-5.1227894374,-3.9481865184,-7.14984057
 H,0,-6.4501535752,-3.8459538846,-6.0999801162
 Recover connectivity data from disk.
                           ----------------------------
                           !    Current Parameters    !
                           ! (Angstroms and Degrees)  !
 --------------------------                            --------------------------
 ! Name  Definition              Value                                          !
 --------------------------------------------------------------------------------
 ! R1    R(1,2)                  1.4668                                         !
 ! R2    R(1,9)                  1.0161                                         !
 ! R3    R(1,16)                 1.0191                                         !
 ! R4    R(2,3)                  1.5436                                         !
 ! R5    R(2,5)                  1.5601                                         !
 ! R6    R(2,11)                 1.0917                                         !
 ! R7    R(3,4)                  1.2248                                         !
 ! R8    R(3,17)                 1.3704                                         !
 ! R9    R(5,6)                  1.4869                                         !
 ! R10   R(5,12)                 1.0887                                         !
 ! R11   R(5,13)                 1.0935                                         !
 ! R12   R(6,7)                  1.308                                          !
 ! R13   R(6,8)                  1.3088                                         !
 ! R14   R(7,14)                 1.015                                          !
 ! R15   R(7,15)                 1.0351                                         !
 ! R16   R(8,10)                 0.9756                                         !
 ! R17   R(17,18)                1.4607                                         !
 ! R18   R(17,28)                1.0141                                         !
 ! R19   R(18,19)                1.5424                                         !
 ! R20   R(18,21)                1.551                                          !
 ! R21   R(18,29)                1.0943                                         !
 ! R22   R(19,20)                1.2327                                         !
 ! R23   R(19,37)                1.3617                                         !
 ! R24   R(21,22)                1.5136                                         !
 ! R25   R(21,30)                1.0928                                         !
 ! R26   R(21,31)                1.0962                                         !
 ! R27   R(22,23)                1.4028                                         !
 ! R28   R(22,24)                1.4019                                         !
 ! R29   R(23,25)                1.3957                                         !
 ! R30   R(23,32)                1.0857                                         !
 ! R31   R(24,26)                1.3972                                         !
 ! R32   R(24,33)                1.0883                                         !
 ! R33   R(25,27)                1.3988                                         !
 ! R34   R(25,34)                1.0864                                         !
 ! R35   R(26,27)                1.3965                                         !
 ! R36   R(26,35)                1.0869                                         !
 ! R37   R(27,36)                1.0865                                         !
 ! R38   R(37,38)                1.4557                                         !
 ! R39   R(37,45)                1.0171                                         !
 ! R40   R(38,39)                1.5419                                         !
 ! R41   R(38,41)                1.5383                                         !
 ! R42   R(38,46)                1.0925                                         !
 ! R43   R(39,40)                1.2304                                         !
 ! R44   R(39,51)                1.3601                                         !
 ! R45   R(41,42)                1.5303                                         !
 ! R46   R(41,47)                1.0966                                         !
 ! R47   R(41,48)                1.0955                                         !
 ! R48   R(42,43)                1.3539                                         !
 ! R49   R(42,44)                1.2313                                         !
 ! R50   R(43,49)                1.0111                                         !
 ! R51   R(43,50)                1.0094                                         !
 ! R52   R(51,52)                1.4419                                         !
 ! R53   R(51,64)                1.0182                                         !
 ! R54   R(52,53)                1.5323                                         !
 ! R55   R(52,55)                1.548                                          !
 ! R56   R(52,65)                1.1018                                         !
 ! R57   R(53,54)                1.2339                                         !
 ! R58   R(53,62)                1.3406                                         !
 ! R59   R(55,56)                1.5337                                         !
 ! R60   R(55,66)                1.1038                                         !
 ! R61   R(55,67)                1.0949                                         !
 ! R62   R(56,57)                1.5317                                         !
 ! R63   R(56,68)                1.0969                                         !
 ! R64   R(56,69)                1.0921                                         !
 ! R65   R(57,58)                1.4749                                         !
 ! R66   R(57,70)                1.0977                                         !
 ! R67   R(57,71)                1.0964                                         !
 ! R68   R(58,59)                1.4079                                         !
 ! R69   R(58,72)                1.0153                                         !
 ! R70   R(59,60)                1.2829                                         !
 ! R71   R(59,61)                1.391                                          !
 ! R72   R(60,73)                1.021                                          !
 ! R73   R(61,74)                1.0151                                         !
 ! R74   R(61,75)                1.0142                                         !
 ! R75   R(62,63)                0.9734                                         !
 ! A1    A(2,1,9)              109.133                                          !
 ! A2    A(2,1,16)             109.0503                                         !
 ! A3    A(9,1,16)             104.0136                                         !
 ! A4    A(1,2,3)              115.2536                                         !
 ! A5    A(1,2,5)              109.7007                                         !
 ! A6    A(1,2,11)             107.5869                                         !
 ! A7    A(3,2,5)              110.7407                                         !
 ! A8    A(3,2,11)             104.9607                                         !
 ! A9    A(5,2,11)             108.2416                                         !
 ! A10   A(2,3,4)              120.3082                                         !
 ! A11   A(2,3,17)             116.9322                                         !
 ! A12   A(4,3,17)             122.754                                          !
 ! A13   A(2,5,6)              108.8714                                         !
 ! A14   A(2,5,12)             111.9729                                         !
 ! A15   A(2,5,13)             110.283                                          !
 ! A16   A(6,5,12)             108.7033                                         !
 ! A17   A(6,5,13)             109.8683                                         !
 ! A18   A(12,5,13)            107.1098                                         !
 ! A19   A(5,6,7)              120.9739                                         !
 ! A20   A(5,6,8)              115.7874                                         !
 ! A21   A(7,6,8)              123.2308                                         !
 ! A22   A(6,7,14)             122.5957                                         !
 ! A23   A(6,7,15)             118.2931                                         !
 ! A24   A(14,7,15)            117.5141                                         !
 ! A25   A(6,8,10)             114.421                                          !
 ! A26   A(3,17,18)            120.3266                                         !
 ! A27   A(3,17,28)            120.0609                                         !
 ! A28   A(18,17,28)           118.3022                                         !
 ! A29   A(17,18,19)           111.8948                                         !
 ! A30   A(17,18,21)           111.8596                                         !
 ! A31   A(17,18,29)           105.0893                                         !
 ! A32   A(19,18,21)           110.1172                                         !
 ! A33   A(19,18,29)           108.1002                                         !
 ! A34   A(21,18,29)           109.5808                                         !
 ! A35   A(18,19,20)           120.4762                                         !
 ! A36   A(18,19,37)           118.718                                          !
 ! A37   A(20,19,37)           120.8009                                         !
 ! A38   A(18,21,22)           114.2837                                         !
 ! A39   A(18,21,30)           108.8578                                         !
 ! A40   A(18,21,31)           107.735                                          !
 ! A41   A(22,21,30)           109.1717                                         !
 ! A42   A(22,21,31)           111.056                                          !
 ! A43   A(30,21,31)           105.335                                          !
 ! A44   A(21,22,23)           121.9153                                         !
 ! A45   A(21,22,24)           119.7618                                         !
 ! A46   A(23,22,24)           118.3227                                         !
 ! A47   A(22,23,25)           120.7655                                         !
 ! A48   A(22,23,32)           119.8173                                         !
 ! A49   A(25,23,32)           119.4039                                         !
 ! A50   A(22,24,26)           121.1592                                         !
 ! A51   A(22,24,33)           119.3094                                         !
 ! A52   A(26,24,33)           119.5202                                         !
 ! A53   A(23,25,27)           120.3328                                         !
 ! A54   A(23,25,34)           119.5649                                         !
 ! A55   A(27,25,34)           120.0989                                         !
 ! A56   A(24,26,27)           119.9477                                         !
 ! A57   A(24,26,35)           119.8423                                         !
 ! A58   A(27,26,35)           120.207                                          !
 ! A59   A(25,27,26)           119.4678                                         !
 ! A60   A(25,27,36)           120.2052                                         !
 ! A61   A(26,27,36)           120.3201                                         !
 ! A62   A(19,37,38)           128.167                                          !
 ! A63   A(19,37,45)           114.364                                          !
 ! A64   A(38,37,45)           115.2653                                         !
 ! A65   A(37,38,39)           114.1679                                         !
 ! A66   A(37,38,41)           111.3835                                         !
 ! A67   A(37,38,46)           109.4237                                         !
 ! A68   A(39,38,41)           109.6518                                         !
 ! A69   A(39,38,46)           104.9059                                         !
 ! A70   A(41,38,46)           106.8653                                         !
 ! A71   A(38,39,40)           119.4259                                         !
 ! A72   A(38,39,51)           117.1285                                         !
 ! A73   A(40,39,51)           123.4199                                         !
 ! A74   A(38,41,42)           112.5779                                         !
 ! A75   A(38,41,47)           109.2508                                         !
 ! A76   A(38,41,48)           108.0622                                         !
 ! A77   A(42,41,47)           109.4298                                         !
 ! A78   A(42,41,48)           109.8762                                         !
 ! A79   A(47,41,48)           107.5072                                         !
 ! A80   A(41,42,43)           115.4929                                         !
 ! A81   A(41,42,44)           121.9181                                         !
 ! A82   A(43,42,44)           122.5888                                         !
 ! A83   A(42,43,49)           118.5777                                         !
 ! A84   A(42,43,50)           122.7531                                         !
 ! A85   A(49,43,50)           118.5449                                         !
 ! A86   A(39,51,52)           120.978                                          !
 ! A87   A(39,51,64)           119.1277                                         !
 ! A88   A(52,51,64)           117.8401                                         !
 ! A89   A(51,52,53)           110.3176                                         !
 ! A90   A(51,52,55)           112.8296                                         !
 ! A91   A(51,52,65)           105.5265                                         !
 ! A92   A(53,52,55)           117.1106                                         !
 ! A93   A(53,52,65)           102.9923                                         !
 ! A94   A(55,52,65)           106.8525                                         !
 ! A95   A(52,53,54)           123.2524                                         !
 ! A96   A(52,53,62)           118.0096                                         !
 ! A97   A(54,53,62)           117.1451                                         !
 ! A98   A(52,55,56)           117.1178                                         !
 ! A99   A(52,55,66)           109.7757                                         !
 ! A100  A(52,55,67)           105.557                                          !
 ! A101  A(56,55,66)           110.5226                                         !
 ! A102  A(56,55,67)           108.3051                                         !
 ! A103  A(66,55,67)           104.7131                                         !
 ! A104  A(55,56,57)           115.8843                                         !
 ! A105  A(55,56,68)           107.5936                                         !
 ! A106  A(55,56,69)           109.7965                                         !
 ! A107  A(57,56,68)           107.4421                                         !
 ! A108  A(57,56,69)           109.3356                                         !
 ! A109  A(68,56,69)           106.3306                                         !
 ! A110  A(56,57,58)           113.5296                                         !
 ! A111  A(56,57,70)           109.894                                          !
 ! A112  A(56,57,71)           108.8534                                         !
 ! A113  A(58,57,70)           106.0512                                         !
 ! A114  A(58,57,71)           110.3935                                         !
 ! A115  A(70,57,71)           107.9599                                         !
 ! A116  A(57,58,59)           118.3165                                         !
 ! A117  A(57,58,72)           112.1772                                         !
 ! A118  A(59,58,72)           111.3006                                         !
 ! A119  A(58,59,60)           119.6571                                         !
 ! A120  A(58,59,61)           112.6181                                         !
 ! A121  A(60,59,61)           127.7222                                         !
 ! A122  A(59,60,73)           110.7713                                         !
 ! A123  A(59,61,74)           113.1511                                         !
 ! A124  A(59,61,75)           115.3136                                         !
 ! A125  A(74,61,75)           113.3317                                         !
 ! A126  A(53,62,63)           110.539                                          !
 ! D1    D(9,1,2,3)             50.763                                          !
 ! D2    D(9,1,2,5)            -75.0263                                         !
 ! D3    D(9,1,2,11)           167.4391                                         !
 ! D4    D(16,1,2,3)           -62.2512                                         !
 ! D5    D(16,1,2,5)           171.9595                                         !
 ! D6    D(16,1,2,11)           54.425                                          !
 ! D7    D(1,2,3,4)            105.0636                                         !
 ! D8    D(1,2,3,17)           -74.0922                                         !
 ! D9    D(5,2,3,4)           -129.6837                                         !
 ! D10   D(5,2,3,17)            51.1605                                         !
 ! D11   D(11,2,3,4)           -13.0907                                         !
 ! D12   D(11,2,3,17)          167.7535                                         !
 ! D13   D(1,2,5,6)            -32.3781                                         !
 ! D14   D(1,2,5,12)            87.8434                                         !
 ! D15   D(1,2,5,13)          -152.991                                          !
 ! D16   D(3,2,5,6)           -160.7047                                         !
 ! D17   D(3,2,5,12)           -40.4833                                         !
 ! D18   D(3,2,5,13)            78.6823                                         !
 ! D19   D(11,2,5,6)            84.7469                                         !
 ! D20   D(11,2,5,12)         -155.0317                                         !
 ! D21   D(11,2,5,13)          -35.8661                                         !
 ! D22   D(2,3,17,18)         -160.3521                                         !
 ! D23   D(2,3,17,28)            6.3568                                         !
 ! D24   D(4,3,17,18)           20.5145                                         !
 ! D25   D(4,3,17,28)         -172.7766                                         !
 ! D26   D(2,5,6,7)            101.1536                                         !
 ! D27   D(2,5,6,8)            -79.8338                                         !
 ! D28   D(12,5,6,7)           -21.0676                                         !
 ! D29   D(12,5,6,8)           157.945                                          !
 ! D30   D(13,5,6,7)          -137.9785                                         !
 ! D31   D(13,5,6,8)            41.0341                                         !
 ! D32   D(5,6,7,14)          -175.2998                                         !
 ! D33   D(5,6,7,15)           -10.0774                                         !
 ! D34   D(8,6,7,14)             5.7631                                         !
 ! D35   D(8,6,7,15)           170.9855                                         !
 ! D36   D(5,6,8,10)           173.5371                                         !
 ! D37   D(7,6,8,10)            -7.475                                          !
 ! D38   D(3,17,18,19)        -137.1042                                         !
 ! D39   D(3,17,18,21)          98.7967                                         !
 ! D40   D(3,17,18,29)         -20.0299                                         !
 ! D41   D(28,17,18,19)         55.957                                          !
 ! D42   D(28,17,18,21)        -68.1422                                         !
 ! D43   D(28,17,18,29)        173.0313                                         !
 ! D44   D(17,18,19,20)       -123.4139                                         !
 ! D45   D(17,18,19,37)         57.3809                                         !
 ! D46   D(21,18,19,20)          1.6548                                         !
 ! D47   D(21,18,19,37)       -177.5504                                         !
 ! D48   D(29,18,19,20)        121.3387                                         !
 ! D49   D(29,18,19,37)        -57.8664                                         !
 ! D50   D(17,18,21,22)        -38.9647                                         !
 ! D51   D(17,18,21,30)         83.3665                                         !
 ! D52   D(17,18,21,31)       -162.8902                                         !
 ! D53   D(19,18,21,22)       -164.0536                                         !
 ! D54   D(19,18,21,30)        -41.7223                                         !
 ! D55   D(19,18,21,31)         72.021                                          !
 ! D56   D(29,18,21,22)         77.1653                                         !
 ! D57   D(29,18,21,30)       -160.5034                                         !
 ! D58   D(29,18,21,31)        -46.7601                                         !
 ! D59   D(18,19,37,38)        -11.5572                                         !
 ! D60   D(18,19,37,45)       -173.7118                                         !
 ! D61   D(20,19,37,38)        169.2404                                         !
 ! D62   D(20,19,37,45)          7.0857                                         !
 ! D63   D(18,21,22,23)        -58.0497                                         !
 ! D64   D(18,21,22,24)        121.7552                                         !
 ! D65   D(30,21,22,23)        179.7905                                         !
 ! D66   D(30,21,22,24)         -0.4047                                         !
 ! D67   D(31,21,22,23)         64.0767                                         !
 ! D68   D(31,21,22,24)       -116.1184                                         !
 ! D69   D(21,22,23,25)        179.3551                                         !
 ! D70   D(21,22,23,32)          0.6896                                         !
 ! D71   D(24,22,23,25)         -0.4525                                         !
 ! D72   D(24,22,23,32)       -179.118                                          !
 ! D73   D(21,22,24,26)       -179.9703                                         !
 ! D74   D(21,22,24,33)          1.2542                                         !
 ! D75   D(23,22,24,26)         -0.1584                                         !
 ! D76   D(23,22,24,33)       -178.9339                                         !
 ! D77   D(22,23,25,27)          0.6327                                         !
 ! D78   D(22,23,25,34)        179.9571                                         !
 ! D79   D(32,23,25,27)        179.3036                                         !
 ! D80   D(32,23,25,34)         -1.372                                          !
 ! D81   D(22,24,26,27)          0.5918                                         !
 ! D82   D(22,24,26,35)       -178.7777                                         !
 ! D83   D(33,24,26,27)        179.3647                                         !
 ! D84   D(33,24,26,35)         -0.0047                                         !
 ! D85   D(23,25,27,26)         -0.1933                                         !
 ! D86   D(23,25,27,36)        178.8534                                         !
 ! D87   D(34,25,27,26)       -179.5141                                         !
 ! D88   D(34,25,27,36)         -0.4673                                         !
 ! D89   D(24,26,27,25)         -0.4111                                         !
 ! D90   D(24,26,27,36)       -179.4567                                         !
 ! D91   D(35,26,27,25)        178.956                                          !
 ! D92   D(35,26,27,36)         -0.0896                                         !
 ! D93   D(19,37,38,39)        -81.3129                                         !
 ! D94   D(19,37,38,41)        153.8271                                         !
 ! D95   D(19,37,38,46)         35.8935                                         !
 ! D96   D(45,37,38,39)         80.7071                                         !
 ! D97   D(45,37,38,41)        -44.153                                          !
 ! D98   D(45,37,38,46)       -162.0865                                         !
 ! D99   D(37,38,39,40)        167.3817                                         !
 ! D100  D(37,38,39,51)        -10.8357                                         !
 ! D101  D(41,38,39,40)        -66.8434                                         !
 ! D102  D(41,38,39,51)        114.9392                                         !
 ! D103  D(46,38,39,40)         47.6035                                         !
 ! D104  D(46,38,39,51)       -130.6139                                         !
 ! D105  D(37,38,41,42)         62.2888                                         !
 ! D106  D(37,38,41,47)        -59.5016                                         !
 ! D107  D(37,38,41,48)       -176.1843                                         !
 ! D108  D(39,38,41,42)        -65.0625                                         !
 ! D109  D(39,38,41,47)        173.1471                                         !
 ! D110  D(39,38,41,48)         56.4644                                         !
 ! D111  D(46,38,41,42)       -178.246                                          !
 ! D112  D(46,38,41,47)         59.9636                                         !
 ! D113  D(46,38,41,48)        -56.7191                                         !
 ! D114  D(38,39,51,52)       -177.4912                                         !
 ! D115  D(38,39,51,64)        -14.14                                           !
 ! D116  D(40,39,51,52)          4.369                                          !
 ! D117  D(40,39,51,64)        167.7202                                         !
 ! D118  D(38,41,42,43)        173.2084                                         !
 ! D119  D(38,41,42,44)         -6.9772                                         !
 ! D120  D(47,41,42,43)        -65.1028                                         !
 ! D121  D(47,41,42,44)        114.7116                                         !
 ! D122  D(48,41,42,43)         52.719                                          !
 ! D123  D(48,41,42,44)       -127.4666                                         !
 ! D124  D(41,42,43,49)        176.7651                                         !
 ! D125  D(41,42,43,50)          0.8803                                         !
 ! D126  D(44,42,43,49)         -3.048                                          !
 ! D127  D(44,42,43,50)       -178.9327                                         !
 ! D128  D(39,51,52,53)       -114.4631                                         !
 ! D129  D(39,51,52,55)        112.4494                                         !
 ! D130  D(39,51,52,65)         -3.8728                                         !
 ! D131  D(64,51,52,53)         81.9782                                         !
 ! D132  D(64,51,52,55)        -51.1094                                         !
 ! D133  D(64,51,52,65)       -167.4315                                         !
 ! D134  D(51,52,53,54)         28.0752                                         !
 ! D135  D(51,52,53,62)       -166.7445                                         !
 ! D136  D(55,52,53,54)        158.9464                                         !
 ! D137  D(55,52,53,62)        -35.8733                                         !
 ! D138  D(65,52,53,54)        -84.1577                                         !
 ! D139  D(65,52,53,62)         81.0227                                         !
 ! D140  D(51,52,55,56)         52.1927                                         !
 ! D141  D(51,52,55,66)        179.2554                                         !
 ! D142  D(51,52,55,67)        -68.3951                                         !
 ! D143  D(53,52,55,56)        -77.5065                                         !
 ! D144  D(53,52,55,66)         49.5561                                         !
 ! D145  D(53,52,55,67)        161.9056                                         !
 ! D146  D(65,52,55,56)        167.7229                                         !
 ! D147  D(65,52,55,66)        -65.2144                                         !
 ! D148  D(65,52,55,67)         47.1351                                         !
 ! D149  D(52,53,62,63)         15.5777                                         !
 ! D150  D(54,53,62,63)       -178.3309                                         !
 ! D151  D(52,55,56,57)         62.6532                                         !
 ! D152  D(52,55,56,68)       -177.1228                                         !
 ! D153  D(52,55,56,69)        -61.8046                                         !
 ! D154  D(66,55,56,57)        -64.0442                                         !
 ! D155  D(66,55,56,68)         56.1798                                         !
 ! D156  D(66,55,56,69)        171.498                                          !
 ! D157  D(67,55,56,57)       -178.2164                                         !
 ! D158  D(67,55,56,68)        -57.9924                                         !
 ! D159  D(67,55,56,69)         57.3258                                         !
 ! D160  D(55,56,57,58)        -57.1631                                         !
 ! D161  D(55,56,57,70)         61.41                                           !
 ! D162  D(55,56,57,71)        179.4495                                         !
 ! D163  D(68,56,57,58)       -177.469                                          !
 ! D164  D(68,56,57,70)        -58.8959                                         !
 ! D165  D(68,56,57,71)         59.1435                                         !
 ! D166  D(69,56,57,58)         67.5324                                         !
 ! D167  D(69,56,57,70)       -173.8945                                         !
 ! D168  D(69,56,57,71)        -55.8551                                         !
 ! D169  D(56,57,58,59)        -75.8411                                         !
 ! D170  D(56,57,58,72)        152.4582                                         !
 ! D171  D(70,57,58,59)        163.3969                                         !
 ! D172  D(70,57,58,72)         31.6962                                         !
 ! D173  D(71,57,58,59)         46.6996                                         !
 ! D174  D(71,57,58,72)        -85.0011                                         !
 ! D175  D(57,58,59,60)         16.6086                                         !
 ! D176  D(57,58,59,61)       -163.9294                                         !
 ! D177  D(72,58,59,60)        148.6989                                         !
 ! D178  D(72,58,59,61)        -31.839                                          !
 ! D179  D(58,59,60,73)        175.6449                                         !
 ! D180  D(61,59,60,73)         -3.7273                                         !
 ! D181  D(58,59,61,74)       -166.6794                                         !
 ! D182  D(58,59,61,75)        -33.9342                                         !
 ! D183  D(60,59,61,74)         12.7296                                         !
 ! D184  D(60,59,61,75)        145.4748                                         !
 --------------------------------------------------------------------------------
 Symmetry turned off by external request.
 Stoichiometry    C23H36N9O7(1+)
 Framework group  C1[X(C23H36N9O7)]
 Deg. of freedom   219
 Full point group                 C1      NOp   1
                          Input orientation:                          
 ---------------------------------------------------------------------
 Center     Atomic      Atomic             Coordinates (Angstroms)
 Number     Number       Type             X           Y           Z
 ---------------------------------------------------------------------
      1          7           0       -9.259065    0.661356   -6.754846
      2          6           0       -7.929447    1.106091   -6.323758
      3          6           0       -6.793730    0.869820   -7.342159
      4          8           0       -6.333949    1.806482   -7.983618
      5          6           0       -7.579932    0.461099   -4.946907
      6          6           0       -8.832322    0.291231   -4.163627
      7          7           0       -9.421504   -0.873602   -4.080423
      8          8           0       -9.277636    1.364833   -3.561998
      9          1           0       -9.199170   -0.298644   -7.082385
     10          1           0      -10.149321    1.256969   -3.137237
     11          1           0       -7.970147    2.189151   -6.193254
     12          1           0       -7.105219   -0.511965   -5.061657
     13          1           0       -6.880969    1.097179   -4.396851
     14          1           0      -10.312312   -1.003516   -3.611670
     15          1           0       -9.089473   -1.636469   -4.696259
     16          1           0       -9.533670    1.187995   -7.583025
     17          7           0       -6.355038   -0.419472   -7.494636
     18          6           0       -5.045133   -0.688175   -8.082396
     19          6           0       -5.094662   -1.856725   -9.087950
     20          8           0       -4.364978   -2.839384   -8.940988
     21          6           0       -3.970898   -0.962814   -6.997882
     22          6           0       -4.091396   -0.089866   -5.767225
     23          6           0       -4.045285    1.310131   -5.843619
     24          6           0       -4.258377   -0.682094   -4.507576
     25          6           0       -4.172242    2.092397   -4.694721
     26          6           0       -4.373309    0.095641   -3.352605
     27          6           0       -4.334827    1.488690   -3.443476
     28          1           0       -6.836209   -1.178652   -7.025081
     29          1           0       -4.787210    0.222360   -8.631755
     30          1           0       -4.029728   -2.012673   -6.700332
     31          1           0       -2.986480   -0.849054   -7.466603
     32          1           0       -3.931181    1.794650   -6.808439
     33          1           0       -4.278829   -1.767303   -4.427562
     34          1           0       -4.132983    3.175015   -4.776324
     35          1           0       -4.482150   -0.386414   -2.384572
     36          1           0       -4.414806    2.099184   -2.548242
     37          7           0       -5.946637   -1.773009  -10.146921
     38          6           0       -7.017295   -0.811411  -10.366270
     39          6           0       -8.327585   -1.145631   -9.625344
     40          8           0       -9.212452   -0.294223   -9.548150
     41          6           0       -7.304312   -0.623962  -11.865932
     42          6           0       -7.783371   -1.912574  -12.537994
     43          7           0       -8.189897   -1.783286  -13.822931
     44          8           0       -7.792363   -2.991626  -11.944930
     45          1           0       -5.999993   -2.618109  -10.710343
     46          1           0       -6.715238    0.163664   -9.977077
     47          1           0       -6.395815   -0.267627  -12.366150
     48          1           0       -8.065998    0.156306  -11.971032
     49          1           0       -8.468982   -2.613708  -14.327831
     50          1           0       -8.168853   -0.902957  -14.316455
     51          7           0       -8.420570   -2.376544   -9.054403
     52          6           0       -9.628234   -2.796030   -8.387507
     53          6           0       -9.369842   -2.986898   -6.889308
     54          8           0       -8.503259   -2.366275   -6.267746
     55          6           0      -10.356703   -3.942802   -9.129422
     56          6           0       -9.526903   -5.182019   -9.487399
     57          6           0       -8.949785   -5.964994   -8.304149
     58          7           0       -8.095898   -5.150437   -7.419371
     59          6           0       -6.796273   -4.829618   -7.855666
     60          7           0       -6.492962   -4.958629   -9.095455
     61          7           0       -5.980454   -4.381188   -6.822118
     62          8           0      -10.298838   -3.629128   -6.167029
     63          1           0      -10.915597   -4.105651   -6.750153
     64          1           0       -7.745121   -3.094035   -9.310659
     65          1           0      -10.298578   -1.921950   -8.413887
     66          1           0      -11.263439   -4.232464   -8.570590
     67          1           0      -10.731860   -3.500148  -10.057975
     68          1           0      -10.176376   -5.865241  -10.048360
     69          1           0       -8.717459   -4.902050  -10.165045
     70          1           0       -9.764725   -6.344468   -7.674251
     71          1           0       -8.390311   -6.826098   -8.688204
     72          1           0       -8.089274   -5.499123   -6.465899
     73          1           0       -5.545401   -4.622646   -9.273249
     74          1           0       -5.122789   -3.948187   -7.149841
     75          1           0       -6.450154   -3.845954   -6.099980
 ---------------------------------------------------------------------
 Rotational constants (GHZ):           0.1357168           0.0809157           0.0725687
 Standard basis: 6-31G(d) (6D, 7F)
   657 basis functions,  1236 primitive gaussians,   657 cartesian basis functions
   146 alpha electrons      146 beta electrons
       nuclear repulsion energy      5234.2078825619 Hartrees.
 NAtoms=   75 NActive=   75 NUniq=   75 SFac= 1.00D+00 NAtFMM=   60 NAOKFM=T Big=T
 Integral buffers will be    131072 words long.
 Raffenetti 2 integral format.
 Two-electron integral symmetry is turned off.
 Nuclear repulsion after empirical dispersion term =     5234.0787669497 Hartrees.
 One-electron integrals computed using PRISM.
 NBasis=   657 RedAO= T EigKep=  4.59D-04  NBF=   657
 NBsUse=   657 1.00D-06 EigRej= -1.00D+00 NBFU=   657
 Initial guess from the checkpoint file:  "conf-322.chk"
 B after Tr=     0.000000    0.000000    0.000000
         Rot=    1.000000    0.000000    0.000000    0.000000 Ang=   0.00 deg.
 Requested convergence on RMS density matrix=1.00D-08 within 128 cycles.
 Requested convergence on MAX density matrix=1.00D-06.
 Requested convergence on             energy=1.00D-06.
 No special actions if energy rises.
 SCF Done:  E(RB3LYP) =  -1917.44976239     A.U. after    3 cycles
            NFock=  3  Conv=0.11D-08     -V/T= 2.0093

 **********************************************************************

            Population analysis using the SCF Density.

 **********************************************************************

 Alpha  occ. eigenvalues --  -19.38147 -19.33044 -19.27818 -19.21779 -19.21713
 Alpha  occ. eigenvalues --  -19.21476 -19.21076 -14.54634 -14.45905 -14.45764
 Alpha  occ. eigenvalues --  -14.45392 -14.45052 -14.44702 -14.43172 -14.42816
 Alpha  occ. eigenvalues --  -14.36910 -10.49694 -10.46179 -10.38823 -10.38803
 Alpha  occ. eigenvalues --  -10.38783 -10.38734 -10.36961 -10.35465 -10.34502
 Alpha  occ. eigenvalues --  -10.33633 -10.33296 -10.33141 -10.30975 -10.30362
 Alpha  occ. eigenvalues --  -10.29778 -10.28406 -10.27896 -10.27652 -10.27558
 Alpha  occ. eigenvalues --  -10.27463 -10.27407 -10.27166 -10.27104  -1.27993
 Alpha  occ. eigenvalues --   -1.24016  -1.15297  -1.14050  -1.13594  -1.13151
 Alpha  occ. eigenvalues --   -1.12707  -1.11154  -1.06665  -1.03586  -1.02752
 Alpha  occ. eigenvalues --   -1.01591  -1.00395  -0.99854  -0.97756  -0.94070
 Alpha  occ. eigenvalues --   -0.92886  -0.91682  -0.89949  -0.87947  -0.87391
 Alpha  occ. eigenvalues --   -0.84303  -0.83386  -0.82834  -0.81470  -0.78228
 Alpha  occ. eigenvalues --   -0.77578  -0.77124  -0.75864  -0.75158  -0.74636
 Alpha  occ. eigenvalues --   -0.71135  -0.70707  -0.69744  -0.69387  -0.68762
 Alpha  occ. eigenvalues --   -0.68080  -0.67782  -0.66858  -0.66711  -0.65617
 Alpha  occ. eigenvalues --   -0.64180  -0.63252  -0.63027  -0.62727  -0.62000
 Alpha  occ. eigenvalues --   -0.60701  -0.60499  -0.59666  -0.59359  -0.59144
 Alpha  occ. eigenvalues --   -0.58924  -0.57688  -0.57364  -0.56610  -0.56135
 Alpha  occ. eigenvalues --   -0.55976  -0.55705  -0.54883  -0.54599  -0.54541
 Alpha  occ. eigenvalues --   -0.54254  -0.53629  -0.53545  -0.53275  -0.52958
 Alpha  occ. eigenvalues --   -0.52639  -0.51474  -0.51382  -0.51059  -0.50548
 Alpha  occ. eigenvalues --   -0.50298  -0.50122  -0.50007  -0.49641  -0.48931
 Alpha  occ. eigenvalues --   -0.48631  -0.48296  -0.47814  -0.47333  -0.47046
 Alpha  occ. eigenvalues --   -0.46397  -0.46272  -0.45743  -0.45294  -0.44963
 Alpha  occ. eigenvalues --   -0.44648  -0.44130  -0.43912  -0.42975  -0.42364
 Alpha  occ. eigenvalues --   -0.42040  -0.41774  -0.38594  -0.38333  -0.36927
 Alpha  occ. eigenvalues --   -0.36378  -0.36029  -0.35350  -0.35049  -0.34751
 Alpha  occ. eigenvalues --   -0.34278  -0.33615  -0.33533  -0.33259  -0.32944
 Alpha  occ. eigenvalues --   -0.31913
 Alpha virt. eigenvalues --   -0.17379  -0.12642  -0.10245  -0.09250  -0.09062
 Alpha virt. eigenvalues --   -0.08648  -0.08314  -0.08047  -0.06699  -0.06409
 Alpha virt. eigenvalues --   -0.04797  -0.04415  -0.02691  -0.00814  -0.00243
 Alpha virt. eigenvalues --    0.00141   0.00629   0.01057   0.01617   0.02247
 Alpha virt. eigenvalues --    0.02846   0.03274   0.03535   0.03856   0.04533
 Alpha virt. eigenvalues --    0.05171   0.05419   0.05649   0.06139   0.06328
 Alpha virt. eigenvalues --    0.06475   0.06918   0.07247   0.07370   0.07812
 Alpha virt. eigenvalues --    0.08088   0.08468   0.08650   0.09024   0.09247
 Alpha virt. eigenvalues --    0.09684   0.09830   0.10005   0.10457   0.10584
 Alpha virt. eigenvalues --    0.10947   0.11359   0.11528   0.11705   0.12147
 Alpha virt. eigenvalues --    0.12900   0.13506   0.13927   0.14018   0.14841
 Alpha virt. eigenvalues --    0.15320   0.15953   0.16134   0.16717   0.17391
 Alpha virt. eigenvalues --    0.17679   0.18210   0.18979   0.19386   0.19775
 Alpha virt. eigenvalues --    0.21229   0.22258   0.23005   0.23879   0.24371
 Alpha virt. eigenvalues --    0.24799   0.25217   0.25469   0.26477   0.27281
 Alpha virt. eigenvalues --    0.27937   0.28164   0.29300   0.29688   0.30698
 Alpha virt. eigenvalues --    0.33027   0.34785   0.35726   0.36538   0.37246
 Alpha virt. eigenvalues --    0.37600   0.38034   0.38447   0.39937   0.40661
 Alpha virt. eigenvalues --    0.41751   0.41895   0.42187   0.42435   0.43576
 Alpha virt. eigenvalues --    0.44320   0.44673   0.45311   0.45690   0.46089
 Alpha virt. eigenvalues --    0.46480   0.47183   0.47395   0.47857   0.48147
 Alpha virt. eigenvalues --    0.48725   0.49013   0.49435   0.50005   0.50265
 Alpha virt. eigenvalues --    0.50566   0.51321   0.51622   0.52100   0.52181
 Alpha virt. eigenvalues --    0.52895   0.52980   0.53384   0.53606   0.53703
 Alpha virt. eigenvalues --    0.54507   0.54680   0.55468   0.56179   0.56393
 Alpha virt. eigenvalues --    0.56918   0.57148   0.57484   0.57778   0.57946
 Alpha virt. eigenvalues --    0.58710   0.58976   0.59180   0.59739   0.60283
 Alpha virt. eigenvalues --    0.60711   0.61181   0.61382   0.62119   0.62522
 Alpha virt. eigenvalues --    0.63358   0.64038   0.64239   0.64823   0.65481
 Alpha virt. eigenvalues --    0.65874   0.66091   0.66290   0.66696   0.67673
 Alpha virt. eigenvalues --    0.68057   0.68655   0.69278   0.70153   0.70565
 Alpha virt. eigenvalues --    0.71641   0.71859   0.72484   0.73025   0.73690
 Alpha virt. eigenvalues --    0.74098   0.74211   0.74642   0.75381   0.75571
 Alpha virt. eigenvalues --    0.76117   0.76474   0.76622   0.76802   0.77708
 Alpha virt. eigenvalues --    0.77810   0.77890   0.78734   0.78967   0.79183
 Alpha virt. eigenvalues --    0.79408   0.79468   0.79998   0.80156   0.81229
 Alpha virt. eigenvalues --    0.81295   0.81854   0.82147   0.82291   0.83468
 Alpha virt. eigenvalues --    0.83578   0.83940   0.84112   0.84864   0.85378
 Alpha virt. eigenvalues --    0.85650   0.85823   0.86564   0.86663   0.87216
 Alpha virt. eigenvalues --    0.87445   0.87640   0.88443   0.88692   0.89656
 Alpha virt. eigenvalues --    0.90073   0.90980   0.91208   0.91445   0.91867
 Alpha virt. eigenvalues --    0.92563   0.93588   0.93660   0.94715   0.96525
 Alpha virt. eigenvalues --    0.96861   0.97043   0.97867   0.98573   0.99767
 Alpha virt. eigenvalues --    1.00380   1.00831   1.01074   1.02134   1.02485
 Alpha virt. eigenvalues --    1.02969   1.03631   1.04267   1.05622   1.06576
 Alpha virt. eigenvalues --    1.07068   1.07459   1.09080   1.09576   1.10267
 Alpha virt. eigenvalues --    1.10381   1.11589   1.11834   1.12881   1.13644
 Alpha virt. eigenvalues --    1.14353   1.14876   1.15614   1.16476   1.16878
 Alpha virt. eigenvalues --    1.17877   1.18238   1.18472   1.19287   1.19560
 Alpha virt. eigenvalues --    1.20049   1.20959   1.21897   1.23006   1.24353
 Alpha virt. eigenvalues --    1.25611   1.26456   1.27102   1.27540   1.28835
 Alpha virt. eigenvalues --    1.29192   1.30400   1.30747   1.31784   1.32015
 Alpha virt. eigenvalues --    1.32961   1.33295   1.34325   1.34610   1.34853
 Alpha virt. eigenvalues --    1.35860   1.36530   1.37669   1.39159   1.39498
 Alpha virt. eigenvalues --    1.40174   1.41089   1.41680   1.42394   1.42519
 Alpha virt. eigenvalues --    1.43175   1.44432   1.45029   1.45609   1.46761
 Alpha virt. eigenvalues --    1.47053   1.48271   1.49985   1.50841   1.51763
 Alpha virt. eigenvalues --    1.52913   1.53070   1.54012   1.54772   1.55990
 Alpha virt. eigenvalues --    1.56543   1.57209   1.57736   1.57865   1.59319
 Alpha virt. eigenvalues --    1.60018   1.60884   1.61276   1.62836   1.63147
 Alpha virt. eigenvalues --    1.63860   1.64163   1.65397   1.66233   1.66454
 Alpha virt. eigenvalues --    1.67559   1.68099   1.68239   1.68806   1.68866
 Alpha virt. eigenvalues --    1.70496   1.70778   1.71194   1.71606   1.72627
 Alpha virt. eigenvalues --    1.72969   1.73505   1.73913   1.74194   1.74756
 Alpha virt. eigenvalues --    1.75188   1.76628   1.77111   1.77642   1.77976
 Alpha virt. eigenvalues --    1.78688   1.79204   1.79655   1.80260   1.81014
 Alpha virt. eigenvalues --    1.81259   1.81450   1.82804   1.83144   1.83705
 Alpha virt. eigenvalues --    1.84538   1.85720   1.86010   1.86568   1.86865
 Alpha virt. eigenvalues --    1.87807   1.88451   1.88827   1.89725   1.90152
 Alpha virt. eigenvalues --    1.90494   1.91086   1.91223   1.92857   1.93511
 Alpha virt. eigenvalues --    1.93820   1.95238   1.95848   1.96061   1.96806
 Alpha virt. eigenvalues --    1.96932   1.98151   1.98366   1.99693   1.99879
 Alpha virt. eigenvalues --    2.00336   2.00820   2.03466   2.03908   2.05083
 Alpha virt. eigenvalues --    2.05691   2.06486   2.06907   2.07085   2.07466
 Alpha virt. eigenvalues --    2.08721   2.09374   2.10607   2.11132   2.11880
 Alpha virt. eigenvalues --    2.12299   2.12865   2.14046   2.14882   2.15502
 Alpha virt. eigenvalues --    2.16232   2.16781   2.17027   2.18272   2.18610
 Alpha virt. eigenvalues --    2.18788   2.19577   2.19784   2.20490   2.21811
 Alpha virt. eigenvalues --    2.21917   2.23265   2.25301   2.25533   2.26443
 Alpha virt. eigenvalues --    2.27751   2.29922   2.30260   2.30742   2.31553
 Alpha virt. eigenvalues --    2.31935   2.32327   2.33345   2.34064   2.34529
 Alpha virt. eigenvalues --    2.35113   2.36068   2.36565   2.37753   2.38153
 Alpha virt. eigenvalues --    2.39068   2.39626   2.40734   2.42351   2.42585
 Alpha virt. eigenvalues --    2.45220   2.46007   2.46960   2.47591   2.48694
 Alpha virt. eigenvalues --    2.48771   2.50486   2.50764   2.51393   2.51666
 Alpha virt. eigenvalues --    2.52031   2.53375   2.53600   2.54155   2.54630
 Alpha virt. eigenvalues --    2.56017   2.56652   2.57604   2.59201   2.59599
 Alpha virt. eigenvalues --    2.60749   2.61291   2.62141   2.63725   2.64225
 Alpha virt. eigenvalues --    2.64921   2.66574   2.66862   2.67290   2.67688
 Alpha virt. eigenvalues --    2.69771   2.70382   2.71171   2.73766   2.74777
 Alpha virt. eigenvalues --    2.76465   2.77654   2.79569   2.83625   2.85605
 Alpha virt. eigenvalues --    2.85857   2.87443   2.90277   2.91821   2.92099
 Alpha virt. eigenvalues --    2.93573   2.94041   2.94549   2.94964   2.96652
 Alpha virt. eigenvalues --    2.98782   3.00049   3.00500   3.04761   3.07093
 Alpha virt. eigenvalues --    3.10822   3.32582   3.69159   3.72312   3.79717
 Alpha virt. eigenvalues --    3.80775   3.82589   3.87916   3.90641   3.93005
 Alpha virt. eigenvalues --    3.95390   4.00044   4.00260   4.02191   4.06014
 Alpha virt. eigenvalues --    4.06153   4.09448   4.11092   4.13163   4.14734
 Alpha virt. eigenvalues --    4.16780   4.17632   4.20978   4.23284   4.25318
 Alpha virt. eigenvalues --    4.28890   4.30668   4.31335   4.33222   4.33884
 Alpha virt. eigenvalues --    4.39199   4.42065   4.42698   4.42960   4.48329
 Alpha virt. eigenvalues --    4.53054   4.57292   4.59551   4.63964   4.66142
 Alpha virt. eigenvalues --    4.72949
          Condensed to atoms (all electrons):
 Mulliken charges:
               1
     1  N   -0.765608
     2  C   -0.074862
     3  C    0.635788
     4  O   -0.518850
     5  C   -0.381738
     6  C    0.649129
     7  N   -0.707820
     8  O   -0.506334
     9  H    0.329381
    10  H    0.448973
    11  H    0.199745
    12  H    0.194362
    13  H    0.237264
    14  H    0.374194
    15  H    0.432751
    16  H    0.352237
    17  N   -0.643564
    18  C   -0.074615
    19  C    0.615674
    20  O   -0.527080
    21  C   -0.363915
    22  C    0.172516
    23  C   -0.182996
    24  C   -0.210169
    25  C   -0.140712
    26  C   -0.134524
    27  C   -0.148119
    28  H    0.362993
    29  H    0.211655
    30  H    0.155075
    31  H    0.190084
    32  H    0.160881
    33  H    0.128972
    34  H    0.154476
    35  H    0.142172
    36  H    0.147625
    37  N   -0.622035
    38  C   -0.060389
    39  C    0.643499
    40  O   -0.557173
    41  C   -0.391828
    42  C    0.606664
    43  N   -0.740670
    44  O   -0.524326
    45  H    0.372673
    46  H    0.209338
    47  H    0.197913
    48  H    0.205314
    49  H    0.360906
    50  H    0.355867
    51  N   -0.619145
    52  C   -0.091176
    53  C    0.691064
    54  O   -0.556454
    55  C   -0.304906
    56  C   -0.292713
    57  C   -0.128928
    58  N   -0.642825
    59  C    0.581372
    60  N   -0.671332
    61  N   -0.787352
    62  O   -0.577211
    63  H    0.436466
    64  H    0.401700
    65  H    0.212874
    66  H    0.120254
    67  H    0.192151
    68  H    0.160237
    69  H    0.231339
    70  H    0.129793
    71  H    0.188495
    72  H    0.336572
    73  H    0.323782
    74  H    0.371993
    75  H    0.323158
 Sum of Mulliken charges =   1.00000
 Mulliken charges with hydrogens summed into heavy atoms:
               1
     1  N   -0.083989
     2  C    0.124883
     3  C    0.635788
     4  O   -0.518850
     5  C    0.049888
     6  C    0.649129
     7  N    0.099125
     8  O   -0.057360
    17  N   -0.280571
    18  C    0.137040
    19  C    0.615674
    20  O   -0.527080
    21  C   -0.018756
    22  C    0.172516
    23  C   -0.022115
    24  C   -0.081197
    25  C    0.013764
    26  C    0.007648
    27  C   -0.000494
    37  N   -0.249362
    38  C    0.148949
    39  C    0.643499
    40  O   -0.557173
    41  C    0.011399
    42  C    0.606664
    43  N   -0.023897
    44  O   -0.524326
    51  N   -0.217445
    52  C    0.121698
    53  C    0.691064
    54  O   -0.556454
    55  C    0.007498
    56  C    0.098863
    57  C    0.189360
    58  N   -0.306253
    59  C    0.581372
    60  N   -0.347551
    61  N   -0.092200
    62  O   -0.140745
 Electronic spatial extent (au):  <R**2>=         135284.9089
 Charge=              1.0000 electrons
 Dipole moment (field-independent basis, Debye):
    X=            -45.1216    Y=             -5.8387    Z=            -30.6785  Tot=             54.8746
 Quadrupole moment (field-independent basis, Debye-Ang):
   XX=            211.9653   YY=           -201.2054   ZZ=             66.0984
   XY=             72.6535   XZ=            283.0002   YZ=             46.9193
 Traceless Quadrupole moment (field-independent basis, Debye-Ang):
   XX=            186.3459   YY=           -226.8248   ZZ=             40.4789
   XY=             72.6535   XZ=            283.0002   YZ=             46.9193
 Octapole moment (field-independent basis, Debye-Ang**2):
  XXX=            494.5422  YYY=            897.8505  ZZZ=           1584.3786  XYY=           1298.3622
  XXY=           -472.6391  XXZ=           -952.0869  XZZ=           -975.8525  YZZ=            -67.4628
  YYZ=           1596.7070  XYZ=           -597.3404
 Hexadecapole moment (field-independent basis, Debye-Ang**3):
 XXXX=         -31057.0709 YYYY=          -9103.8920 ZZZZ=         -38696.4006 XXXY=            386.5361
 XXXZ=         -11951.5895 YYYX=          -6759.6381 YYYZ=          -8534.8461 ZZZX=          -6960.9586
 ZZZY=          -5074.0996 XXYY=         -10455.2317 XXZZ=          -3767.3386 YYZZ=         -15691.1122
 XXYZ=           3646.4659 YYXZ=         -10488.6098 ZZXY=           2428.0430
 N-N= 5.234078766950D+03 E-N=-1.490874939565D+04  KE= 1.899797134586D+03
 Unable to Open any file for archive entry.
 1\1\GINC-SKL-139\SP\RB3LYP\6-31G(d)\C23H36N9O7(1+)\KENGMITH\07-Jun-202
 2\0\\# B3LYP/6-31G* empiricaldispersion=gd3 guess=read geom=check nosy
 mm integral(ultrafinegrid)\\Candidate Structure: Conf:322 Charge calc 
 in gas phase\\1,1\N,0,-9.2590653043,0.6613563395,-6.7548460069\C,0,-7.
 9294473253,1.1060905937,-6.3237576073\C,0,-6.7937299691,0.8698200675,-
 7.3421587795\O,0,-6.3339485679,1.8064821031,-7.9836178497\C,0,-7.57993
 21336,0.4610992129,-4.9469067663\C,0,-8.832321586,0.2912306016,-4.1636
 271204\N,0,-9.4215040537,-0.8736022169,-4.08042329\O,0,-9.2776357009,1
 .3648327671,-3.5619983612\H,0,-9.1991697434,-0.2986437131,-7.082384840
 6\H,0,-10.1493208553,1.2569688545,-3.1372368884\H,0,-7.970147356,2.189
 1512623,-6.1932542315\H,0,-7.1052188232,-0.5119645498,-5.0616567998\H,
 0,-6.8809687853,1.0971791153,-4.3968511922\H,0,-10.3123119242,-1.00351
 61874,-3.6116696005\H,0,-9.089473342,-1.6364687484,-4.6962592511\H,0,-
 9.5336703499,1.1879949609,-7.5830251552\N,0,-6.3550383401,-0.419472199
 7,-7.4946356369\C,0,-5.0451325728,-0.6881746012,-8.0823956264\C,0,-5.0
 946617552,-1.8567245783,-9.087950432\O,0,-4.3649775093,-2.839383655,-8
 .9409880624\C,0,-3.9708982044,-0.9628138186,-6.9978817406\C,0,-4.09139
 64298,-0.0898656437,-5.7672248157\C,0,-4.0452851682,1.3101306268,-5.84
 36185573\C,0,-4.2583770012,-0.6820940828,-4.507575531\C,0,-4.172241940
 6,2.0923965497,-4.694721284\C,0,-4.373309237,0.0956410498,-3.352604683
 8\C,0,-4.3348274486,1.4886902025,-3.4434761348\H,0,-6.8362092606,-1.17
 8652211,-7.0250807138\H,0,-4.7872095871,0.2223603421,-8.6317551667\H,0
 ,-4.0297278021,-2.0126728932,-6.7003318316\H,0,-2.986479585,-0.8490536
 112,-7.4666027523\H,0,-3.9311813239,1.79465044,-6.808439262\H,0,-4.278
 8290785,-1.7673026682,-4.4275616452\H,0,-4.1329826678,3.175014688,-4.7
 763241309\H,0,-4.4821499392,-0.386413611,-2.384572252\H,0,-4.414805798
 7,2.0991838904,-2.5482418637\N,0,-5.9466367216,-1.7730094275,-10.14692
 08502\C,0,-7.0172948336,-0.8114111614,-10.366270198\C,0,-8.3275852119,
 -1.1456314067,-9.6253435544\O,0,-9.2124523279,-0.2942230428,-9.5481501
 624\C,0,-7.3043115928,-0.6239615799,-11.8659318367\C,0,-7.7833708646,-
 1.9125735705,-12.5379944797\N,0,-8.1898965934,-1.7832856537,-13.822931
 2527\O,0,-7.7923634678,-2.9916259417,-11.9449299475\H,0,-5.9999926018,
 -2.6181086103,-10.7103433388\H,0,-6.7152382175,0.1636640742,-9.9770772
 043\H,0,-6.3958152484,-0.2676270518,-12.366150395\H,0,-8.065997815,0.1
 563063931,-11.971031566\H,0,-8.4689819689,-2.6137080368,-14.3278310154
 \H,0,-8.168853025,-0.9029568852,-14.3164550312\N,0,-8.4205700074,-2.37
 65439516,-9.054403306\C,0,-9.6282337991,-2.7960299094,-8.3875072472\C,
 0,-9.3698417397,-2.9868981232,-6.8893083789\O,0,-8.5032586276,-2.36627
 52112,-6.2677458283\C,0,-10.3567028955,-3.9428020949,-9.1294222353\C,0
 ,-9.5269027627,-5.1820188731,-9.487398591\C,0,-8.9497851794,-5.9649936
 128,-8.3041485907\N,0,-8.0958979963,-5.1504366962,-7.4193711686\C,0,-6
 .7962733966,-4.8296178511,-7.8556663636\N,0,-6.4929620876,-4.958628952
 8,-9.0954548895\N,0,-5.9804537605,-4.3811875602,-6.8221182766\O,0,-10.
 2988380938,-3.6291278824,-6.1670289703\H,0,-10.9155973774,-4.105651277
 5,-6.7501528684\H,0,-7.7451206521,-3.0940352619,-9.3106585233\H,0,-10.
 2985780024,-1.9219499887,-8.4138867705\H,0,-11.2634394691,-4.232463613
 ,-8.57059033\H,0,-10.7318595339,-3.5001482976,-10.0579748491\H,0,-10.1
 763764401,-5.8652412673,-10.0483595334\H,0,-8.7174594926,-4.9020501384
 ,-10.1650445168\H,0,-9.7647245118,-6.3444684811,-7.6742512616\H,0,-8.3
 903109198,-6.8260977887,-8.6882042265\H,0,-8.0892741485,-5.4991226522,
 -6.465898853\H,0,-5.5454008732,-4.6226462886,-9.2732485493\H,0,-5.1227
 894374,-3.9481865184,-7.14984057\H,0,-6.4501535752,-3.8459538846,-6.09
 99801162\\Version=ES64L-G16RevC.01\HF=-1917.4497624\RMSD=1.063e-09\Dip
 ole=-4.0530446,0.5468445,2.4226089\Quadrupole=138.5435908,-168.638696,
 30.0951052,54.0161123,210.4036919,34.8833641\PG=C01 [X(C23H36N9O7)]\\@
 The archive entry for this job was punched.


 YOU KNOW YOU'RE A TEACHER WHEN YOU SAY 2, WRITE 3, AND MEAN 4.
 -- RONALD ANSTROM, HIGH SCHOOL TEACHER, UNDERWOOD, N.D. 1974
 Job cpu time:       0 days  0 hours  5 minutes  5.8 seconds.
 Elapsed time:       0 days  0 hours  1 minutes 17.9 seconds.
 File lengths (MBytes):  RWF=    344 Int=      0 D2E=      0 Chk=     48 Scr=     16
 Normal termination of Gaussian 16 at Tue Jun  7 01:06:50 2022.
