 Entering Gaussian System, Link 0=/opt/software/Gaussian/g16-AVX2-C.01/g16/g16
 Input=charge-conf-123.com
 Output=charge-conf-123.log
 Initial command:
 /opt/software/Gaussian/g16-AVX2-C.01/g16/l1.exe "/mnt/gs18/scratch/users/kengmith/Gau-27114.inp" -scrdir="/mnt/gs18/scratch/users/kengmith/"
 Entering Link 1 = /opt/software/Gaussian/g16-AVX2-C.01/g16/l1.exe PID=     27124.
  
 Copyright (c) 1988-2019, Gaussian, Inc.  All Rights Reserved.
  
 This is part of the Gaussian(R) 16 program.  It is based on
 the Gaussian(R) 09 system (copyright 2009, Gaussian, Inc.),
 the Gaussian(R) 03 system (copyright 2003, Gaussian, Inc.),
 the Gaussian(R) 98 system (copyright 1998, Gaussian, Inc.),
 the Gaussian(R) 94 system (copyright 1995, Gaussian, Inc.),
 the Gaussian 92(TM) system (copyright 1992, Gaussian, Inc.),
 the Gaussian 90(TM) system (copyright 1990, Gaussian, Inc.),
 the Gaussian 88(TM) system (copyright 1988, Gaussian, Inc.),
 the Gaussian 86(TM) system (copyright 1986, Carnegie Mellon
 University), and the Gaussian 82(TM) system (copyright 1983,
 Carnegie Mellon University). Gaussian is a federally registered
 trademark of Gaussian, Inc.
  
 This software contains proprietary and confidential information,
 including trade secrets, belonging to Gaussian, Inc.
  
 This software is provided under written license and may be
 used, copied, transmitted, or stored only in accord with that
 written license.
  
 The following legend is applicable only to US Government
 contracts under FAR:
  
                    RESTRICTED RIGHTS LEGEND
  
 Use, reproduction and disclosure by the US Government is
 subject to restrictions as set forth in subparagraphs (a)
 and (c) of the Commercial Computer Software - Restricted
 Rights clause in FAR 52.227-19.
  
 Gaussian, Inc.
 340 Quinnipiac St., Bldg. 40, Wallingford CT 06492
  
  
 ---------------------------------------------------------------
 Warning -- This program may not be used in any manner that
 competes with the business of Gaussian, Inc. or will provide
 assistance to any competitor of Gaussian, Inc.  The licensee
 of this program is prohibited from giving any competitor of
 Gaussian, Inc. access to this program.  By using this program,
 the user acknowledges that Gaussian, Inc. is engaged in the
 business of creating and licensing software in the field of
 computational chemistry and represents and warrants to the
 licensee that it is not a competitor of Gaussian, Inc. and that
 it will not use this program in any manner prohibited above.
 ---------------------------------------------------------------
  

 Cite this work as:
 Gaussian 16, Revision C.01,
 M. J. Frisch, G. W. Trucks, H. B. Schlegel, G. E. Scuseria, 
 M. A. Robb, J. R. Cheeseman, G. Scalmani, V. Barone, 
 G. A. Petersson, H. Nakatsuji, X. Li, M. Caricato, A. V. Marenich, 
 J. Bloino, B. G. Janesko, R. Gomperts, B. Mennucci, H. P. Hratchian, 
 J. V. Ortiz, A. F. Izmaylov, J. L. Sonnenberg, D. Williams-Young, 
 F. Ding, F. Lipparini, F. Egidi, J. Goings, B. Peng, A. Petrone, 
 T. Henderson, D. Ranasinghe, V. G. Zakrzewski, J. Gao, N. Rega, 
 G. Zheng, W. Liang, M. Hada, M. Ehara, K. Toyota, R. Fukuda, 
 J. Hasegawa, M. Ishida, T. Nakajima, Y. Honda, O. Kitao, H. Nakai, 
 T. Vreven, K. Throssell, J. A. Montgomery, Jr., J. E. Peralta, 
 F. Ogliaro, M. J. Bearpark, J. J. Heyd, E. N. Brothers, K. N. Kudin, 
 V. N. Staroverov, T. A. Keith, R. Kobayashi, J. Normand, 
 K. Raghavachari, A. P. Rendell, J. C. Burant, S. S. Iyengar, 
 J. Tomasi, M. Cossi, J. M. Millam, M. Klene, C. Adamo, R. Cammi, 
 J. W. Ochterski, R. L. Martin, K. Morokuma, O. Farkas, 
 J. B. Foresman, and D. J. Fox, Gaussian, Inc., Wallingford CT, 2019.
 
 ******************************************
 Gaussian 16:  ES64L-G16RevC.01  3-Jul-2019
                 7-Jun-2022 
 ******************************************
 %mem=8gb
 %nproc=4
 Will use up to    4 processors via shared memory.
 %chk=conf-123.chk
 ----------------------------------------------------------------------
 # B3LYP/6-31G* empiricaldispersion=gd3 guess=read geom=check nosymm in
 tegral(ultrafinegrid)
 ----------------------------------------------------------------------
 1/29=2,38=1,172=1/1;
 2/12=2,15=1,40=1/2;
 3/5=1,6=6,7=1,11=2,14=-4,25=1,30=1,74=-5,75=-5,116=-2,124=31/1,2,3;
 4/5=1/1;
 5/5=2,38=6/2;
 6/7=2,8=2,9=2,10=2,28=1/1;
 99/5=1,9=1/99;
 ------------------------------------------------------
 Candidate Structure: Conf:123 Charge calc in gas phase
 ------------------------------------------------------
 Structure from the checkpoint file:  "conf-123.chk"
 Charge =  1 Multiplicity = 1
 Redundant internal coordinates found in file.  (old form).
 N,0,-7.6353496045,1.1273426589,-8.7994582526
 C,0,-8.0054486263,1.3227060934,-7.3942314922
 C,0,-7.1646616399,0.4372841863,-6.4439566205
 O,0,-6.4373688008,0.953198172,-5.6052112007
 C,0,-9.5285425168,0.987734658,-7.1305254498
 C,0,-10.3863759957,1.2778611897,-8.3008687943
 N,0,-10.5299636641,0.3982041114,-9.2544598404
 O,0,-10.9563626967,2.4634407308,-8.3295260164
 H,0,-7.7578270521,2.0064048596,-9.3009102087
 H,0,-11.4970339461,2.6289810052,-9.1249563081
 H,0,-7.8289396737,2.3447741282,-7.0442421729
 H,0,-9.6372090026,-0.0710134699,-6.8949747639
 H,0,-9.8870223416,1.5480126489,-6.2647542973
 H,0,-11.0613911373,0.5778472793,-10.1003245978
 H,0,-9.9747685729,-0.4801974114,-9.2156602983
 H,0,-6.6387674927,0.903537892,-8.8699853081
 N,0,-7.3195460954,-0.9122850593,-6.5803059207
 C,0,-6.9471158864,-1.8239068558,-5.4992154971
 C,0,-6.1664232919,-3.0554861753,-6.010645685
 O,0,-6.5854139265,-4.1939365806,-5.7939967102
 C,0,-8.1859156893,-2.294986908,-4.7002051472
 C,0,-9.1732687607,-1.1979222452,-4.3627577474
 C,0,-8.7822203583,-0.0153416434,-3.7174847999
 C,0,-10.5261120802,-1.3560115974,-4.6972695795
 C,0,-9.7146107763,0.9827352786,-3.4291284078
 C,0,-11.4646941229,-0.3639286845,-4.4027672805
 C,0,-11.0599599143,0.8132816282,-3.7703698249
 H,0,-7.8474418161,-1.2815690974,-7.3686878633
 H,0,-6.2817905984,-1.2483063973,-4.848454963
 H,0,-8.6953450172,-3.0712317845,-5.277914128
 H,0,-7.8283032443,-2.794733396,-3.7922239511
 H,0,-7.7401156199,0.1411725366,-3.4574750377
 H,0,-10.8503833532,-2.27443845,-5.1826277928
 H,0,-9.3894779518,1.8906560135,-2.9287956107
 H,0,-12.5103524442,-0.5163177424,-4.6572445407
 H,0,-11.7861711185,1.5853442722,-3.5315543815
 N,0,-4.9943688386,-2.8594676596,-6.6768850589
 C,0,-4.490728688,-1.6124109541,-7.2302876711
 C,0,-5.1601371162,-1.2002020732,-8.5543166223
 O,0,-4.9819442608,-0.0533089422,-8.977228149
 C,0,-2.962746335,-1.64081459,-7.3957859887
 C,0,-2.5019378468,-2.7169214859,-8.3807847147
 N,0,-1.1798464646,-2.7123883552,-8.6738797013
 O,0,-3.2872610514,-3.5305242935,-8.8666620586
 H,0,-4.5977384406,-3.7035234278,-7.0826570416
 H,0,-4.7186867002,-0.7938607774,-6.5425251754
 H,0,-2.4956400405,-1.8133208132,-6.4188140959
 H,0,-2.6412171376,-0.6535864041,-7.7451708951
 H,0,-0.8178798788,-3.4310647205,-9.2861022586
 H,0,-0.5322955513,-2.0533861001,-8.2673332478
 N,0,-5.9634978135,-2.1083005102,-9.1567879765
 C,0,-6.6696343714,-1.7931915241,-10.3735460276
 C,0,-8.1821287073,-1.849035301,-10.1512924915
 O,0,-8.7385852533,-1.7437066101,-9.0596568481
 C,0,-6.1046825836,-2.5558466193,-11.5991209377
 C,0,-5.9259381259,-4.0723526667,-11.455739084
 C,0,-7.2144227461,-4.8858218207,-11.2994000971
 N,0,-8.057473701,-4.4505344417,-10.1717777538
 C,0,-7.6781664609,-4.810960993,-8.8676547176
 N,0,-6.469665093,-5.1841833131,-8.6399477926
 N,0,-8.7148021702,-4.6948491288,-7.9482498893
 O,0,-8.9616447649,-1.7472065133,-11.2420725552
 H,0,-8.4350431081,-1.8709348545,-12.0509971356
 H,0,-5.9167915595,-3.0876183506,-8.8722781487
 H,0,-6.4973977317,-0.7220398151,-10.5503438477
 H,0,-6.6996679794,-2.3248320757,-12.4996365594
 H,0,-5.1226238869,-2.1106377794,-11.7902289304
 H,0,-5.42018701,-4.4326792801,-12.3602036129
 H,0,-5.2545456085,-4.2879669674,-10.6214153842
 H,0,-7.8325974774,-4.7755242114,-12.1991463876
 H,0,-6.9523649708,-5.945555015,-11.1947953828
 H,0,-9.0433481069,-4.625722396,-10.3355839243
 H,0,-6.3312546855,-5.3516021229,-7.6426325928
 H,0,-8.3897633055,-4.7110252511,-6.9858334436
 H,0,-9.3545503085,-3.9279446966,-8.1265750887
 Recover connectivity data from disk.
                           ----------------------------
                           !    Current Parameters    !
                           ! (Angstroms and Degrees)  !
 --------------------------                            --------------------------
 ! Name  Definition              Value                                          !
 --------------------------------------------------------------------------------
 ! R1    R(1,2)                  1.4662                                         !
 ! R2    R(1,9)                  1.0194                                         !
 ! R3    R(1,16)                 1.0238                                         !
 ! R4    R(2,3)                  1.5472                                         !
 ! R5    R(2,5)                  1.5816                                         !
 ! R6    R(2,11)                 1.0947                                         !
 ! R7    R(3,4)                  1.2242                                         !
 ! R8    R(3,17)                 1.3653                                         !
 ! R9    R(5,6)                  1.4798                                         !
 ! R10   R(5,12)                 1.0901                                         !
 ! R11   R(5,13)                 1.0918                                         !
 ! R12   R(6,7)                  1.3053                                         !
 ! R13   R(6,8)                  1.3158                                         !
 ! R14   R(7,14)                 1.015                                          !
 ! R15   R(7,15)                 1.0399                                         !
 ! R16   R(8,10)                 0.9759                                         !
 ! R17   R(17,18)                1.4624                                         !
 ! R18   R(17,28)                1.0181                                         !
 ! R19   R(18,19)                1.5453                                         !
 ! R20   R(18,21)                1.5476                                         !
 ! R21   R(18,29)                1.0943                                         !
 ! R22   R(19,20)                1.2323                                         !
 ! R23   R(19,37)                1.3624                                         !
 ! R24   R(21,22)                1.514                                          !
 ! R25   R(21,30)                1.0935                                         !
 ! R26   R(21,31)                1.0964                                         !
 ! R27   R(22,23)                1.4028                                         !
 ! R28   R(22,24)                1.4025                                         !
 ! R29   R(23,25)                1.3959                                         !
 ! R30   R(23,32)                1.0854                                         !
 ! R31   R(24,26)                1.3971                                         !
 ! R32   R(24,33)                1.0882                                         !
 ! R33   R(25,27)                1.3983                                         !
 ! R34   R(25,34)                1.0864                                         !
 ! R35   R(26,27)                1.3963                                         !
 ! R36   R(26,35)                1.0869                                         !
 ! R37   R(27,36)                1.0865                                         !
 ! R38   R(37,38)                1.4543                                         !
 ! R39   R(37,45)                1.0171                                         !
 ! R40   R(38,39)                1.5398                                         !
 ! R41   R(38,41)                1.5372                                         !
 ! R42   R(38,46)                1.0932                                         !
 ! R43   R(39,40)                1.2353                                         !
 ! R44   R(39,51)                1.3539                                         !
 ! R45   R(41,42)                1.5299                                         !
 ! R46   R(41,47)                1.0965                                         !
 ! R47   R(41,48)                1.0955                                         !
 ! R48   R(42,43)                1.3542                                         !
 ! R49   R(42,44)                1.2308                                         !
 ! R50   R(43,49)                1.0111                                         !
 ! R51   R(43,50)                1.0094                                         !
 ! R52   R(51,52)                1.4417                                         !
 ! R53   R(51,64)                1.0209                                         !
 ! R54   R(52,53)                1.5298                                         !
 ! R55   R(52,55)                1.5501                                         !
 ! R56   R(52,65)                1.0992                                         !
 ! R57   R(53,54)                1.2298                                         !
 ! R58   R(53,62)                1.3446                                         !
 ! R59   R(55,56)                1.5337                                         !
 ! R60   R(55,66)                1.1038                                         !
 ! R61   R(55,67)                1.0951                                         !
 ! R62   R(56,57)                1.5318                                         !
 ! R63   R(56,68)                1.0971                                         !
 ! R64   R(56,69)                1.0924                                         !
 ! R65   R(57,58)                1.4737                                         !
 ! R66   R(57,70)                1.0972                                         !
 ! R67   R(57,71)                1.0967                                         !
 ! R68   R(58,59)                1.4052                                         !
 ! R69   R(58,72)                1.0146                                         !
 ! R70   R(59,60)                1.2852                                         !
 ! R71   R(59,61)                1.3905                                         !
 ! R72   R(60,73)                1.0207                                         !
 ! R73   R(61,74)                1.016                                          !
 ! R74   R(61,75)                1.0145                                         !
 ! R75   R(62,63)                0.9731                                         !
 ! A1    A(2,1,9)              109.0392                                         !
 ! A2    A(2,1,16)             109.9283                                         !
 ! A3    A(9,1,16)             105.7572                                         !
 ! A4    A(1,2,3)              112.0374                                         !
 ! A5    A(1,2,5)              112.0027                                         !
 ! A6    A(1,2,11)             112.9627                                         !
 ! A7    A(3,2,5)              107.4397                                         !
 ! A8    A(3,2,11)             104.4967                                         !
 ! A9    A(5,2,11)             107.4405                                         !
 ! A10   A(2,3,4)              120.164                                          !
 ! A11   A(2,3,17)             116.2764                                         !
 ! A12   A(4,3,17)             123.5333                                         !
 ! A13   A(2,5,6)              112.635                                          !
 ! A14   A(2,5,12)             109.7387                                         !
 ! A15   A(2,5,13)             109.86                                           !
 ! A16   A(6,5,12)             107.6704                                         !
 ! A17   A(6,5,13)             109.6463                                         !
 ! A18   A(12,5,13)            107.1184                                         !
 ! A19   A(5,6,7)              120.6263                                         !
 ! A20   A(5,6,8)              116.4236                                         !
 ! A21   A(7,6,8)              122.9336                                         !
 ! A22   A(6,7,14)             123.1724                                         !
 ! A23   A(6,7,15)             118.9002                                         !
 ! A24   A(14,7,15)            117.3968                                         !
 ! A25   A(6,8,10)             114.2412                                         !
 ! A26   A(3,17,18)            120.8974                                         !
 ! A27   A(3,17,28)            119.6498                                         !
 ! A28   A(18,17,28)           118.5805                                         !
 ! A29   A(17,18,19)           112.3854                                         !
 ! A30   A(17,18,21)           111.5667                                         !
 ! A31   A(17,18,29)           105.4606                                         !
 ! A32   A(19,18,21)           109.432                                          !
 ! A33   A(19,18,29)           107.9917                                         !
 ! A34   A(21,18,29)           109.8629                                         !
 ! A35   A(18,19,20)           120.4205                                         !
 ! A36   A(18,19,37)           118.8047                                         !
 ! A37   A(20,19,37)           120.7581                                         !
 ! A38   A(18,21,22)           114.6156                                         !
 ! A39   A(18,21,30)           108.435                                          !
 ! A40   A(18,21,31)           107.7721                                         !
 ! A41   A(22,21,30)           109.1657                                         !
 ! A42   A(22,21,31)           111.0026                                         !
 ! A43   A(30,21,31)           105.4206                                         !
 ! A44   A(21,22,23)           122.1127                                         !
 ! A45   A(21,22,24)           119.6171                                         !
 ! A46   A(23,22,24)           118.2701                                         !
 ! A47   A(22,23,25)           120.7687                                         !
 ! A48   A(22,23,32)           119.9607                                         !
 ! A49   A(25,23,32)           119.2554                                         !
 ! A50   A(22,24,26)           121.1775                                         !
 ! A51   A(22,24,33)           119.2705                                         !
 ! A52   A(26,24,33)           119.5467                                         !
 ! A53   A(23,25,27)           120.3708                                         !
 ! A54   A(23,25,34)           119.5208                                         !
 ! A55   A(27,25,34)           120.1062                                         !
 ! A56   A(24,26,27)           119.9624                                         !
 ! A57   A(24,26,35)           119.8278                                         !
 ! A58   A(27,26,35)           120.2063                                         !
 ! A59   A(25,27,26)           119.4465                                         !
 ! A60   A(25,27,36)           120.2213                                         !
 ! A61   A(26,27,36)           120.3258                                         !
 ! A62   A(19,37,38)           127.4015                                         !
 ! A63   A(19,37,45)           114.2807                                         !
 ! A64   A(38,37,45)           115.1354                                         !
 ! A65   A(37,38,39)           113.9658                                         !
 ! A66   A(37,38,41)           111.676                                          !
 ! A67   A(37,38,46)           109.2963                                         !
 ! A68   A(39,38,41)           110.1512                                         !
 ! A69   A(39,38,46)           104.47                                           !
 ! A70   A(41,38,46)           106.7894                                         !
 ! A71   A(38,39,40)           118.6987                                         !
 ! A72   A(38,39,51)           117.4538                                         !
 ! A73   A(40,39,51)           123.7783                                         !
 ! A74   A(38,41,42)           112.44                                           !
 ! A75   A(38,41,47)           109.2938                                         !
 ! A76   A(38,41,48)           108.0252                                         !
 ! A77   A(42,41,47)           109.5521                                         !
 ! A78   A(42,41,48)           109.8852                                         !
 ! A79   A(47,41,48)           107.5116                                         !
 ! A80   A(41,42,43)           115.5346                                         !
 ! A81   A(41,42,44)           121.8004                                         !
 ! A82   A(43,42,44)           122.6648                                         !
 ! A83   A(42,43,49)           118.5663                                         !
 ! A84   A(42,43,50)           122.7739                                         !
 ! A85   A(49,43,50)           118.5717                                         !
 ! A86   A(39,51,52)           121.3057                                         !
 ! A87   A(39,51,64)           119.4897                                         !
 ! A88   A(52,51,64)           117.8589                                         !
 ! A89   A(51,52,53)           110.7124                                         !
 ! A90   A(51,52,55)           112.4104                                         !
 ! A91   A(51,52,65)           105.7827                                         !
 ! A92   A(53,52,55)           117.2101                                         !
 ! A93   A(53,52,65)           102.3488                                         !
 ! A94   A(55,52,65)           107.1674                                         !
 ! A95   A(52,53,54)           124.9743                                         !
 ! A96   A(52,53,62)           116.9098                                         !
 ! A97   A(54,53,62)           116.8273                                         !
 ! A98   A(52,55,56)           117.0675                                         !
 ! A99   A(52,55,66)           110.2191                                         !
 ! A100  A(52,55,67)           105.3551                                         !
 ! A101  A(56,55,66)           110.2454                                         !
 ! A102  A(56,55,67)           108.288                                          !
 ! A103  A(66,55,67)           104.8298                                         !
 ! A104  A(55,56,57)           115.8877                                         !
 ! A105  A(55,56,68)           107.5415                                         !
 ! A106  A(55,56,69)           109.7665                                         !
 ! A107  A(57,56,68)           107.3067                                         !
 ! A108  A(57,56,69)           109.5246                                         !
 ! A109  A(68,56,69)           106.3492                                         !
 ! A110  A(56,57,58)           113.7309                                         !
 ! A111  A(56,57,70)           109.6845                                         !
 ! A112  A(56,57,71)           108.7785                                         !
 ! A113  A(58,57,70)           105.9899                                         !
 ! A114  A(58,57,71)           110.4351                                         !
 ! A115  A(70,57,71)           108.0589                                         !
 ! A116  A(57,58,59)           118.6828                                         !
 ! A117  A(57,58,72)           112.4158                                         !
 ! A118  A(59,58,72)           111.582                                          !
 ! A119  A(58,59,60)           119.5226                                         !
 ! A120  A(58,59,61)           113.017                                          !
 ! A121  A(60,59,61)           127.4564                                         !
 ! A122  A(59,60,73)           110.3818                                         !
 ! A123  A(59,61,74)           112.7385                                         !
 ! A124  A(59,61,75)           114.6473                                         !
 ! A125  A(74,61,75)           112.3523                                         !
 ! A126  A(53,62,63)           110.549                                          !
 ! D1    D(9,1,2,3)           -147.4359                                         !
 ! D2    D(9,1,2,5)             91.7477                                         !
 ! D3    D(9,1,2,11)           -29.7383                                         !
 ! D4    D(16,1,2,3)           -31.9247                                         !
 ! D5    D(16,1,2,5)          -152.7411                                         !
 ! D6    D(16,1,2,11)           85.773                                          !
 ! D7    D(1,2,3,4)            117.8428                                         !
 ! D8    D(1,2,3,17)           -63.9583                                         !
 ! D9    D(5,2,3,4)           -118.7343                                         !
 ! D10   D(5,2,3,17)            59.4646                                         !
 ! D11   D(11,2,3,4)            -4.7987                                         !
 ! D12   D(11,2,3,17)          173.4002                                         !
 ! D13   D(1,2,5,6)            -31.4902                                         !
 ! D14   D(1,2,5,12)            88.4449                                         !
 ! D15   D(1,2,5,13)          -154.0322                                         !
 ! D16   D(3,2,5,6)           -154.9343                                         !
 ! D17   D(3,2,5,12)           -34.9992                                         !
 ! D18   D(3,2,5,13)            82.5237                                         !
 ! D19   D(11,2,5,6)            93.1206                                         !
 ! D20   D(11,2,5,12)         -146.9443                                         !
 ! D21   D(11,2,5,13)          -29.4214                                         !
 ! D22   D(2,3,17,18)         -159.7481                                         !
 ! D23   D(2,3,17,28)            9.4087                                         !
 ! D24   D(4,3,17,18)           18.3837                                         !
 ! D25   D(4,3,17,28)         -172.4595                                         !
 ! D26   D(2,5,6,7)             85.0012                                         !
 ! D27   D(2,5,6,8)            -93.5675                                         !
 ! D28   D(12,5,6,7)           -36.1214                                         !
 ! D29   D(12,5,6,8)           145.3099                                         !
 ! D30   D(13,5,6,7)          -152.3368                                         !
 ! D31   D(13,5,6,8)            29.0945                                         !
 ! D32   D(5,6,7,14)          -176.0952                                         !
 ! D33   D(5,6,7,15)            -4.6756                                         !
 ! D34   D(8,6,7,14)             2.3776                                         !
 ! D35   D(8,6,7,15)           173.7971                                         !
 ! D36   D(5,6,8,10)           178.5933                                         !
 ! D37   D(7,6,8,10)             0.0608                                         !
 ! D38   D(3,17,18,19)        -135.7185                                         !
 ! D39   D(3,17,18,21)         100.9363                                         !
 ! D40   D(3,17,18,29)         -18.2983                                         !
 ! D41   D(28,17,18,19)         55.0113                                         !
 ! D42   D(28,17,18,21)        -68.334                                          !
 ! D43   D(28,17,18,29)        172.4314                                         !
 ! D44   D(17,18,19,20)       -122.3335                                         !
 ! D45   D(17,18,19,37)         59.1386                                         !
 ! D46   D(21,18,19,20)          2.1978                                         !
 ! D47   D(21,18,19,37)       -176.3301                                         !
 ! D48   D(29,18,19,20)        121.7613                                         !
 ! D49   D(29,18,19,37)        -56.7666                                         !
 ! D50   D(17,18,21,22)        -44.2001                                         !
 ! D51   D(17,18,21,30)         78.0337                                         !
 ! D52   D(17,18,21,31)       -168.3146                                         !
 ! D53   D(19,18,21,22)       -169.2073                                         !
 ! D54   D(19,18,21,30)        -46.9735                                         !
 ! D55   D(19,18,21,31)         66.6782                                         !
 ! D56   D(29,18,21,22)         72.3876                                         !
 ! D57   D(29,18,21,30)       -165.3786                                         !
 ! D58   D(29,18,21,31)        -51.7269                                         !
 ! D59   D(18,19,37,38)        -14.0851                                         !
 ! D60   D(18,19,37,45)       -172.7549                                         !
 ! D61   D(20,19,37,38)        167.3921                                         !
 ! D62   D(20,19,37,45)          8.7223                                         !
 ! D63   D(18,21,22,23)        -52.9745                                         !
 ! D64   D(18,21,22,24)        127.1643                                         !
 ! D65   D(30,21,22,23)       -174.8106                                         !
 ! D66   D(30,21,22,24)          5.3281                                         !
 ! D67   D(31,21,22,23)         69.4056                                         !
 ! D68   D(31,21,22,24)       -110.4556                                         !
 ! D69   D(21,22,23,25)        179.4894                                         !
 ! D70   D(21,22,23,32)          0.9173                                         !
 ! D71   D(24,22,23,25)         -0.6475                                         !
 ! D72   D(24,22,23,32)       -179.2196                                         !
 ! D73   D(21,22,24,26)       -179.9185                                         !
 ! D74   D(21,22,24,33)          0.9223                                         !
 ! D75   D(23,22,24,26)          0.2149                                         !
 ! D76   D(23,22,24,33)       -178.9442                                         !
 ! D77   D(22,23,25,27)          0.5445                                         !
 ! D78   D(22,23,25,34)       -179.9931                                         !
 ! D79   D(32,23,25,27)        179.1266                                         !
 ! D80   D(32,23,25,34)         -1.411                                          !
 ! D81   D(22,24,26,27)          0.3249                                         !
 ! D82   D(22,24,26,35)       -178.9999                                         !
 ! D83   D(33,24,26,27)        179.4818                                         !
 ! D84   D(33,24,26,35)          0.1569                                         !
 ! D85   D(23,25,27,26)          0.0066                                         !
 ! D86   D(23,25,27,36)        179.0905                                         !
 ! D87   D(34,25,27,26)       -179.4527                                         !
 ! D88   D(34,25,27,36)         -0.3687                                         !
 ! D89   D(24,26,27,25)         -0.4355                                         !
 ! D90   D(24,26,27,36)       -179.5185                                         !
 ! D91   D(35,26,27,25)        178.8868                                         !
 ! D92   D(35,26,27,36)         -0.1963                                         !
 ! D93   D(19,37,38,39)        -77.1286                                         !
 ! D94   D(19,37,38,41)        157.2544                                         !
 ! D95   D(19,37,38,46)         39.3176                                         !
 ! D96   D(45,37,38,39)         81.3871                                         !
 ! D97   D(45,37,38,41)        -44.23                                           !
 ! D98   D(45,37,38,46)       -162.1667                                         !
 ! D99   D(37,38,39,40)        167.094                                          !
 ! D100  D(37,38,39,51)         -9.9966                                         !
 ! D101  D(41,38,39,40)        -66.4874                                         !
 ! D102  D(41,38,39,51)        116.4219                                         !
 ! D103  D(46,38,39,40)         47.8725                                         !
 ! D104  D(46,38,39,51)       -129.2181                                         !
 ! D105  D(37,38,41,42)         62.6336                                         !
 ! D106  D(37,38,41,47)        -59.2506                                         !
 ! D107  D(37,38,41,48)       -175.9414                                         !
 ! D108  D(39,38,41,42)        -65.0611                                         !
 ! D109  D(39,38,41,47)        173.0548                                         !
 ! D110  D(39,38,41,48)         56.364                                          !
 ! D111  D(46,38,41,42)       -177.9369                                         !
 ! D112  D(46,38,41,47)         60.179                                          !
 ! D113  D(46,38,41,48)        -56.5118                                         !
 ! D114  D(38,39,51,52)        177.7392                                         !
 ! D115  D(38,39,51,64)        -15.7891                                         !
 ! D116  D(40,39,51,52)          0.8096                                         !
 ! D117  D(40,39,51,64)        167.2813                                         !
 ! D118  D(38,41,42,43)        173.8163                                         !
 ! D119  D(38,41,42,44)         -6.3642                                         !
 ! D120  D(47,41,42,43)        -64.4464                                         !
 ! D121  D(47,41,42,44)        115.3731                                         !
 ! D122  D(48,41,42,43)         53.459                                          !
 ! D123  D(48,41,42,44)       -126.7214                                         !
 ! D124  D(41,42,43,49)        177.1575                                         !
 ! D125  D(41,42,43,50)          0.6208                                         !
 ! D126  D(44,42,43,49)         -2.6603                                         !
 ! D127  D(44,42,43,50)       -179.197                                          !
 ! D128  D(39,51,52,53)       -116.9934                                         !
 ! D129  D(39,51,52,55)        109.7934                                         !
 ! D130  D(39,51,52,65)         -6.844                                          !
 ! D131  D(64,51,52,53)         76.3221                                         !
 ! D132  D(64,51,52,55)        -56.8911                                         !
 ! D133  D(64,51,52,65)       -173.5285                                         !
 ! D134  D(51,52,53,54)         21.8161                                         !
 ! D135  D(51,52,53,62)       -171.6043                                         !
 ! D136  D(55,52,53,54)        152.5622                                         !
 ! D137  D(55,52,53,62)        -40.8582                                         !
 ! D138  D(65,52,53,54)        -90.5455                                         !
 ! D139  D(65,52,53,62)         76.0341                                         !
 ! D140  D(51,52,55,56)         50.3239                                         !
 ! D141  D(51,52,55,66)        177.361                                          !
 ! D142  D(51,52,55,67)        -70.0579                                         !
 ! D143  D(53,52,55,56)        -79.6323                                         !
 ! D144  D(53,52,55,66)         47.4047                                         !
 ! D145  D(53,52,55,67)        159.9858                                         !
 ! D146  D(65,52,55,56)        166.1299                                         !
 ! D147  D(65,52,55,66)        -66.833                                          !
 ! D148  D(65,52,55,67)         45.7481                                         !
 ! D149  D(52,53,62,63)         14.0426                                         !
 ! D150  D(54,53,62,63)       -178.2625                                         !
 ! D151  D(52,55,56,57)         66.0927                                         !
 ! D152  D(52,55,56,68)       -173.8942                                         !
 ! D153  D(52,55,56,69)        -58.5982                                         !
 ! D154  D(66,55,56,57)        -60.9315                                         !
 ! D155  D(66,55,56,68)         59.0816                                         !
 ! D156  D(66,55,56,69)        174.3776                                         !
 ! D157  D(67,55,56,57)       -175.0865                                         !
 ! D158  D(67,55,56,68)        -55.0734                                         !
 ! D159  D(67,55,56,69)         60.2226                                         !
 ! D160  D(55,56,57,58)        -55.8014                                         !
 ! D161  D(55,56,57,70)         62.6789                                         !
 ! D162  D(55,56,57,71)       -179.327                                          !
 ! D163  D(68,56,57,58)       -175.9418                                         !
 ! D164  D(68,56,57,70)        -57.4615                                         !
 ! D165  D(68,56,57,71)         60.5327                                         !
 ! D166  D(69,56,57,58)         69.014                                          !
 ! D167  D(69,56,57,70)       -172.5058                                         !
 ! D168  D(69,56,57,71)        -54.5116                                         !
 ! D169  D(56,57,58,59)        -76.3684                                         !
 ! D170  D(56,57,58,72)        150.8485                                         !
 ! D171  D(70,57,58,59)        163.0521                                         !
 ! D172  D(70,57,58,72)         30.269                                          !
 ! D173  D(71,57,58,59)         46.251                                          !
 ! D174  D(71,57,58,72)        -86.5322                                         !
 ! D175  D(57,58,59,60)         18.3273                                         !
 ! D176  D(57,58,59,61)       -162.3508                                         !
 ! D177  D(72,58,59,60)        151.4721                                         !
 ! D178  D(72,58,59,61)        -29.206                                          !
 ! D179  D(58,59,60,73)        176.1928                                         !
 ! D180  D(61,59,60,73)         -3.0209                                         !
 ! D181  D(58,59,61,74)       -164.6296                                         !
 ! D182  D(58,59,61,75)        -34.3903                                         !
 ! D183  D(60,59,61,74)         14.6271                                         !
 ! D184  D(60,59,61,75)        144.8663                                         !
 --------------------------------------------------------------------------------
 Symmetry turned off by external request.
 Stoichiometry    C23H36N9O7(1+)
 Framework group  C1[X(C23H36N9O7)]
 Deg. of freedom   219
 Full point group                 C1      NOp   1
                          Input orientation:                          
 ---------------------------------------------------------------------
 Center     Atomic      Atomic             Coordinates (Angstroms)
 Number     Number       Type             X           Y           Z
 ---------------------------------------------------------------------
      1          7           0       -7.635350    1.127343   -8.799458
      2          6           0       -8.005449    1.322706   -7.394231
      3          6           0       -7.164662    0.437284   -6.443957
      4          8           0       -6.437369    0.953198   -5.605211
      5          6           0       -9.528543    0.987735   -7.130525
      6          6           0      -10.386376    1.277861   -8.300869
      7          7           0      -10.529964    0.398204   -9.254460
      8          8           0      -10.956363    2.463441   -8.329526
      9          1           0       -7.757827    2.006405   -9.300910
     10          1           0      -11.497034    2.628981   -9.124956
     11          1           0       -7.828940    2.344774   -7.044242
     12          1           0       -9.637209   -0.071013   -6.894975
     13          1           0       -9.887022    1.548013   -6.264754
     14          1           0      -11.061391    0.577847  -10.100325
     15          1           0       -9.974769   -0.480197   -9.215660
     16          1           0       -6.638767    0.903538   -8.869985
     17          7           0       -7.319546   -0.912285   -6.580306
     18          6           0       -6.947116   -1.823907   -5.499215
     19          6           0       -6.166423   -3.055486   -6.010646
     20          8           0       -6.585414   -4.193937   -5.793997
     21          6           0       -8.185916   -2.294987   -4.700205
     22          6           0       -9.173269   -1.197922   -4.362758
     23          6           0       -8.782220   -0.015342   -3.717485
     24          6           0      -10.526112   -1.356012   -4.697270
     25          6           0       -9.714611    0.982735   -3.429128
     26          6           0      -11.464694   -0.363929   -4.402767
     27          6           0      -11.059960    0.813282   -3.770370
     28          1           0       -7.847442   -1.281569   -7.368688
     29          1           0       -6.281791   -1.248306   -4.848455
     30          1           0       -8.695345   -3.071232   -5.277914
     31          1           0       -7.828303   -2.794733   -3.792224
     32          1           0       -7.740116    0.141173   -3.457475
     33          1           0      -10.850383   -2.274438   -5.182628
     34          1           0       -9.389478    1.890656   -2.928796
     35          1           0      -12.510352   -0.516318   -4.657245
     36          1           0      -11.786171    1.585344   -3.531554
     37          7           0       -4.994369   -2.859468   -6.676885
     38          6           0       -4.490729   -1.612411   -7.230288
     39          6           0       -5.160137   -1.200202   -8.554317
     40          8           0       -4.981944   -0.053309   -8.977228
     41          6           0       -2.962746   -1.640815   -7.395786
     42          6           0       -2.501938   -2.716921   -8.380785
     43          7           0       -1.179846   -2.712388   -8.673880
     44          8           0       -3.287261   -3.530524   -8.866662
     45          1           0       -4.597738   -3.703523   -7.082657
     46          1           0       -4.718687   -0.793861   -6.542525
     47          1           0       -2.495640   -1.813321   -6.418814
     48          1           0       -2.641217   -0.653586   -7.745171
     49          1           0       -0.817880   -3.431065   -9.286102
     50          1           0       -0.532296   -2.053386   -8.267333
     51          7           0       -5.963498   -2.108301   -9.156788
     52          6           0       -6.669634   -1.793192  -10.373546
     53          6           0       -8.182129   -1.849035  -10.151292
     54          8           0       -8.738585   -1.743707   -9.059657
     55          6           0       -6.104683   -2.555847  -11.599121
     56          6           0       -5.925938   -4.072353  -11.455739
     57          6           0       -7.214423   -4.885822  -11.299400
     58          7           0       -8.057474   -4.450534  -10.171778
     59          6           0       -7.678166   -4.810961   -8.867655
     60          7           0       -6.469665   -5.184183   -8.639948
     61          7           0       -8.714802   -4.694849   -7.948250
     62          8           0       -8.961645   -1.747207  -11.242073
     63          1           0       -8.435043   -1.870935  -12.050997
     64          1           0       -5.916792   -3.087618   -8.872278
     65          1           0       -6.497398   -0.722040  -10.550344
     66          1           0       -6.699668   -2.324832  -12.499637
     67          1           0       -5.122624   -2.110638  -11.790229
     68          1           0       -5.420187   -4.432679  -12.360204
     69          1           0       -5.254546   -4.287967  -10.621415
     70          1           0       -7.832597   -4.775524  -12.199146
     71          1           0       -6.952365   -5.945555  -11.194795
     72          1           0       -9.043348   -4.625722  -10.335584
     73          1           0       -6.331255   -5.351602   -7.642633
     74          1           0       -8.389763   -4.711025   -6.985833
     75          1           0       -9.354550   -3.927945   -8.126575
 ---------------------------------------------------------------------
 Rotational constants (GHZ):           0.1385139           0.0808269           0.0721695
 Standard basis: 6-31G(d) (6D, 7F)
   657 basis functions,  1236 primitive gaussians,   657 cartesian basis functions
   146 alpha electrons      146 beta electrons
       nuclear repulsion energy      5244.3234794143 Hartrees.
 NAtoms=   75 NActive=   75 NUniq=   75 SFac= 1.00D+00 NAtFMM=   60 NAOKFM=T Big=T
 Integral buffers will be    131072 words long.
 Raffenetti 2 integral format.
 Two-electron integral symmetry is turned off.
 Nuclear repulsion after empirical dispersion term =     5244.1948533501 Hartrees.
 One-electron integrals computed using PRISM.
 NBasis=   657 RedAO= T EigKep=  4.58D-04  NBF=   657
 NBsUse=   657 1.00D-06 EigRej= -1.00D+00 NBFU=   657
 Initial guess from the checkpoint file:  "conf-123.chk"
 B after Tr=     0.000000    0.000000    0.000000
         Rot=    1.000000    0.000000    0.000000    0.000000 Ang=   0.00 deg.
 Requested convergence on RMS density matrix=1.00D-08 within 128 cycles.
 Requested convergence on MAX density matrix=1.00D-06.
 Requested convergence on             energy=1.00D-06.
 No special actions if energy rises.
 SCF Done:  E(RB3LYP) =  -1917.44898483     A.U. after    2 cycles
            NFock=  2  Conv=0.96D-08     -V/T= 2.0093

 **********************************************************************

            Population analysis using the SCF Density.

 **********************************************************************

 Alpha  occ. eigenvalues --  -19.38416 -19.32570 -19.27122 -19.21796 -19.21743
 Alpha  occ. eigenvalues --  -19.21335 -19.20797 -14.54600 -14.45613 -14.45477
 Alpha  occ. eigenvalues --  -14.45165 -14.44813 -14.44148 -14.42818 -14.42523
 Alpha  occ. eigenvalues --  -14.36495 -10.49428 -10.45560 -10.38923 -10.38848
 Alpha  occ. eigenvalues --  -10.38634 -10.38513 -10.36518 -10.34989 -10.34886
 Alpha  occ. eigenvalues --  -10.33457 -10.33013 -10.33001 -10.30483 -10.30050
 Alpha  occ. eigenvalues --  -10.29587 -10.28345 -10.27790 -10.27591 -10.27485
 Alpha  occ. eigenvalues --  -10.27386 -10.27330 -10.27036 -10.26768  -1.28037
 Alpha  occ. eigenvalues --   -1.23474  -1.14780  -1.13976  -1.13545  -1.13031
 Alpha  occ. eigenvalues --   -1.12469  -1.11098  -1.06181  -1.03464  -1.02551
 Alpha  occ. eigenvalues --   -1.01450  -1.00090  -0.99611  -0.97238  -0.94013
 Alpha  occ. eigenvalues --   -0.92401  -0.91687  -0.89620  -0.87817  -0.87274
 Alpha  occ. eigenvalues --   -0.83959  -0.83421  -0.82773  -0.81442  -0.77917
 Alpha  occ. eigenvalues --   -0.77260  -0.76952  -0.75942  -0.74875  -0.74288
 Alpha  occ. eigenvalues --   -0.70895  -0.70453  -0.69505  -0.69109  -0.68543
 Alpha  occ. eigenvalues --   -0.67810  -0.67537  -0.66676  -0.66421  -0.65145
 Alpha  occ. eigenvalues --   -0.64324  -0.62804  -0.62517  -0.62088  -0.61268
 Alpha  occ. eigenvalues --   -0.60474  -0.59982  -0.59808  -0.59385  -0.58838
 Alpha  occ. eigenvalues --   -0.58684  -0.58285  -0.57372  -0.56519  -0.56433
 Alpha  occ. eigenvalues --   -0.55643  -0.55074  -0.54955  -0.54320  -0.54297
 Alpha  occ. eigenvalues --   -0.53934  -0.53547  -0.53181  -0.52971  -0.52604
 Alpha  occ. eigenvalues --   -0.52114  -0.51397  -0.51085  -0.51013  -0.50540
 Alpha  occ. eigenvalues --   -0.50215  -0.50080  -0.49883  -0.49430  -0.48987
 Alpha  occ. eigenvalues --   -0.48657  -0.48113  -0.47757  -0.47327  -0.46788
 Alpha  occ. eigenvalues --   -0.46200  -0.46052  -0.45414  -0.45272  -0.44718
 Alpha  occ. eigenvalues --   -0.44113  -0.43814  -0.43732  -0.42527  -0.42269
 Alpha  occ. eigenvalues --   -0.41949  -0.41141  -0.38285  -0.37005  -0.36477
 Alpha  occ. eigenvalues --   -0.36153  -0.35831  -0.35079  -0.34838  -0.34747
 Alpha  occ. eigenvalues --   -0.34205  -0.33773  -0.33511  -0.33349  -0.32793
 Alpha  occ. eigenvalues --   -0.31392
 Alpha virt. eigenvalues --   -0.17829  -0.12126  -0.10476  -0.09193  -0.09010
 Alpha virt. eigenvalues --   -0.08625  -0.08290  -0.07978  -0.06426  -0.06126
 Alpha virt. eigenvalues --   -0.04963  -0.03920  -0.01743  -0.01279  -0.00590
 Alpha virt. eigenvalues --    0.00426   0.01337   0.01448   0.01898   0.02529
 Alpha virt. eigenvalues --    0.03109   0.03438   0.04000   0.04491   0.04982
 Alpha virt. eigenvalues --    0.05245   0.05635   0.05968   0.06208   0.06652
 Alpha virt. eigenvalues --    0.06893   0.07245   0.07433   0.07702   0.08044
 Alpha virt. eigenvalues --    0.08418   0.08825   0.09170   0.09308   0.09378
 Alpha virt. eigenvalues --    0.09985   0.10175   0.10377   0.10515   0.10942
 Alpha virt. eigenvalues --    0.10996   0.11601   0.11834   0.12333   0.12442
 Alpha virt. eigenvalues --    0.13208   0.13537   0.14060   0.14962   0.15497
 Alpha virt. eigenvalues --    0.15700   0.16082   0.16390   0.16666   0.17445
 Alpha virt. eigenvalues --    0.18363   0.18904   0.19253   0.19880   0.20103
 Alpha virt. eigenvalues --    0.21711   0.22353   0.23408   0.24071   0.24361
 Alpha virt. eigenvalues --    0.24804   0.25011   0.25385   0.25832   0.27696
 Alpha virt. eigenvalues --    0.27902   0.28284   0.29513   0.30720   0.31216
 Alpha virt. eigenvalues --    0.33534   0.34940   0.36426   0.36775   0.37479
 Alpha virt. eigenvalues --    0.37787   0.38357   0.38631   0.39866   0.40238
 Alpha virt. eigenvalues --    0.40663   0.41616   0.41988   0.42872   0.43352
 Alpha virt. eigenvalues --    0.44192   0.44915   0.45130   0.45667   0.46073
 Alpha virt. eigenvalues --    0.46695   0.46969   0.47712   0.47914   0.48073
 Alpha virt. eigenvalues --    0.48658   0.49126   0.49611   0.49978   0.50261
 Alpha virt. eigenvalues --    0.50691   0.51040   0.51210   0.51795   0.52076
 Alpha virt. eigenvalues --    0.52610   0.53141   0.53334   0.53671   0.53940
 Alpha virt. eigenvalues --    0.54183   0.54717   0.55603   0.55698   0.56548
 Alpha virt. eigenvalues --    0.57146   0.57363   0.57692   0.57765   0.58416
 Alpha virt. eigenvalues --    0.59142   0.59463   0.59649   0.60375   0.60602
 Alpha virt. eigenvalues --    0.60884   0.61591   0.62080   0.62475   0.62911
 Alpha virt. eigenvalues --    0.64209   0.64552   0.64986   0.65365   0.65687
 Alpha virt. eigenvalues --    0.65837   0.66679   0.67528   0.67709   0.68229
 Alpha virt. eigenvalues --    0.68807   0.69592   0.70486   0.70989   0.71690
 Alpha virt. eigenvalues --    0.72190   0.72595   0.73085   0.73611   0.74099
 Alpha virt. eigenvalues --    0.74477   0.74700   0.75549   0.75708   0.76204
 Alpha virt. eigenvalues --    0.76376   0.76583   0.77207   0.77427   0.77575
 Alpha virt. eigenvalues --    0.78020   0.78584   0.79098   0.79285   0.79540
 Alpha virt. eigenvalues --    0.80073   0.80205   0.80532   0.80872   0.81067
 Alpha virt. eigenvalues --    0.81503   0.82121   0.82633   0.82829   0.83379
 Alpha virt. eigenvalues --    0.83901   0.84019   0.84695   0.85477   0.85659
 Alpha virt. eigenvalues --    0.85768   0.86633   0.86964   0.87572   0.87635
 Alpha virt. eigenvalues --    0.88223   0.88542   0.89201   0.89655   0.89958
 Alpha virt. eigenvalues --    0.90738   0.91080   0.92102   0.92213   0.92909
 Alpha virt. eigenvalues --    0.93838   0.94407   0.94822   0.95401   0.95796
 Alpha virt. eigenvalues --    0.96602   0.97192   0.98158   0.99035   0.99292
 Alpha virt. eigenvalues --    1.00288   1.00826   1.01231   1.01700   1.03440
 Alpha virt. eigenvalues --    1.03706   1.04146   1.04955   1.06033   1.06631
 Alpha virt. eigenvalues --    1.06994   1.07590   1.07835   1.08655   1.09675
 Alpha virt. eigenvalues --    1.10367   1.11168   1.11669   1.12406   1.13812
 Alpha virt. eigenvalues --    1.14748   1.15062   1.16769   1.16992   1.17326
 Alpha virt. eigenvalues --    1.18206   1.18761   1.19112   1.19266   1.19995
 Alpha virt. eigenvalues --    1.20808   1.21686   1.22620   1.24300   1.24601
 Alpha virt. eigenvalues --    1.25417   1.26053   1.27057   1.28006   1.29475
 Alpha virt. eigenvalues --    1.29934   1.30194   1.31304   1.32298   1.32459
 Alpha virt. eigenvalues --    1.33268   1.34000   1.34783   1.34910   1.35865
 Alpha virt. eigenvalues --    1.36638   1.36877   1.38997   1.39258   1.39397
 Alpha virt. eigenvalues --    1.39892   1.40582   1.41640   1.42074   1.43087
 Alpha virt. eigenvalues --    1.43573   1.43828   1.45086   1.45473   1.46960
 Alpha virt. eigenvalues --    1.47774   1.48176   1.49532   1.49996   1.51657
 Alpha virt. eigenvalues --    1.52801   1.54312   1.54597   1.55072   1.56041
 Alpha virt. eigenvalues --    1.56511   1.57329   1.57966   1.58459   1.59146
 Alpha virt. eigenvalues --    1.60729   1.61319   1.62461   1.62708   1.63560
 Alpha virt. eigenvalues --    1.64191   1.65264   1.65739   1.66619   1.66855
 Alpha virt. eigenvalues --    1.67449   1.67854   1.68311   1.69107   1.69721
 Alpha virt. eigenvalues --    1.70791   1.71180   1.71836   1.72044   1.72490
 Alpha virt. eigenvalues --    1.73139   1.73473   1.73730   1.74460   1.75251
 Alpha virt. eigenvalues --    1.75903   1.76009   1.77482   1.78015   1.78494
 Alpha virt. eigenvalues --    1.79434   1.79727   1.80506   1.81092   1.81423
 Alpha virt. eigenvalues --    1.81724   1.82368   1.82690   1.83384   1.84309
 Alpha virt. eigenvalues --    1.85127   1.85731   1.85982   1.86987   1.87585
 Alpha virt. eigenvalues --    1.87981   1.88709   1.89003   1.89898   1.90372
 Alpha virt. eigenvalues --    1.90645   1.91348   1.92205   1.92341   1.93207
 Alpha virt. eigenvalues --    1.94024   1.95297   1.95565   1.96254   1.96955
 Alpha virt. eigenvalues --    1.97241   1.97401   1.98329   1.99087   1.99399
 Alpha virt. eigenvalues --    2.00154   2.00865   2.01611   2.03999   2.04963
 Alpha virt. eigenvalues --    2.05353   2.06000   2.06677   2.07348   2.07500
 Alpha virt. eigenvalues --    2.08033   2.08968   2.10125   2.11197   2.12358
 Alpha virt. eigenvalues --    2.13095   2.13754   2.14598   2.15276   2.16222
 Alpha virt. eigenvalues --    2.16412   2.17055   2.17850   2.17986   2.18568
 Alpha virt. eigenvalues --    2.19478   2.20440   2.20576   2.21923   2.22471
 Alpha virt. eigenvalues --    2.23443   2.23971   2.25879   2.26125   2.28088
 Alpha virt. eigenvalues --    2.28398   2.29662   2.30522   2.31067   2.31948
 Alpha virt. eigenvalues --    2.32563   2.32831   2.33620   2.34501   2.35156
 Alpha virt. eigenvalues --    2.36203   2.36475   2.37315   2.38583   2.39379
 Alpha virt. eigenvalues --    2.39677   2.40335   2.40426   2.42336   2.43534
 Alpha virt. eigenvalues --    2.44508   2.46875   2.48038   2.48548   2.49193
 Alpha virt. eigenvalues --    2.49675   2.50381   2.51313   2.51810   2.52051
 Alpha virt. eigenvalues --    2.52429   2.53588   2.53801   2.54465   2.55058
 Alpha virt. eigenvalues --    2.56410   2.57000   2.58513   2.59424   2.59578
 Alpha virt. eigenvalues --    2.60632   2.61633   2.62371   2.63941   2.64387
 Alpha virt. eigenvalues --    2.65296   2.66803   2.66996   2.67788   2.68019
 Alpha virt. eigenvalues --    2.69335   2.70525   2.71704   2.73934   2.75520
 Alpha virt. eigenvalues --    2.77028   2.78170   2.79963   2.83195   2.85972
 Alpha virt. eigenvalues --    2.86914   2.87418   2.90477   2.92013   2.92432
 Alpha virt. eigenvalues --    2.93729   2.94539   2.95111   2.95571   2.97204
 Alpha virt. eigenvalues --    2.99145   3.00845   3.01655   3.05175   3.08071
 Alpha virt. eigenvalues --    3.10950   3.32626   3.70264   3.72586   3.78819
 Alpha virt. eigenvalues --    3.80403   3.81906   3.86673   3.91490   3.92651
 Alpha virt. eigenvalues --    3.96436   4.00299   4.01462   4.04131   4.04318
 Alpha virt. eigenvalues --    4.07330   4.09385   4.11422   4.11764   4.14540
 Alpha virt. eigenvalues --    4.16514   4.17934   4.21999   4.23629   4.26246
 Alpha virt. eigenvalues --    4.28740   4.30942   4.32582   4.36387   4.38896
 Alpha virt. eigenvalues --    4.39591   4.41485   4.42835   4.43979   4.51157
 Alpha virt. eigenvalues --    4.54117   4.58500   4.61506   4.64573   4.66248
 Alpha virt. eigenvalues --    4.73123
          Condensed to atoms (all electrons):
 Mulliken charges:
               1
     1  N   -0.817283
     2  C   -0.042148
     3  C    0.604058
     4  O   -0.510300
     5  C   -0.375985
     6  C    0.606635
     7  N   -0.701160
     8  O   -0.513425
     9  H    0.309303
    10  H    0.445621
    11  H    0.185862
    12  H    0.210778
    13  H    0.227566
    14  H    0.371937
    15  H    0.455568
    16  H    0.390195
    17  N   -0.644532
    18  C   -0.079544
    19  C    0.618065
    20  O   -0.527313
    21  C   -0.354622
    22  C    0.169116
    23  C   -0.181286
    24  C   -0.211538
    25  C   -0.143557
    26  C   -0.132606
    27  C   -0.144468
    28  H    0.393972
    29  H    0.209173
    30  H    0.148984
    31  H    0.190781
    32  H    0.161041
    33  H    0.129564
    34  H    0.154052
    35  H    0.141156
    36  H    0.147102
    37  N   -0.620564
    38  C   -0.058847
    39  C    0.653775
    40  O   -0.565752
    41  C   -0.392309
    42  C    0.606083
    43  N   -0.741715
    44  O   -0.520270
    45  H    0.372844
    46  H    0.209119
    47  H    0.197244
    48  H    0.205797
    49  H    0.360728
    50  H    0.355147
    51  N   -0.620705
    52  C   -0.088145
    53  C    0.718382
    54  O   -0.552243
    55  C   -0.298112
    56  C   -0.293932
    57  C   -0.124237
    58  N   -0.638853
    59  C    0.582101
    60  N   -0.678167
    61  N   -0.780279
    62  O   -0.589355
    63  H    0.433323
    64  H    0.409349
    65  H    0.210238
    66  H    0.115296
    67  H    0.188532
    68  H    0.157502
    69  H    0.231094
    70  H    0.131753
    71  H    0.184837
    72  H    0.334321
    73  H    0.318817
    74  H    0.370433
    75  H    0.326007
 Sum of Mulliken charges =   1.00000
 Mulliken charges with hydrogens summed into heavy atoms:
               1
     1  N   -0.117785
     2  C    0.143714
     3  C    0.604058
     4  O   -0.510300
     5  C    0.062359
     6  C    0.606635
     7  N    0.126345
     8  O   -0.067804
    17  N   -0.250561
    18  C    0.129630
    19  C    0.618065
    20  O   -0.527313
    21  C   -0.014857
    22  C    0.169116
    23  C   -0.020245
    24  C   -0.081974
    25  C    0.010494
    26  C    0.008550
    27  C    0.002634
    37  N   -0.247720
    38  C    0.150272
    39  C    0.653775
    40  O   -0.565752
    41  C    0.010732
    42  C    0.606083
    43  N   -0.025840
    44  O   -0.520270
    51  N   -0.211355
    52  C    0.122093
    53  C    0.718382
    54  O   -0.552243
    55  C    0.005717
    56  C    0.094665
    57  C    0.192353
    58  N   -0.304531
    59  C    0.582101
    60  N   -0.359349
    61  N   -0.083840
    62  O   -0.156032
 Electronic spatial extent (au):  <R**2>=         137340.7537
 Charge=              1.0000 electrons
 Dipole moment (field-independent basis, Debye):
    X=            -40.7168    Y=              0.0667    Z=            -45.8507  Tot=             61.3201
 Quadrupole moment (field-independent basis, Debye-Ang):
   XX=            210.0991   YY=           -216.1517   ZZ=            239.0466
   XY=            -28.3303   XZ=            392.3305   YZ=             10.1536
 Traceless Quadrupole moment (field-independent basis, Debye-Ang):
   XX=            132.4344   YY=           -293.8164   ZZ=            161.3819
   XY=            -28.3303   XZ=            392.3305   YZ=             10.1536
 Octapole moment (field-independent basis, Debye-Ang**2):
  XXX=            226.9575  YYY=           1154.6378  ZZZ=            289.8310  XYY=           1530.4602
  XXY=            705.2433  XXZ=          -2376.2994  XZZ=          -2344.9709  YZZ=            135.2917
  YYZ=           1581.2453  XYZ=            156.6374
 Hexadecapole moment (field-independent basis, Debye-Ang**3):
 XXXX=         -28947.2153 YYYY=          -9689.1652 ZZZZ=         -33831.8438 XXXY=         -10693.3722
 XXXZ=           6793.7722 YYYX=          -6974.5738 YYYZ=          -9843.7814 ZZZX=           5317.1276
 ZZZY=          -5692.3254 XXYY=         -13329.5640 XXZZ=          12756.9630 YYZZ=         -13952.3780
 XXYZ=          -5461.5343 YYXZ=         -10743.2833 ZZXY=          -2557.5453
 N-N= 5.244194853350D+03 E-N=-1.492959785486D+04  KE= 1.899790773129D+03
 Unable to Open any file for archive entry.
 1\1\GINC-LAC-312\SP\RB3LYP\6-31G(d)\C23H36N9O7(1+)\KENGMITH\07-Jun-202
 2\0\\# B3LYP/6-31G* empiricaldispersion=gd3 guess=read geom=check nosy
 mm integral(ultrafinegrid)\\Candidate Structure: Conf:123 Charge calc 
 in gas phase\\1,1\N,0,-7.6353496045,1.1273426589,-8.7994582526\C,0,-8.
 0054486263,1.3227060934,-7.3942314922\C,0,-7.1646616399,0.4372841863,-
 6.4439566205\O,0,-6.4373688008,0.953198172,-5.6052112007\C,0,-9.528542
 5168,0.987734658,-7.1305254498\C,0,-10.3863759957,1.2778611897,-8.3008
 687943\N,0,-10.5299636641,0.3982041114,-9.2544598404\O,0,-10.956362696
 7,2.4634407308,-8.3295260164\H,0,-7.7578270521,2.0064048596,-9.3009102
 087\H,0,-11.4970339461,2.6289810052,-9.1249563081\H,0,-7.8289396737,2.
 3447741282,-7.0442421729\H,0,-9.6372090026,-0.0710134699,-6.8949747639
 \H,0,-9.8870223416,1.5480126489,-6.2647542973\H,0,-11.0613911373,0.577
 8472793,-10.1003245978\H,0,-9.9747685729,-0.4801974114,-9.2156602983\H
 ,0,-6.6387674927,0.903537892,-8.8699853081\N,0,-7.3195460954,-0.912285
 0593,-6.5803059207\C,0,-6.9471158864,-1.8239068558,-5.4992154971\C,0,-
 6.1664232919,-3.0554861753,-6.010645685\O,0,-6.5854139265,-4.193936580
 6,-5.7939967102\C,0,-8.1859156893,-2.294986908,-4.7002051472\C,0,-9.17
 32687607,-1.1979222452,-4.3627577474\C,0,-8.7822203583,-0.0153416434,-
 3.7174847999\C,0,-10.5261120802,-1.3560115974,-4.6972695795\C,0,-9.714
 6107763,0.9827352786,-3.4291284078\C,0,-11.4646941229,-0.3639286845,-4
 .4027672805\C,0,-11.0599599143,0.8132816282,-3.7703698249\H,0,-7.84744
 18161,-1.2815690974,-7.3686878633\H,0,-6.2817905984,-1.2483063973,-4.8
 48454963\H,0,-8.6953450172,-3.0712317845,-5.277914128\H,0,-7.828303244
 3,-2.794733396,-3.7922239511\H,0,-7.7401156199,0.1411725366,-3.4574750
 377\H,0,-10.8503833532,-2.27443845,-5.1826277928\H,0,-9.3894779518,1.8
 906560135,-2.9287956107\H,0,-12.5103524442,-0.5163177424,-4.6572445407
 \H,0,-11.7861711185,1.5853442722,-3.5315543815\N,0,-4.9943688386,-2.85
 94676596,-6.6768850589\C,0,-4.490728688,-1.6124109541,-7.2302876711\C,
 0,-5.1601371162,-1.2002020732,-8.5543166223\O,0,-4.9819442608,-0.05330
 89422,-8.977228149\C,0,-2.962746335,-1.64081459,-7.3957859887\C,0,-2.5
 019378468,-2.7169214859,-8.3807847147\N,0,-1.1798464646,-2.7123883552,
 -8.6738797013\O,0,-3.2872610514,-3.5305242935,-8.8666620586\H,0,-4.597
 7384406,-3.7035234278,-7.0826570416\H,0,-4.7186867002,-0.7938607774,-6
 .5425251754\H,0,-2.4956400405,-1.8133208132,-6.4188140959\H,0,-2.64121
 71376,-0.6535864041,-7.7451708951\H,0,-0.8178798788,-3.4310647205,-9.2
 861022586\H,0,-0.5322955513,-2.0533861001,-8.2673332478\N,0,-5.9634978
 135,-2.1083005102,-9.1567879765\C,0,-6.6696343714,-1.7931915241,-10.37
 35460276\C,0,-8.1821287073,-1.849035301,-10.1512924915\O,0,-8.73858525
 33,-1.7437066101,-9.0596568481\C,0,-6.1046825836,-2.5558466193,-11.599
 1209377\C,0,-5.9259381259,-4.0723526667,-11.455739084\C,0,-7.214422746
 1,-4.8858218207,-11.2994000971\N,0,-8.057473701,-4.4505344417,-10.1717
 777538\C,0,-7.6781664609,-4.810960993,-8.8676547176\N,0,-6.469665093,-
 5.1841833131,-8.6399477926\N,0,-8.7148021702,-4.6948491288,-7.94824988
 93\O,0,-8.9616447649,-1.7472065133,-11.2420725552\H,0,-8.4350431081,-1
 .8709348545,-12.0509971356\H,0,-5.9167915595,-3.0876183506,-8.87227814
 87\H,0,-6.4973977317,-0.7220398151,-10.5503438477\H,0,-6.6996679794,-2
 .3248320757,-12.4996365594\H,0,-5.1226238869,-2.1106377794,-11.7902289
 304\H,0,-5.42018701,-4.4326792801,-12.3602036129\H,0,-5.2545456085,-4.
 2879669674,-10.6214153842\H,0,-7.8325974774,-4.7755242114,-12.19914638
 76\H,0,-6.9523649708,-5.945555015,-11.1947953828\H,0,-9.0433481069,-4.
 625722396,-10.3355839243\H,0,-6.3312546855,-5.3516021229,-7.6426325928
 \H,0,-8.3897633055,-4.7110252511,-6.9858334436\H,0,-9.3545503085,-3.92
 79446966,-8.1265750887\\Version=ES64L-G16RevC.01\HF=-1917.4489848\RMSD
 =9.609e-09\Dipole=-2.2566078,2.9922026,-3.3743752\Quadrupole=98.461751
 3,-218.4452666,119.9835152,-21.0628606,291.6881071,7.5489688\PG=C01 [X
 (C23H36N9O7)]\\@
 The archive entry for this job was punched.


 Everywhere is walking distance if you have the time.
                                    -- Steven Wright
 Job cpu time:       0 days  0 hours  4 minutes 32.4 seconds.
 Elapsed time:       0 days  0 hours  1 minutes  9.2 seconds.
 File lengths (MBytes):  RWF=    344 Int=      0 D2E=      0 Chk=     48 Scr=     16
 Normal termination of Gaussian 16 at Tue Jun  7 01:06:39 2022.
