 Entering Gaussian System, Link 0=/opt/software/Gaussian/g16-AVX2-C.01/g16/g16
 Input=charge-conf-90.com
 Output=charge-conf-90.log
 Initial command:
 /opt/software/Gaussian/g16-AVX2-C.01/g16/l1.exe "/mnt/gs18/scratch/users/kengmith/Gau-28463.inp" -scrdir="/mnt/gs18/scratch/users/kengmith/"
 Entering Link 1 = /opt/software/Gaussian/g16-AVX2-C.01/g16/l1.exe PID=     28473.
  
 Copyright (c) 1988-2019, Gaussian, Inc.  All Rights Reserved.
  
 This is part of the Gaussian(R) 16 program.  It is based on
 the Gaussian(R) 09 system (copyright 2009, Gaussian, Inc.),
 the Gaussian(R) 03 system (copyright 2003, Gaussian, Inc.),
 the Gaussian(R) 98 system (copyright 1998, Gaussian, Inc.),
 the Gaussian(R) 94 system (copyright 1995, Gaussian, Inc.),
 the Gaussian 92(TM) system (copyright 1992, Gaussian, Inc.),
 the Gaussian 90(TM) system (copyright 1990, Gaussian, Inc.),
 the Gaussian 88(TM) system (copyright 1988, Gaussian, Inc.),
 the Gaussian 86(TM) system (copyright 1986, Carnegie Mellon
 University), and the Gaussian 82(TM) system (copyright 1983,
 Carnegie Mellon University). Gaussian is a federally registered
 trademark of Gaussian, Inc.
  
 This software contains proprietary and confidential information,
 including trade secrets, belonging to Gaussian, Inc.
  
 This software is provided under written license and may be
 used, copied, transmitted, or stored only in accord with that
 written license.
  
 The following legend is applicable only to US Government
 contracts under FAR:
  
                    RESTRICTED RIGHTS LEGEND
  
 Use, reproduction and disclosure by the US Government is
 subject to restrictions as set forth in subparagraphs (a)
 and (c) of the Commercial Computer Software - Restricted
 Rights clause in FAR 52.227-19.
  
 Gaussian, Inc.
 340 Quinnipiac St., Bldg. 40, Wallingford CT 06492
  
  
 ---------------------------------------------------------------
 Warning -- This program may not be used in any manner that
 competes with the business of Gaussian, Inc. or will provide
 assistance to any competitor of Gaussian, Inc.  The licensee
 of this program is prohibited from giving any competitor of
 Gaussian, Inc. access to this program.  By using this program,
 the user acknowledges that Gaussian, Inc. is engaged in the
 business of creating and licensing software in the field of
 computational chemistry and represents and warrants to the
 licensee that it is not a competitor of Gaussian, Inc. and that
 it will not use this program in any manner prohibited above.
 ---------------------------------------------------------------
  

 Cite this work as:
 Gaussian 16, Revision C.01,
 M. J. Frisch, G. W. Trucks, H. B. Schlegel, G. E. Scuseria, 
 M. A. Robb, J. R. Cheeseman, G. Scalmani, V. Barone, 
 G. A. Petersson, H. Nakatsuji, X. Li, M. Caricato, A. V. Marenich, 
 J. Bloino, B. G. Janesko, R. Gomperts, B. Mennucci, H. P. Hratchian, 
 J. V. Ortiz, A. F. Izmaylov, J. L. Sonnenberg, D. Williams-Young, 
 F. Ding, F. Lipparini, F. Egidi, J. Goings, B. Peng, A. Petrone, 
 T. Henderson, D. Ranasinghe, V. G. Zakrzewski, J. Gao, N. Rega, 
 G. Zheng, W. Liang, M. Hada, M. Ehara, K. Toyota, R. Fukuda, 
 J. Hasegawa, M. Ishida, T. Nakajima, Y. Honda, O. Kitao, H. Nakai, 
 T. Vreven, K. Throssell, J. A. Montgomery, Jr., J. E. Peralta, 
 F. Ogliaro, M. J. Bearpark, J. J. Heyd, E. N. Brothers, K. N. Kudin, 
 V. N. Staroverov, T. A. Keith, R. Kobayashi, J. Normand, 
 K. Raghavachari, A. P. Rendell, J. C. Burant, S. S. Iyengar, 
 J. Tomasi, M. Cossi, J. M. Millam, M. Klene, C. Adamo, R. Cammi, 
 J. W. Ochterski, R. L. Martin, K. Morokuma, O. Farkas, 
 J. B. Foresman, and D. J. Fox, Gaussian, Inc., Wallingford CT, 2019.
 
 ******************************************
 Gaussian 16:  ES64L-G16RevC.01  3-Jul-2019
                 7-Jun-2022 
 ******************************************
 %mem=8gb
 %nproc=4
 Will use up to    4 processors via shared memory.
 %chk=conf-90.chk
 ----------------------------------------------------------------------
 # B3LYP/6-31G* empiricaldispersion=gd3 guess=read geom=check nosymm in
 tegral(ultrafinegrid)
 ----------------------------------------------------------------------
 1/29=2,38=1,172=1/1;
 2/12=2,15=1,40=1/2;
 3/5=1,6=6,7=1,11=2,14=-4,25=1,30=1,74=-5,75=-5,116=-2,124=31/1,2,3;
 4/5=1/1;
 5/5=2,38=6/2;
 6/7=2,8=2,9=2,10=2,28=1/1;
 99/5=1,9=1/99;
 -----------------------------------------------------
 Candidate Structure: Conf:90 Charge calc in gas phase
 -----------------------------------------------------
 Structure from the checkpoint file:  "conf-90.chk"
 Charge =  1 Multiplicity = 1
 Redundant internal coordinates found in file.  (old form).
 N,0,-8.7869127958,1.6395163677,-8.5267805461
 C,0,-9.53135955,0.9898475007,-7.4401449084
 C,0,-8.6477815679,0.3053702314,-6.3791861717
 O,0,-8.3730904047,0.904497451,-5.3452343182
 C,0,-10.6180273168,0.027694495,-8.0158441469
 C,0,-11.0879560297,0.5850072059,-9.3117449754
 N,0,-10.6472645872,0.1064279262,-10.4433531386
 O,0,-11.9581565624,1.5609297205,-9.2306171213
 H,0,-8.006857542,1.0619930748,-8.8420905716
 H,0,-12.1738543432,1.975631957,-10.0868406216
 H,0,-10.0520768791,1.7762755847,-6.8907091816
 H,0,-10.2422657557,-0.9790812713,-8.185459998
 H,0,-11.4559463131,-0.0529995722,-7.3182955506
 H,0,-10.8681352169,0.5238994716,-11.3414696901
 H,0,-9.8588535983,-0.5639570905,-10.4007640562
 H,0,-8.3525730009,2.4862006493,-8.1645063833
 N,0,-8.1477813386,-0.9412549944,-6.6576049951
 C,0,-7.737858218,-1.8133366458,-5.5582044083
 C,0,-6.323695462,-2.4067000839,-5.6874719469
 O,0,-6.130819587,-3.5820594054,-5.3766803295
 C,0,-8.7666169177,-2.9517034653,-5.3495482228
 C,0,-10.2045037823,-2.4814493388,-5.416378337
 C,0,-10.6765147765,-1.4423997141,-4.5993936989
 C,0,-11.0980863669,-3.0776325074,-6.3163131273
 C,0,-12.0020658181,-1.0134616282,-4.6824304853
 C,0,-12.4288715882,-2.6588720953,-6.3962894468
 C,0,-12.8854510472,-1.6218493061,-5.5802818323
 H,0,-8.3690972542,-1.3859090114,-7.5413554183
 H,0,-7.7127766618,-1.1616761087,-4.6781962001
 H,0,-8.5910788138,-3.725042197,-6.1048696794
 H,0,-8.5507991645,-3.4265530598,-4.3868939946
 H,0,-10.0028820862,-0.9537735273,-3.9010684945
 H,0,-10.7515185267,-3.8897997316,-6.9517845396
 H,0,-12.3477611293,-0.210487245,-4.0372817017
 H,0,-13.1081353018,-3.1484031198,-7.0892290753
 H,0,-13.9214011302,-1.2983790807,-5.6320523835
 N,0,-5.2782496105,-1.6131035362,-6.0592711095
 C,0,-5.3000063181,-0.3312669584,-6.7453963067
 C,0,-5.7099923301,-0.4325071461,-8.2254072098
 O,0,-6.0248447735,0.5842969884,-8.8579848526
 C,0,-3.9345251421,0.3769210874,-6.6297525701
 C,0,-2.7769233195,-0.4087096194,-7.2454758092
 N,0,-1.742941762,0.3292138931,-7.70777064
 O,0,-2.7769194796,-1.6417833227,-7.3028711278
 H,0,-4.3945147605,-2.1090766431,-6.1379529428
 H,0,-6.0316396296,0.327232892,-6.2740727982
 H,0,-3.7105409964,0.5298544379,-5.5667855313
 H,0,-4.0268138415,1.3634302502,-7.0943111584
 H,0,-0.9121557648,-0.1522184088,-8.026913959
 H,0,-1.712442399,1.3349981107,-7.6264154906
 N,0,-5.7211873404,-1.6555119322,-8.7975355507
 C,0,-6.0219357931,-1.762044318,-10.2071211586
 C,0,-7.4269033676,-1.241321648,-10.4872477137
 O,0,-8.3912265722,-1.412432893,-9.7528249063
 C,0,-5.9391445152,-3.2285317397,-10.6949409895
 C,0,-4.5163828535,-3.7524349595,-10.9330482007
 C,0,-3.5568478673,-3.7199252508,-9.7316674248
 N,0,-4.1634383127,-4.0586640351,-8.4304428443
 C,0,-4.6004542712,-5.3868230409,-8.2136436525
 N,0,-4.8058222979,-6.1551043694,-9.221842769
 N,0,-4.7186575649,-5.6808662396,-6.8656600323
 O,0,-7.6367782935,-0.6475196693,-11.670281431
 H,0,-6.7985483643,-0.4942358745,-12.1408179472
 H,0,-5.314529509,-2.4908726235,-8.3515806605
 H,0,-5.3174008156,-1.1401865368,-10.7809918571
 H,0,-6.4597494535,-3.8676673943,-9.9740825863
 H,0,-6.4903491641,-3.3076645287,-11.6404986795
 H,0,-4.6173571145,-4.7865440043,-11.2650813963
 H,0,-4.0480355954,-3.1809050966,-11.7467922596
 H,0,-2.718033164,-4.3922764224,-9.9535943649
 H,0,-3.1490133506,-2.7134594032,-9.5953609763
 H,0,-3.5370891861,-3.756393659,-7.6884991355
 H,0,-5.17189515,-7.0605230991,-8.9242998889
 H,0,-5.17804812,-6.5591348262,-6.6617991553
 H,0,-5.0356779115,-4.9272024268,-6.2553636166
 Recover connectivity data from disk.
                           ----------------------------
                           !    Current Parameters    !
                           ! (Angstroms and Degrees)  !
 --------------------------                            --------------------------
 ! Name  Definition              Value                                          !
 --------------------------------------------------------------------------------
 ! R1    R(1,2)                  1.4687                                         !
 ! R2    R(1,9)                  1.0205                                         !
 ! R3    R(1,16)                 1.0182                                         !
 ! R4    R(2,3)                  1.5411                                         !
 ! R5    R(2,5)                  1.5614                                         !
 ! R6    R(2,11)                 1.0916                                         !
 ! R7    R(3,4)                  1.2262                                         !
 ! R8    R(3,17)                 1.3717                                         !
 ! R9    R(5,6)                  1.4869                                         !
 ! R10   R(5,12)                 1.0879                                         !
 ! R11   R(5,13)                 1.0932                                         !
 ! R12   R(6,7)                  1.3053                                         !
 ! R13   R(6,8)                  1.3101                                         !
 ! R14   R(7,14)                 1.0147                                         !
 ! R15   R(7,15)                 1.0358                                         !
 ! R16   R(8,10)                 0.9755                                         !
 ! R17   R(17,18)                1.4619                                         !
 ! R18   R(17,28)                1.0138                                         !
 ! R19   R(18,19)                1.539                                          !
 ! R20   R(18,21)                1.5485                                         !
 ! R21   R(18,29)                1.0953                                         !
 ! R22   R(19,20)                1.231                                          !
 ! R23   R(19,37)                1.3642                                         !
 ! R24   R(21,22)                1.5143                                         !
 ! R25   R(21,30)                1.0952                                         !
 ! R26   R(21,31)                1.0949                                         !
 ! R27   R(22,23)                1.4035                                         !
 ! R28   R(22,24)                1.4014                                         !
 ! R29   R(23,25)                1.3957                                         !
 ! R30   R(23,32)                1.0864                                         !
 ! R31   R(24,26)                1.3974                                         !
 ! R32   R(24,33)                1.0879                                         !
 ! R33   R(25,27)                1.3988                                         !
 ! R34   R(25,34)                1.0865                                         !
 ! R35   R(26,27)                1.3963                                         !
 ! R36   R(26,35)                1.0868                                         !
 ! R37   R(27,36)                1.0865                                         !
 ! R38   R(37,38)                1.4541                                         !
 ! R39   R(37,45)                1.0164                                         !
 ! R40   R(38,39)                1.5391                                         !
 ! R41   R(38,41)                1.5425                                         !
 ! R42   R(38,46)                1.0914                                         !
 ! R43   R(39,40)                1.2382                                         !
 ! R44   R(39,51)                1.3503                                         !
 ! R45   R(41,42)                1.5285                                         !
 ! R46   R(41,47)                1.097                                          !
 ! R47   R(41,48)                1.0943                                         !
 ! R48   R(42,43)                1.3518                                         !
 ! R49   R(42,44)                1.2344                                         !
 ! R50   R(43,49)                1.0118                                         !
 ! R51   R(43,50)                1.0095                                         !
 ! R52   R(51,52)                1.4452                                         !
 ! R53   R(51,64)                1.0306                                         !
 ! R54   R(52,53)                1.5243                                         !
 ! R55   R(52,55)                1.5477                                         !
 ! R56   R(52,65)                1.1011                                         !
 ! R57   R(53,54)                1.2242                                         !
 ! R58   R(53,62)                1.3402                                         !
 ! R59   R(55,56)                1.5347                                         !
 ! R60   R(55,66)                1.0951                                         !
 ! R61   R(55,67)                1.0973                                         !
 ! R62   R(56,57)                1.5379                                         !
 ! R63   R(56,68)                1.0908                                         !
 ! R64   R(56,69)                1.0992                                         !
 ! R65   R(57,58)                1.4751                                         !
 ! R66   R(57,70)                1.0977                                         !
 ! R67   R(57,71)                1.0945                                         !
 ! R68   R(58,59)                1.4149                                         !
 ! R69   R(58,72)                1.0169                                         !
 ! R70   R(59,60)                1.2841                                         !
 ! R71   R(59,61)                1.3847                                         !
 ! R72   R(60,73)                1.0209                                         !
 ! R73   R(61,74)                1.0119                                         !
 ! R74   R(61,75)                1.0203                                         !
 ! R75   R(62,63)                0.9734                                         !
 ! A1    A(2,1,9)              111.4516                                         !
 ! A2    A(2,1,16)             108.7116                                         !
 ! A3    A(9,1,16)             104.741                                          !
 ! A4    A(1,2,3)              114.5332                                         !
 ! A5    A(1,2,5)              110.6432                                         !
 ! A6    A(1,2,11)             107.1887                                         !
 ! A7    A(3,2,5)              112.2825                                         !
 ! A8    A(3,2,11)             104.2989                                         !
 ! A9    A(5,2,11)             107.3102                                         !
 ! A10   A(2,3,4)              119.4697                                         !
 ! A11   A(2,3,17)             118.2236                                         !
 ! A12   A(4,3,17)             122.2463                                         !
 ! A13   A(2,5,6)              108.0795                                         !
 ! A14   A(2,5,12)             112.7899                                         !
 ! A15   A(2,5,13)             110.0989                                         !
 ! A16   A(6,5,12)             108.6717                                         !
 ! A17   A(6,5,13)             109.9701                                         !
 ! A18   A(12,5,13)            107.2115                                         !
 ! A19   A(5,6,7)              120.7611                                         !
 ! A20   A(5,6,8)              115.7971                                         !
 ! A21   A(7,6,8)              123.4411                                         !
 ! A22   A(6,7,14)             122.8867                                         !
 ! A23   A(6,7,15)             117.2999                                         !
 ! A24   A(14,7,15)            117.9275                                         !
 ! A25   A(6,8,10)             114.1549                                         !
 ! A26   A(3,17,18)            119.4523                                         !
 ! A27   A(3,17,28)            119.7348                                         !
 ! A28   A(18,17,28)           117.0741                                         !
 ! A29   A(17,18,19)           115.117                                          !
 ! A30   A(17,18,21)           110.7068                                         !
 ! A31   A(17,18,29)           104.8157                                         !
 ! A32   A(19,18,21)           109.7763                                         !
 ! A33   A(19,18,29)           106.0109                                         !
 ! A34   A(21,18,29)           110.1412                                         !
 ! A35   A(18,19,20)           119.3994                                         !
 ! A36   A(18,19,37)           120.1841                                         !
 ! A37   A(20,19,37)           120.278                                          !
 ! A38   A(18,21,22)           113.3658                                         !
 ! A39   A(18,21,30)           108.6448                                         !
 ! A40   A(18,21,31)           107.8397                                         !
 ! A41   A(22,21,30)           109.9405                                         !
 ! A42   A(22,21,31)           111.1403                                         !
 ! A43   A(30,21,31)           105.578                                          !
 ! A44   A(21,22,23)           121.5701                                         !
 ! A45   A(21,22,24)           120.1127                                         !
 ! A46   A(23,22,24)           118.3152                                         !
 ! A47   A(22,23,25)           120.8165                                         !
 ! A48   A(22,23,32)           119.9086                                         !
 ! A49   A(25,23,32)           119.2701                                         !
 ! A50   A(22,24,26)           121.099                                          !
 ! A51   A(22,24,33)           119.3132                                         !
 ! A52   A(26,24,33)           119.5814                                         !
 ! A53   A(23,25,27)           120.2856                                         !
 ! A54   A(23,25,34)           119.6028                                         !
 ! A55   A(27,25,34)           120.1082                                         !
 ! A56   A(24,26,27)           120.0335                                         !
 ! A57   A(24,26,35)           119.7826                                         !
 ! A58   A(27,26,35)           120.182                                          !
 ! A59   A(25,27,26)           119.4472                                         !
 ! A60   A(25,27,36)           120.2146                                         !
 ! A61   A(26,27,36)           120.3332                                         !
 ! A62   A(19,37,38)           129.0476                                         !
 ! A63   A(19,37,45)           113.7993                                         !
 ! A64   A(38,37,45)           113.9933                                         !
 ! A65   A(37,38,39)           113.5626                                         !
 ! A66   A(37,38,41)           110.8609                                         !
 ! A67   A(37,38,46)           109.7644                                         !
 ! A68   A(39,38,41)           109.7611                                         !
 ! A69   A(39,38,46)           106.0457                                         !
 ! A70   A(41,38,46)           106.5019                                         !
 ! A71   A(38,39,40)           120.3307                                         !
 ! A72   A(38,39,51)           117.9853                                         !
 ! A73   A(40,39,51)           121.6829                                         !
 ! A74   A(38,41,42)           113.8431                                         !
 ! A75   A(38,41,47)           108.5047                                         !
 ! A76   A(38,41,48)           107.9023                                         !
 ! A77   A(42,41,47)           107.8992                                         !
 ! A78   A(42,41,48)           110.8676                                         !
 ! A79   A(47,41,48)           107.631                                          !
 ! A80   A(41,42,43)           115.8786                                         !
 ! A81   A(41,42,44)           122.1514                                         !
 ! A82   A(43,42,44)           121.9641                                         !
 ! A83   A(42,43,49)           118.4347                                         !
 ! A84   A(42,43,50)           122.6432                                         !
 ! A85   A(49,43,50)           118.3361                                         !
 ! A86   A(39,51,52)           118.8                                            !
 ! A87   A(39,51,64)           123.2                                            !
 ! A88   A(52,51,64)           116.3858                                         !
 ! A89   A(51,52,53)           110.2342                                         !
 ! A90   A(51,52,55)           111.4768                                         !
 ! A91   A(51,52,65)           109.484                                          !
 ! A92   A(53,52,55)           108.3647                                         !
 ! A93   A(53,52,65)           107.5203                                         !
 ! A94   A(55,52,65)           109.6716                                         !
 ! A95   A(52,53,54)           124.615                                          !
 ! A96   A(52,53,62)           117.252                                          !
 ! A97   A(54,53,62)           117.9139                                         !
 ! A98   A(52,55,56)           114.957                                          !
 ! A99   A(52,55,66)           108.6695                                         !
 ! A100  A(52,55,67)           108.2431                                         !
 ! A101  A(56,55,66)           110.0974                                         !
 ! A102  A(56,55,67)           107.9                                            !
 ! A103  A(66,55,67)           106.6386                                         !
 ! A104  A(55,56,57)           116.7434                                         !
 ! A105  A(55,56,68)           106.5609                                         !
 ! A106  A(55,56,69)           109.4124                                         !
 ! A107  A(57,56,68)           108.3965                                         !
 ! A108  A(57,56,69)           107.5473                                         !
 ! A109  A(68,56,69)           107.8807                                         !
 ! A110  A(56,57,58)           115.3208                                         !
 ! A111  A(56,57,70)           107.8124                                         !
 ! A112  A(56,57,71)           110.4399                                         !
 ! A113  A(58,57,70)           110.6055                                         !
 ! A114  A(58,57,71)           104.7467                                         !
 ! A115  A(70,57,71)           107.6793                                         !
 ! A116  A(57,58,59)           118.5376                                         !
 ! A117  A(57,58,72)           108.7873                                         !
 ! A118  A(59,58,72)           110.944                                          !
 ! A119  A(58,59,60)           119.3875                                         !
 ! A120  A(58,59,61)           112.0149                                         !
 ! A121  A(60,59,61)           128.5799                                         !
 ! A122  A(59,60,73)           111.0467                                         !
 ! A123  A(59,61,74)           114.7822                                         !
 ! A124  A(59,61,75)           116.8693                                         !
 ! A125  A(74,61,75)           112.3064                                         !
 ! A126  A(53,62,63)           111.1992                                         !
 ! D1    D(9,1,2,3)             42.0469                                         !
 ! D2    D(9,1,2,5)            -86.076                                          !
 ! D3    D(9,1,2,11)           157.2212                                         !
 ! D4    D(16,1,2,3)           -72.8972                                         !
 ! D5    D(16,1,2,5)           158.9798                                         !
 ! D6    D(16,1,2,11)           42.277                                          !
 ! D7    D(1,2,3,4)             96.5192                                         !
 ! D8    D(1,2,3,17)           -80.7179                                         !
 ! D9    D(5,2,3,4)           -136.1916                                         !
 ! D10   D(5,2,3,17)            46.5713                                         !
 ! D11   D(11,2,3,4)           -20.3249                                         !
 ! D12   D(11,2,3,17)          162.438                                          !
 ! D13   D(1,2,5,6)            -31.3333                                         !
 ! D14   D(1,2,5,12)            88.829                                          !
 ! D15   D(1,2,5,13)          -151.4673                                         !
 ! D16   D(3,2,5,6)           -160.6713                                         !
 ! D17   D(3,2,5,12)           -40.5089                                         !
 ! D18   D(3,2,5,13)            79.1947                                         !
 ! D19   D(11,2,5,6)            85.2944                                         !
 ! D20   D(11,2,5,12)         -154.5433                                         !
 ! D21   D(11,2,5,13)          -34.8396                                         !
 ! D22   D(2,3,17,18)         -157.9118                                         !
 ! D23   D(2,3,17,28)           -0.3205                                         !
 ! D24   D(4,3,17,18)           24.9323                                         !
 ! D25   D(4,3,17,28)         -177.4763                                         !
 ! D26   D(2,5,6,7)            100.7153                                         !
 ! D27   D(2,5,6,8)            -79.5905                                         !
 ! D28   D(12,5,6,7)           -21.9974                                         !
 ! D29   D(12,5,6,8)           157.6968                                         !
 ! D30   D(13,5,6,7)          -139.0699                                         !
 ! D31   D(13,5,6,8)            40.6243                                         !
 ! D32   D(5,6,7,14)          -173.3105                                         !
 ! D33   D(5,6,7,15)            -9.2871                                         !
 ! D34   D(8,6,7,14)             7.0194                                         !
 ! D35   D(8,6,7,15)           171.0428                                         !
 ! D36   D(5,6,8,10)           173.4394                                         !
 ! D37   D(7,6,8,10)            -6.8754                                         !
 ! D38   D(3,17,18,19)        -128.7647                                         !
 ! D39   D(3,17,18,21)         106.0168                                         !
 ! D40   D(3,17,18,29)         -12.7182                                         !
 ! D41   D(28,17,18,19)         73.0591                                         !
 ! D42   D(28,17,18,21)        -52.1595                                         !
 ! D43   D(28,17,18,29)       -170.8944                                         !
 ! D44   D(17,18,19,20)       -138.9638                                         !
 ! D45   D(17,18,19,37)         45.3021                                         !
 ! D46   D(21,18,19,20)        -13.2635                                         !
 ! D47   D(21,18,19,37)        171.0024                                         !
 ! D48   D(29,18,19,20)        105.6743                                         !
 ! D49   D(29,18,19,37)        -70.0598                                         !
 ! D50   D(17,18,21,22)        -43.3016                                         !
 ! D51   D(17,18,21,30)         79.2364                                         !
 ! D52   D(17,18,21,31)       -166.7892                                         !
 ! D53   D(19,18,21,22)       -171.4818                                         !
 ! D54   D(19,18,21,30)        -48.9438                                         !
 ! D55   D(19,18,21,31)         65.0306                                         !
 ! D56   D(29,18,21,22)         72.1542                                         !
 ! D57   D(29,18,21,30)       -165.3078                                         !
 ! D58   D(29,18,21,31)        -51.3334                                         !
 ! D59   D(18,19,37,38)        -20.029                                          !
 ! D60   D(18,19,37,45)       -178.4642                                         !
 ! D61   D(20,19,37,38)        164.2747                                         !
 ! D62   D(20,19,37,45)          5.8395                                         !
 ! D63   D(18,21,22,23)        -54.8743                                         !
 ! D64   D(18,21,22,24)        124.5968                                         !
 ! D65   D(30,21,22,23)       -176.6914                                         !
 ! D66   D(30,21,22,24)          2.7797                                         !
 ! D67   D(31,21,22,23)         66.7845                                         !
 ! D68   D(31,21,22,24)       -113.7444                                         !
 ! D69   D(21,22,23,25)        179.4262                                         !
 ! D70   D(21,22,23,32)          0.2244                                         !
 ! D71   D(24,22,23,25)         -0.0541                                         !
 ! D72   D(24,22,23,32)       -179.2559                                         !
 ! D73   D(21,22,24,26)       -179.9262                                         !
 ! D74   D(21,22,24,33)          0.9932                                         !
 ! D75   D(23,22,24,26)         -0.4381                                         !
 ! D76   D(23,22,24,33)       -179.5186                                         !
 ! D77   D(22,23,25,27)          0.3848                                         !
 ! D78   D(22,23,25,34)        179.7164                                         !
 ! D79   D(32,23,25,27)        179.5917                                         !
 ! D80   D(32,23,25,34)         -1.0768                                         !
 ! D81   D(22,24,26,27)          0.6007                                         !
 ! D82   D(22,24,26,35)       -178.8918                                         !
 ! D83   D(33,24,26,27)        179.6788                                         !
 ! D84   D(33,24,26,35)          0.1863                                         !
 ! D85   D(23,25,27,26)         -0.2245                                         !
 ! D86   D(23,25,27,36)        178.9616                                         !
 ! D87   D(34,25,27,26)       -179.5527                                         !
 ! D88   D(34,25,27,36)         -0.3666                                         !
 ! D89   D(24,26,27,25)         -0.2619                                         !
 ! D90   D(24,26,27,36)       -179.447                                          !
 ! D91   D(35,26,27,25)        179.2285                                         !
 ! D92   D(35,26,27,36)          0.0434                                         !
 ! D93   D(19,37,38,39)        -70.9665                                         !
 ! D94   D(19,37,38,41)        164.914                                          !
 ! D95   D(19,37,38,46)         47.5313                                         !
 ! D96   D(45,37,38,39)         87.4346                                         !
 ! D97   D(45,37,38,41)        -36.6849                                         !
 ! D98   D(45,37,38,46)       -154.0676                                         !
 ! D99   D(37,38,39,40)        165.7774                                         !
 ! D100  D(37,38,39,51)        -13.8271                                         !
 ! D101  D(41,38,39,40)        -69.5089                                         !
 ! D102  D(41,38,39,51)        110.8866                                         !
 ! D103  D(46,38,39,40)         45.1605                                         !
 ! D104  D(46,38,39,51)       -134.444                                          !
 ! D105  D(37,38,41,42)         60.698                                          !
 ! D106  D(37,38,41,47)        -59.4513                                         !
 ! D107  D(37,38,41,48)       -175.7958                                         !
 ! D108  D(39,38,41,42)        -65.5632                                         !
 ! D109  D(39,38,41,47)        174.2875                                         !
 ! D110  D(39,38,41,48)         57.943                                          !
 ! D111  D(46,38,41,42)       -179.9406                                         !
 ! D112  D(46,38,41,47)         59.91                                           !
 ! D113  D(46,38,41,48)        -56.4344                                         !
 ! D114  D(38,39,51,52)       -176.1758                                         !
 ! D115  D(38,39,51,64)        -11.1974                                         !
 ! D116  D(40,39,51,52)          4.2254                                         !
 ! D117  D(40,39,51,64)        169.2037                                         !
 ! D118  D(38,41,42,43)        151.8562                                         !
 ! D119  D(38,41,42,44)        -29.0137                                         !
 ! D120  D(47,41,42,43)        -87.6539                                         !
 ! D121  D(47,41,42,44)         91.4761                                         !
 ! D122  D(48,41,42,43)         29.9759                                         !
 ! D123  D(48,41,42,44)       -150.894                                          !
 ! D124  D(41,42,43,49)        173.1879                                         !
 ! D125  D(41,42,43,50)          2.1192                                         !
 ! D126  D(44,42,43,49)         -5.9439                                         !
 ! D127  D(44,42,43,50)       -177.0127                                         !
 ! D128  D(39,51,52,53)        -61.6433                                         !
 ! D129  D(39,51,52,55)        177.9679                                         !
 ! D130  D(39,51,52,65)         56.4395                                         !
 ! D131  D(64,51,52,53)        132.367                                          !
 ! D132  D(64,51,52,55)         11.9782                                         !
 ! D133  D(64,51,52,65)       -109.5501                                         !
 ! D134  D(51,52,53,54)        -38.1353                                         !
 ! D135  D(51,52,53,62)        147.3702                                         !
 ! D136  D(55,52,53,54)         84.1076                                         !
 ! D137  D(55,52,53,62)        -90.3868                                         !
 ! D138  D(65,52,53,54)       -157.4193                                         !
 ! D139  D(65,52,53,62)         28.0862                                         !
 ! D140  D(51,52,55,56)        -78.3119                                         !
 ! D141  D(51,52,55,66)         45.5579                                         !
 ! D142  D(51,52,55,67)        161.0006                                         !
 ! D143  D(53,52,55,56)        160.2068                                         !
 ! D144  D(53,52,55,66)        -75.9233                                         !
 ! D145  D(53,52,55,67)         39.5193                                         !
 ! D146  D(65,52,55,56)         43.1075                                         !
 ! D147  D(65,52,55,66)        166.9774                                         !
 ! D148  D(65,52,55,67)        -77.58                                           !
 ! D149  D(52,53,62,63)         -9.8363                                         !
 ! D150  D(54,53,62,63)        175.2902                                         !
 ! D151  D(52,55,56,57)         58.5241                                         !
 ! D152  D(52,55,56,68)        179.7579                                         !
 ! D153  D(52,55,56,69)        -63.8556                                         !
 ! D154  D(66,55,56,57)        -64.5865                                         !
 ! D155  D(66,55,56,68)         56.6473                                         !
 ! D156  D(66,55,56,69)        173.0338                                         !
 ! D157  D(67,55,56,57)        179.3996                                         !
 ! D158  D(67,55,56,68)        -59.3667                                         !
 ! D159  D(67,55,56,69)         57.0199                                         !
 ! D160  D(55,56,57,58)         38.4548                                         !
 ! D161  D(55,56,57,70)        162.5771                                         !
 ! D162  D(55,56,57,71)        -80.0255                                         !
 ! D163  D(68,56,57,58)        -81.8074                                         !
 ! D164  D(68,56,57,70)         42.315                                          !
 ! D165  D(68,56,57,71)        159.7124                                         !
 ! D166  D(69,56,57,58)        161.7994                                         !
 ! D167  D(69,56,57,70)        -74.0783                                         !
 ! D168  D(69,56,57,71)         43.3191                                         !
 ! D169  D(56,57,58,59)         68.0234                                         !
 ! D170  D(56,57,58,72)       -164.0406                                         !
 ! D171  D(70,57,58,59)        -54.6219                                         !
 ! D172  D(70,57,58,72)         73.3141                                         !
 ! D173  D(71,57,58,59)       -170.373                                          !
 ! D174  D(71,57,58,72)        -42.437                                          !
 ! D175  D(57,58,59,60)        -18.9734                                         !
 ! D176  D(57,58,59,61)        159.6285                                         !
 ! D177  D(72,58,59,60)       -145.8911                                         !
 ! D178  D(72,58,59,61)         32.7107                                         !
 ! D179  D(58,59,60,73)       -176.4583                                         !
 ! D180  D(61,59,60,73)          5.1998                                         !
 ! D181  D(58,59,61,74)        169.9053                                         !
 ! D182  D(58,59,61,75)         35.2716                                         !
 ! D183  D(60,59,61,74)        -11.6531                                         !
 ! D184  D(60,59,61,75)       -146.2868                                         !
 --------------------------------------------------------------------------------
 Symmetry turned off by external request.
 Stoichiometry    C23H36N9O7(1+)
 Framework group  C1[X(C23H36N9O7)]
 Deg. of freedom   219
 Full point group                 C1      NOp   1
                          Input orientation:                          
 ---------------------------------------------------------------------
 Center     Atomic      Atomic             Coordinates (Angstroms)
 Number     Number       Type             X           Y           Z
 ---------------------------------------------------------------------
      1          7           0       -8.786913    1.639516   -8.526781
      2          6           0       -9.531360    0.989848   -7.440145
      3          6           0       -8.647782    0.305370   -6.379186
      4          8           0       -8.373090    0.904497   -5.345234
      5          6           0      -10.618027    0.027694   -8.015844
      6          6           0      -11.087956    0.585007   -9.311745
      7          7           0      -10.647265    0.106428  -10.443353
      8          8           0      -11.958157    1.560930   -9.230617
      9          1           0       -8.006858    1.061993   -8.842091
     10          1           0      -12.173854    1.975632  -10.086841
     11          1           0      -10.052077    1.776276   -6.890709
     12          1           0      -10.242266   -0.979081   -8.185460
     13          1           0      -11.455946   -0.053000   -7.318296
     14          1           0      -10.868135    0.523899  -11.341470
     15          1           0       -9.858854   -0.563957  -10.400764
     16          1           0       -8.352573    2.486201   -8.164506
     17          7           0       -8.147781   -0.941255   -6.657605
     18          6           0       -7.737858   -1.813337   -5.558204
     19          6           0       -6.323695   -2.406700   -5.687472
     20          8           0       -6.130820   -3.582059   -5.376680
     21          6           0       -8.766617   -2.951703   -5.349548
     22          6           0      -10.204504   -2.481449   -5.416378
     23          6           0      -10.676515   -1.442400   -4.599394
     24          6           0      -11.098086   -3.077633   -6.316313
     25          6           0      -12.002066   -1.013462   -4.682430
     26          6           0      -12.428872   -2.658872   -6.396289
     27          6           0      -12.885451   -1.621849   -5.580282
     28          1           0       -8.369097   -1.385909   -7.541355
     29          1           0       -7.712777   -1.161676   -4.678196
     30          1           0       -8.591079   -3.725042   -6.104870
     31          1           0       -8.550799   -3.426553   -4.386894
     32          1           0      -10.002882   -0.953774   -3.901068
     33          1           0      -10.751519   -3.889800   -6.951785
     34          1           0      -12.347761   -0.210487   -4.037282
     35          1           0      -13.108135   -3.148403   -7.089229
     36          1           0      -13.921401   -1.298379   -5.632052
     37          7           0       -5.278250   -1.613104   -6.059271
     38          6           0       -5.300006   -0.331267   -6.745396
     39          6           0       -5.709992   -0.432507   -8.225407
     40          8           0       -6.024845    0.584297   -8.857985
     41          6           0       -3.934525    0.376921   -6.629753
     42          6           0       -2.776923   -0.408710   -7.245476
     43          7           0       -1.742942    0.329214   -7.707771
     44          8           0       -2.776919   -1.641783   -7.302871
     45          1           0       -4.394515   -2.109077   -6.137953
     46          1           0       -6.031640    0.327233   -6.274073
     47          1           0       -3.710541    0.529854   -5.566786
     48          1           0       -4.026814    1.363430   -7.094311
     49          1           0       -0.912156   -0.152218   -8.026914
     50          1           0       -1.712442    1.334998   -7.626415
     51          7           0       -5.721187   -1.655512   -8.797536
     52          6           0       -6.021936   -1.762044  -10.207121
     53          6           0       -7.426903   -1.241322  -10.487248
     54          8           0       -8.391227   -1.412433   -9.752825
     55          6           0       -5.939145   -3.228532  -10.694941
     56          6           0       -4.516383   -3.752435  -10.933048
     57          6           0       -3.556848   -3.719925   -9.731667
     58          7           0       -4.163438   -4.058664   -8.430443
     59          6           0       -4.600454   -5.386823   -8.213644
     60          7           0       -4.805822   -6.155104   -9.221843
     61          7           0       -4.718658   -5.680866   -6.865660
     62          8           0       -7.636778   -0.647520  -11.670281
     63          1           0       -6.798548   -0.494236  -12.140818
     64          1           0       -5.314530   -2.490873   -8.351581
     65          1           0       -5.317401   -1.140187  -10.780992
     66          1           0       -6.459749   -3.867667   -9.974083
     67          1           0       -6.490349   -3.307665  -11.640499
     68          1           0       -4.617357   -4.786544  -11.265081
     69          1           0       -4.048036   -3.180905  -11.746792
     70          1           0       -2.718033   -4.392276   -9.953594
     71          1           0       -3.149013   -2.713459   -9.595361
     72          1           0       -3.537089   -3.756394   -7.688499
     73          1           0       -5.171895   -7.060523   -8.924300
     74          1           0       -5.178048   -6.559135   -6.661799
     75          1           0       -5.035678   -4.927202   -6.255364
 ---------------------------------------------------------------------
 Rotational constants (GHZ):           0.1330324           0.0725172           0.0679155
 Standard basis: 6-31G(d) (6D, 7F)
   657 basis functions,  1236 primitive gaussians,   657 cartesian basis functions
   146 alpha electrons      146 beta electrons
       nuclear repulsion energy      5120.5869735242 Hartrees.
 NAtoms=   75 NActive=   75 NUniq=   75 SFac= 1.00D+00 NAtFMM=   60 NAOKFM=T Big=T
 Integral buffers will be    131072 words long.
 Raffenetti 2 integral format.
 Two-electron integral symmetry is turned off.
 Nuclear repulsion after empirical dispersion term =     5120.4676970804 Hartrees.
 One-electron integrals computed using PRISM.
 NBasis=   657 RedAO= T EigKep=  4.61D-04  NBF=   657
 NBsUse=   657 1.00D-06 EigRej= -1.00D+00 NBFU=   657
 Initial guess from the checkpoint file:  "conf-90.chk"
 B after Tr=     0.000000    0.000000    0.000000
         Rot=    1.000000    0.000000    0.000000    0.000000 Ang=   0.00 deg.
 Requested convergence on RMS density matrix=1.00D-08 within 128 cycles.
 Requested convergence on MAX density matrix=1.00D-06.
 Requested convergence on             energy=1.00D-06.
 No special actions if energy rises.
 SCF Done:  E(RB3LYP) =  -1917.45139724     A.U. after    2 cycles
            NFock=  2  Conv=0.90D-08     -V/T= 2.0093

 **********************************************************************

            Population analysis using the SCF Density.

 **********************************************************************

 Alpha  occ. eigenvalues --  -19.37571 -19.33450 -19.28188 -19.22776 -19.22639
 Alpha  occ. eigenvalues --  -19.21728 -19.21438 -14.53776 -14.46524 -14.46219
 Alpha  occ. eigenvalues --  -14.45875 -14.45186 -14.42376 -14.42181 -14.40131
 Alpha  occ. eigenvalues --  -14.35200 -10.48980 -10.45891 -10.40308 -10.39448
 Alpha  occ. eigenvalues --  -10.38753 -10.38739 -10.35670 -10.34664 -10.34339
 Alpha  occ. eigenvalues --  -10.34237 -10.32961 -10.32731 -10.30875 -10.29378
 Alpha  occ. eigenvalues --  -10.29067 -10.28278 -10.27703 -10.27495 -10.27387
 Alpha  occ. eigenvalues --  -10.27340 -10.27300 -10.27097 -10.26484  -1.27377
 Alpha  occ. eigenvalues --   -1.24334  -1.15767  -1.14697  -1.14170  -1.13745
 Alpha  occ. eigenvalues --   -1.13165  -1.10481  -1.04295  -1.03676  -1.02720
 Alpha  occ. eigenvalues --   -1.01658  -1.01262  -0.99937  -0.95221  -0.93932
 Alpha  occ. eigenvalues --   -0.91167  -0.90549  -0.89992  -0.88383  -0.87401
 Alpha  occ. eigenvalues --   -0.83299  -0.83094  -0.82711  -0.81077  -0.78568
 Alpha  occ. eigenvalues --   -0.76879  -0.76508  -0.75393  -0.74868  -0.74576
 Alpha  occ. eigenvalues --   -0.71388  -0.70258  -0.69599  -0.69217  -0.68838
 Alpha  occ. eigenvalues --   -0.68484  -0.67933  -0.66707  -0.64664  -0.64401
 Alpha  occ. eigenvalues --   -0.64002  -0.63602  -0.63413  -0.62576  -0.60906
 Alpha  occ. eigenvalues --   -0.60555  -0.60200  -0.59261  -0.58868  -0.58552
 Alpha  occ. eigenvalues --   -0.58436  -0.57883  -0.57421  -0.56765  -0.56478
 Alpha  occ. eigenvalues --   -0.55833  -0.55560  -0.54878  -0.54635  -0.54226
 Alpha  occ. eigenvalues --   -0.53748  -0.53577  -0.53187  -0.52799  -0.52680
 Alpha  occ. eigenvalues --   -0.51753  -0.51262  -0.51003  -0.50853  -0.50290
 Alpha  occ. eigenvalues --   -0.50261  -0.50141  -0.49617  -0.49433  -0.48640
 Alpha  occ. eigenvalues --   -0.48405  -0.47974  -0.47704  -0.47203  -0.46867
 Alpha  occ. eigenvalues --   -0.46294  -0.46011  -0.45684  -0.45030  -0.44952
 Alpha  occ. eigenvalues --   -0.43767  -0.43408  -0.43100  -0.42230  -0.42163
 Alpha  occ. eigenvalues --   -0.41890  -0.41131  -0.38813  -0.38143  -0.37716
 Alpha  occ. eigenvalues --   -0.37126  -0.36705  -0.36615  -0.34508  -0.34013
 Alpha  occ. eigenvalues --   -0.33511  -0.33373  -0.33114  -0.32821  -0.32568
 Alpha  occ. eigenvalues --   -0.29764
 Alpha virt. eigenvalues --   -0.16656  -0.12719  -0.10055  -0.09619  -0.09207
 Alpha virt. eigenvalues --   -0.08807  -0.08397  -0.08135  -0.07748  -0.05932
 Alpha virt. eigenvalues --   -0.04165  -0.02270  -0.01331  -0.00797  -0.00158
 Alpha virt. eigenvalues --    0.00660   0.01102   0.01578   0.01657   0.02716
 Alpha virt. eigenvalues --    0.03241   0.03535   0.03946   0.04095   0.04289
 Alpha virt. eigenvalues --    0.05123   0.05297   0.05792   0.06217   0.06479
 Alpha virt. eigenvalues --    0.06958   0.07336   0.07423   0.07728   0.07974
 Alpha virt. eigenvalues --    0.08179   0.08467   0.08791   0.09082   0.09234
 Alpha virt. eigenvalues --    0.09712   0.09895   0.10231   0.10697   0.10866
 Alpha virt. eigenvalues --    0.10960   0.11457   0.12055   0.12505   0.12748
 Alpha virt. eigenvalues --    0.13903   0.14206   0.14396   0.14709   0.15167
 Alpha virt. eigenvalues --    0.15361   0.15826   0.16565   0.16804   0.17232
 Alpha virt. eigenvalues --    0.17403   0.18841   0.19458   0.19544   0.20034
 Alpha virt. eigenvalues --    0.21933   0.22330   0.23546   0.23939   0.24199
 Alpha virt. eigenvalues --    0.25473   0.25663   0.26646   0.26674   0.27055
 Alpha virt. eigenvalues --    0.27869   0.28729   0.29567   0.29754   0.31049
 Alpha virt. eigenvalues --    0.33993   0.34699   0.36043   0.36959   0.37865
 Alpha virt. eigenvalues --    0.38078   0.38505   0.39450   0.39944   0.41061
 Alpha virt. eigenvalues --    0.41989   0.42130   0.42929   0.43574   0.44135
 Alpha virt. eigenvalues --    0.44559   0.45019   0.45391   0.45890   0.46416
 Alpha virt. eigenvalues --    0.47040   0.47384   0.47762   0.48115   0.48470
 Alpha virt. eigenvalues --    0.48785   0.49270   0.49603   0.50293   0.50669
 Alpha virt. eigenvalues --    0.51097   0.51194   0.51863   0.52393   0.52642
 Alpha virt. eigenvalues --    0.53006   0.53036   0.53567   0.53733   0.53806
 Alpha virt. eigenvalues --    0.54614   0.54693   0.54787   0.55587   0.56125
 Alpha virt. eigenvalues --    0.56664   0.56834   0.57338   0.57851   0.57971
 Alpha virt. eigenvalues --    0.58901   0.59005   0.59744   0.60188   0.60861
 Alpha virt. eigenvalues --    0.61722   0.62078   0.62303   0.62775   0.62899
 Alpha virt. eigenvalues --    0.63374   0.64036   0.64268   0.64907   0.65422
 Alpha virt. eigenvalues --    0.65563   0.65868   0.67094   0.67283   0.67662
 Alpha virt. eigenvalues --    0.68418   0.70035   0.70124   0.70452   0.71327
 Alpha virt. eigenvalues --    0.71369   0.71889   0.72270   0.73051   0.73891
 Alpha virt. eigenvalues --    0.74043   0.74457   0.74915   0.75096   0.75605
 Alpha virt. eigenvalues --    0.75859   0.76321   0.76777   0.76849   0.77197
 Alpha virt. eigenvalues --    0.77683   0.78198   0.78379   0.78690   0.79058
 Alpha virt. eigenvalues --    0.79583   0.79670   0.79895   0.80526   0.80805
 Alpha virt. eigenvalues --    0.81082   0.81593   0.81679   0.82596   0.82733
 Alpha virt. eigenvalues --    0.83388   0.83714   0.83975   0.84151   0.84585
 Alpha virt. eigenvalues --    0.85178   0.85335   0.85729   0.86525   0.86837
 Alpha virt. eigenvalues --    0.87257   0.87383   0.87874   0.87895   0.88713
 Alpha virt. eigenvalues --    0.88982   0.89894   0.90344   0.91164   0.91538
 Alpha virt. eigenvalues --    0.92547   0.93017   0.93678   0.94350   0.94534
 Alpha virt. eigenvalues --    0.95774   0.96067   0.96732   0.97803   0.98628
 Alpha virt. eigenvalues --    0.99037   1.00527   1.01272   1.01693   1.02735
 Alpha virt. eigenvalues --    1.03790   1.04099   1.04349   1.04971   1.06126
 Alpha virt. eigenvalues --    1.06331   1.07027   1.08213   1.08970   1.09979
 Alpha virt. eigenvalues --    1.10184   1.10200   1.10765   1.12576   1.13075
 Alpha virt. eigenvalues --    1.13485   1.14374   1.14680   1.15199   1.16021
 Alpha virt. eigenvalues --    1.17976   1.18263   1.18321   1.19465   1.20151
 Alpha virt. eigenvalues --    1.20815   1.22102   1.22800   1.23395   1.24184
 Alpha virt. eigenvalues --    1.25467   1.26042   1.26463   1.27787   1.28189
 Alpha virt. eigenvalues --    1.28464   1.29518   1.30704   1.31469   1.32652
 Alpha virt. eigenvalues --    1.33267   1.33710   1.34419   1.35069   1.35526
 Alpha virt. eigenvalues --    1.36052   1.37742   1.37821   1.39004   1.39173
 Alpha virt. eigenvalues --    1.39481   1.40694   1.41259   1.41776   1.42466
 Alpha virt. eigenvalues --    1.42939   1.43701   1.44457   1.44957   1.47035
 Alpha virt. eigenvalues --    1.47851   1.49196   1.50120   1.50432   1.51912
 Alpha virt. eigenvalues --    1.52432   1.53407   1.54155   1.54780   1.54804
 Alpha virt. eigenvalues --    1.56460   1.56824   1.57746   1.58017   1.59252
 Alpha virt. eigenvalues --    1.59408   1.60661   1.61565   1.62256   1.62986
 Alpha virt. eigenvalues --    1.63862   1.64921   1.65302   1.65543   1.65748
 Alpha virt. eigenvalues --    1.66612   1.67008   1.67744   1.68165   1.69136
 Alpha virt. eigenvalues --    1.69861   1.70363   1.70736   1.71843   1.72284
 Alpha virt. eigenvalues --    1.72887   1.73372   1.73607   1.74108   1.74246
 Alpha virt. eigenvalues --    1.74971   1.75506   1.76794   1.77140   1.77521
 Alpha virt. eigenvalues --    1.78057   1.78710   1.79293   1.79494   1.80957
 Alpha virt. eigenvalues --    1.81297   1.81418   1.81775   1.82843   1.83471
 Alpha virt. eigenvalues --    1.83897   1.84263   1.84996   1.85391   1.85848
 Alpha virt. eigenvalues --    1.86976   1.87147   1.87871   1.88918   1.89333
 Alpha virt. eigenvalues --    1.90359   1.90753   1.91822   1.92387   1.92616
 Alpha virt. eigenvalues --    1.94043   1.94153   1.94879   1.95867   1.96142
 Alpha virt. eigenvalues --    1.96689   1.98170   1.98875   1.99647   2.00530
 Alpha virt. eigenvalues --    2.01239   2.01491   2.01750   2.02988   2.03431
 Alpha virt. eigenvalues --    2.04299   2.05342   2.06137   2.06462   2.07314
 Alpha virt. eigenvalues --    2.08096   2.08731   2.10033   2.10932   2.11725
 Alpha virt. eigenvalues --    2.12127   2.13485   2.14281   2.14827   2.15787
 Alpha virt. eigenvalues --    2.16799   2.17474   2.18119   2.18557   2.18948
 Alpha virt. eigenvalues --    2.19499   2.20882   2.21107   2.21684   2.22475
 Alpha virt. eigenvalues --    2.23248   2.23436   2.24322   2.26088   2.27007
 Alpha virt. eigenvalues --    2.27869   2.29119   2.29731   2.29863   2.30926
 Alpha virt. eigenvalues --    2.32314   2.33039   2.34336   2.34717   2.35020
 Alpha virt. eigenvalues --    2.36384   2.36858   2.37093   2.37718   2.39419
 Alpha virt. eigenvalues --    2.39893   2.40751   2.41660   2.42597   2.43995
 Alpha virt. eigenvalues --    2.45619   2.46097   2.46709   2.48217   2.48772
 Alpha virt. eigenvalues --    2.50048   2.50389   2.50806   2.51292   2.51653
 Alpha virt. eigenvalues --    2.51796   2.52868   2.53431   2.54465   2.55339
 Alpha virt. eigenvalues --    2.56530   2.56934   2.58090   2.59106   2.59919
 Alpha virt. eigenvalues --    2.60708   2.62013   2.62169   2.62970   2.63698
 Alpha virt. eigenvalues --    2.64606   2.65237   2.66354   2.66659   2.67638
 Alpha virt. eigenvalues --    2.69453   2.69854   2.70860   2.71173   2.73942
 Alpha virt. eigenvalues --    2.75038   2.76029   2.80118   2.81509   2.85027
 Alpha virt. eigenvalues --    2.85723   2.87029   2.90139   2.91807   2.92885
 Alpha virt. eigenvalues --    2.93559   2.94133   2.94828   2.95406   2.96725
 Alpha virt. eigenvalues --    2.97534   2.98485   3.00218   3.04762   3.08681
 Alpha virt. eigenvalues --    3.11183   3.32652   3.70491   3.71268   3.79578
 Alpha virt. eigenvalues --    3.80269   3.81309   3.88118   3.89798   3.92089
 Alpha virt. eigenvalues --    3.96666   3.98354   4.01632   4.02511   4.04301
 Alpha virt. eigenvalues --    4.05620   4.06218   4.09771   4.13808   4.14102
 Alpha virt. eigenvalues --    4.15013   4.16887   4.19556   4.21456   4.23224
 Alpha virt. eigenvalues --    4.26111   4.28412   4.31110   4.32139   4.32511
 Alpha virt. eigenvalues --    4.33132   4.39543   4.42196   4.43364   4.46279
 Alpha virt. eigenvalues --    4.50144   4.57334   4.58704   4.63642   4.66432
 Alpha virt. eigenvalues --    4.68603
          Condensed to atoms (all electrons):
 Mulliken charges:
               1
     1  N   -0.784111
     2  C   -0.068062
     3  C    0.623460
     4  O   -0.517657
     5  C   -0.387852
     6  C    0.649911
     7  N   -0.705217
     8  O   -0.510660
     9  H    0.363154
    10  H    0.447365
    11  H    0.197720
    12  H    0.202571
    13  H    0.232929
    14  H    0.372234
    15  H    0.440555
    16  H    0.331646
    17  N   -0.640390
    18  C   -0.080653
    19  C    0.622034
    20  O   -0.520718
    21  C   -0.359739
    22  C    0.169297
    23  C   -0.187801
    24  C   -0.206571
    25  C   -0.141959
    26  C   -0.133334
    27  C   -0.147362
    28  H    0.364446
    29  H    0.219733
    30  H    0.158978
    31  H    0.195670
    32  H    0.156332
    33  H    0.135593
    34  H    0.153079
    35  H    0.143377
    36  H    0.147191
    37  N   -0.628270
    38  C   -0.053408
    39  C    0.638620
    40  O   -0.576710
    41  C   -0.395034
    42  C    0.613732
    43  N   -0.733692
    44  O   -0.536410
    45  H    0.367120
    46  H    0.209642
    47  H    0.213176
    48  H    0.189163
    49  H    0.363971
    50  H    0.359516
    51  N   -0.635045
    52  C   -0.036845
    53  C    0.666111
    54  O   -0.527225
    55  C   -0.313247
    56  C   -0.264134
    57  C   -0.134775
    58  N   -0.668507
    59  C    0.589834
    60  N   -0.650230
    61  N   -0.787664
    62  O   -0.567625
    63  H    0.442439
    64  H    0.415458
    65  H    0.159149
    66  H    0.190170
    67  H    0.155228
    68  H    0.208730
    69  H    0.129886
    70  H    0.173431
    71  H    0.148739
    72  H    0.361961
    73  H    0.277688
    74  H    0.325392
    75  H    0.374478
 Sum of Mulliken charges =   1.00000
 Mulliken charges with hydrogens summed into heavy atoms:
               1
     1  N   -0.089311
     2  C    0.129658
     3  C    0.623460
     4  O   -0.517657
     5  C    0.047648
     6  C    0.649911
     7  N    0.107571
     8  O   -0.063295
    17  N   -0.275944
    18  C    0.139080
    19  C    0.622034
    20  O   -0.520718
    21  C   -0.005091
    22  C    0.169297
    23  C   -0.031469
    24  C   -0.070978
    25  C    0.011120
    26  C    0.010044
    27  C   -0.000171
    37  N   -0.261150
    38  C    0.156234
    39  C    0.638620
    40  O   -0.576710
    41  C    0.007305
    42  C    0.613732
    43  N   -0.010205
    44  O   -0.536410
    51  N   -0.219587
    52  C    0.122304
    53  C    0.666111
    54  O   -0.527225
    55  C    0.032151
    56  C    0.074482
    57  C    0.187395
    58  N   -0.306546
    59  C    0.589834
    60  N   -0.372542
    61  N   -0.087794
    62  O   -0.125186
 Electronic spatial extent (au):  <R**2>=         138756.3827
 Charge=              1.0000 electrons
 Dipole moment (field-independent basis, Debye):
    X=            -39.0888    Y=              1.1235    Z=            -46.2034  Tot=             60.5306
 Quadrupole moment (field-independent basis, Debye-Ang):
   XX=            185.6932   YY=           -213.6404   ZZ=            240.5717
   XY=             -4.1641   XZ=            388.5029   YZ=            -15.0738
 Traceless Quadrupole moment (field-independent basis, Debye-Ang):
   XX=            114.8184   YY=           -284.5152   ZZ=            169.6969
   XY=             -4.1641   XZ=            388.5029   YZ=            -15.0738
 Octapole moment (field-independent basis, Debye-Ang**2):
  XXX=            317.5383  YYY=           1008.0979  ZZZ=            317.7060  XYY=           1516.0322
  XXY=            466.6664  XXZ=          -2326.3595  XZZ=          -2367.4518  YZZ=            536.4381
  YYZ=           1663.4067  XYZ=            116.1979
 Hexadecapole moment (field-independent basis, Debye-Ang**3):
 XXXX=         -30784.5523 YYYY=          -8046.3640 ZZZZ=         -32494.9744 XXXY=          -8675.1182
 XXXZ=           8048.0728 YYYX=          -6032.4468 YYYZ=          -8132.4725 ZZZX=           5620.0813
 ZZZY=         -10291.4652 XXYY=         -14289.7066 XXZZ=          13305.9016 YYZZ=         -15430.4700
 XXYZ=          -4597.1374 YYXZ=         -11300.7955 ZZXY=          -3994.4575
 N-N= 5.120467697080D+03 E-N=-1.468223639505D+04  KE= 1.899791932647D+03
 Unable to Open any file for archive entry.
 1\1\GINC-LAC-256\SP\RB3LYP\6-31G(d)\C23H36N9O7(1+)\KENGMITH\07-Jun-202
 2\0\\# B3LYP/6-31G* empiricaldispersion=gd3 guess=read geom=check nosy
 mm integral(ultrafinegrid)\\Candidate Structure: Conf:90 Charge calc i
 n gas phase\\1,1\N,0,-8.7869127958,1.6395163677,-8.5267805461\C,0,-9.5
 3135955,0.9898475007,-7.4401449084\C,0,-8.6477815679,0.3053702314,-6.3
 791861717\O,0,-8.3730904047,0.904497451,-5.3452343182\C,0,-10.61802731
 68,0.027694495,-8.0158441469\C,0,-11.0879560297,0.5850072059,-9.311744
 9754\N,0,-10.6472645872,0.1064279262,-10.4433531386\O,0,-11.9581565624
 ,1.5609297205,-9.2306171213\H,0,-8.006857542,1.0619930748,-8.842090571
 6\H,0,-12.1738543432,1.975631957,-10.0868406216\H,0,-10.0520768791,1.7
 762755847,-6.8907091816\H,0,-10.2422657557,-0.9790812713,-8.185459998\
 H,0,-11.4559463131,-0.0529995722,-7.3182955506\H,0,-10.8681352169,0.52
 38994716,-11.3414696901\H,0,-9.8588535983,-0.5639570905,-10.4007640562
 \H,0,-8.3525730009,2.4862006493,-8.1645063833\N,0,-8.1477813386,-0.941
 2549944,-6.6576049951\C,0,-7.737858218,-1.8133366458,-5.5582044083\C,0
 ,-6.323695462,-2.4067000839,-5.6874719469\O,0,-6.130819587,-3.58205940
 54,-5.3766803295\C,0,-8.7666169177,-2.9517034653,-5.3495482228\C,0,-10
 .2045037823,-2.4814493388,-5.416378337\C,0,-10.6765147765,-1.442399714
 1,-4.5993936989\C,0,-11.0980863669,-3.0776325074,-6.3163131273\C,0,-12
 .0020658181,-1.0134616282,-4.6824304853\C,0,-12.4288715882,-2.65887209
 53,-6.3962894468\C,0,-12.8854510472,-1.6218493061,-5.5802818323\H,0,-8
 .3690972542,-1.3859090114,-7.5413554183\H,0,-7.7127766618,-1.161676108
 7,-4.6781962001\H,0,-8.5910788138,-3.725042197,-6.1048696794\H,0,-8.55
 07991645,-3.4265530598,-4.3868939946\H,0,-10.0028820862,-0.9537735273,
 -3.9010684945\H,0,-10.7515185267,-3.8897997316,-6.9517845396\H,0,-12.3
 477611293,-0.210487245,-4.0372817017\H,0,-13.1081353018,-3.1484031198,
 -7.0892290753\H,0,-13.9214011302,-1.2983790807,-5.6320523835\N,0,-5.27
 82496105,-1.6131035362,-6.0592711095\C,0,-5.3000063181,-0.3312669584,-
 6.7453963067\C,0,-5.7099923301,-0.4325071461,-8.2254072098\O,0,-6.0248
 447735,0.5842969884,-8.8579848526\C,0,-3.9345251421,0.3769210874,-6.62
 97525701\C,0,-2.7769233195,-0.4087096194,-7.2454758092\N,0,-1.74294176
 2,0.3292138931,-7.70777064\O,0,-2.7769194796,-1.6417833227,-7.30287112
 78\H,0,-4.3945147605,-2.1090766431,-6.1379529428\H,0,-6.0316396296,0.3
 27232892,-6.2740727982\H,0,-3.7105409964,0.5298544379,-5.5667855313\H,
 0,-4.0268138415,1.3634302502,-7.0943111584\H,0,-0.9121557648,-0.152218
 4088,-8.026913959\H,0,-1.712442399,1.3349981107,-7.6264154906\N,0,-5.7
 211873404,-1.6555119322,-8.7975355507\C,0,-6.0219357931,-1.762044318,-
 10.2071211586\C,0,-7.4269033676,-1.241321648,-10.4872477137\O,0,-8.391
 2265722,-1.412432893,-9.7528249063\C,0,-5.9391445152,-3.2285317397,-10
 .6949409895\C,0,-4.5163828535,-3.7524349595,-10.9330482007\C,0,-3.5568
 478673,-3.7199252508,-9.7316674248\N,0,-4.1634383127,-4.0586640351,-8.
 4304428443\C,0,-4.6004542712,-5.3868230409,-8.2136436525\N,0,-4.805822
 2979,-6.1551043694,-9.221842769\N,0,-4.7186575649,-5.6808662396,-6.865
 6600323\O,0,-7.6367782935,-0.6475196693,-11.670281431\H,0,-6.798548364
 3,-0.4942358745,-12.1408179472\H,0,-5.314529509,-2.4908726235,-8.35158
 06605\H,0,-5.3174008156,-1.1401865368,-10.7809918571\H,0,-6.4597494535
 ,-3.8676673943,-9.9740825863\H,0,-6.4903491641,-3.3076645287,-11.64049
 86795\H,0,-4.6173571145,-4.7865440043,-11.2650813963\H,0,-4.0480355954
 ,-3.1809050966,-11.7467922596\H,0,-2.718033164,-4.3922764224,-9.953594
 3649\H,0,-3.1490133506,-2.7134594032,-9.5953609763\H,0,-3.5370891861,-
 3.756393659,-7.6884991355\H,0,-5.17189515,-7.0605230991,-8.9242998889\
 H,0,-5.17804812,-6.5591348262,-6.6617991553\H,0,-5.0356779115,-4.92720
 24268,-6.2553636166\\Version=ES64L-G16RevC.01\HF=-1917.4513972\RMSD=9.
 016e-09\Dipole=-1.5884755,3.3127909,-3.5011319\Quadrupole=85.364641,-2
 11.5301033,126.1654624,-3.0958782,288.8424188,-11.2069734\PG=C01 [X(C2
 3H36N9O7)]\\@
 The archive entry for this job was punched.


 THERE IS MUCH PLEASURE TO BE GAINED FROM USELESS KNOWLEDGE

                                       -- BERTRAND RUSSELL
 Job cpu time:       0 days  0 hours  4 minutes 25.3 seconds.
 Elapsed time:       0 days  0 hours  1 minutes  7.2 seconds.
 File lengths (MBytes):  RWF=    344 Int=      0 D2E=      0 Chk=     48 Scr=     16
 Normal termination of Gaussian 16 at Tue Jun  7 01:06:36 2022.
