 Entering Gaussian System, Link 0=/opt/software/Gaussian/g16-AVX2-C.01/g16/g16
 Input=charge-conf-472.com
 Output=charge-conf-472.log
 Initial command:
 /opt/software/Gaussian/g16-AVX2-C.01/g16/l1.exe "/mnt/gs18/scratch/users/kengmith/Gau-25106.inp" -scrdir="/mnt/gs18/scratch/users/kengmith/"
 Entering Link 1 = /opt/software/Gaussian/g16-AVX2-C.01/g16/l1.exe PID=     25133.
  
 Copyright (c) 1988-2019, Gaussian, Inc.  All Rights Reserved.
  
 This is part of the Gaussian(R) 16 program.  It is based on
 the Gaussian(R) 09 system (copyright 2009, Gaussian, Inc.),
 the Gaussian(R) 03 system (copyright 2003, Gaussian, Inc.),
 the Gaussian(R) 98 system (copyright 1998, Gaussian, Inc.),
 the Gaussian(R) 94 system (copyright 1995, Gaussian, Inc.),
 the Gaussian 92(TM) system (copyright 1992, Gaussian, Inc.),
 the Gaussian 90(TM) system (copyright 1990, Gaussian, Inc.),
 the Gaussian 88(TM) system (copyright 1988, Gaussian, Inc.),
 the Gaussian 86(TM) system (copyright 1986, Carnegie Mellon
 University), and the Gaussian 82(TM) system (copyright 1983,
 Carnegie Mellon University). Gaussian is a federally registered
 trademark of Gaussian, Inc.
  
 This software contains proprietary and confidential information,
 including trade secrets, belonging to Gaussian, Inc.
  
 This software is provided under written license and may be
 used, copied, transmitted, or stored only in accord with that
 written license.
  
 The following legend is applicable only to US Government
 contracts under FAR:
  
                    RESTRICTED RIGHTS LEGEND
  
 Use, reproduction and disclosure by the US Government is
 subject to restrictions as set forth in subparagraphs (a)
 and (c) of the Commercial Computer Software - Restricted
 Rights clause in FAR 52.227-19.
  
 Gaussian, Inc.
 340 Quinnipiac St., Bldg. 40, Wallingford CT 06492
  
  
 ---------------------------------------------------------------
 Warning -- This program may not be used in any manner that
 competes with the business of Gaussian, Inc. or will provide
 assistance to any competitor of Gaussian, Inc.  The licensee
 of this program is prohibited from giving any competitor of
 Gaussian, Inc. access to this program.  By using this program,
 the user acknowledges that Gaussian, Inc. is engaged in the
 business of creating and licensing software in the field of
 computational chemistry and represents and warrants to the
 licensee that it is not a competitor of Gaussian, Inc. and that
 it will not use this program in any manner prohibited above.
 ---------------------------------------------------------------
  

 Cite this work as:
 Gaussian 16, Revision C.01,
 M. J. Frisch, G. W. Trucks, H. B. Schlegel, G. E. Scuseria, 
 M. A. Robb, J. R. Cheeseman, G. Scalmani, V. Barone, 
 G. A. Petersson, H. Nakatsuji, X. Li, M. Caricato, A. V. Marenich, 
 J. Bloino, B. G. Janesko, R. Gomperts, B. Mennucci, H. P. Hratchian, 
 J. V. Ortiz, A. F. Izmaylov, J. L. Sonnenberg, D. Williams-Young, 
 F. Ding, F. Lipparini, F. Egidi, J. Goings, B. Peng, A. Petrone, 
 T. Henderson, D. Ranasinghe, V. G. Zakrzewski, J. Gao, N. Rega, 
 G. Zheng, W. Liang, M. Hada, M. Ehara, K. Toyota, R. Fukuda, 
 J. Hasegawa, M. Ishida, T. Nakajima, Y. Honda, O. Kitao, H. Nakai, 
 T. Vreven, K. Throssell, J. A. Montgomery, Jr., J. E. Peralta, 
 F. Ogliaro, M. J. Bearpark, J. J. Heyd, E. N. Brothers, K. N. Kudin, 
 V. N. Staroverov, T. A. Keith, R. Kobayashi, J. Normand, 
 K. Raghavachari, A. P. Rendell, J. C. Burant, S. S. Iyengar, 
 J. Tomasi, M. Cossi, J. M. Millam, M. Klene, C. Adamo, R. Cammi, 
 J. W. Ochterski, R. L. Martin, K. Morokuma, O. Farkas, 
 J. B. Foresman, and D. J. Fox, Gaussian, Inc., Wallingford CT, 2019.
 
 ******************************************
 Gaussian 16:  ES64L-G16RevC.01  3-Jul-2019
                 7-Jun-2022 
 ******************************************
 %mem=8gb
 %nproc=4
 Will use up to    4 processors via shared memory.
 %chk=conf-472.chk
 ----------------------------------------------------------------------
 # B3LYP/6-31G* empiricaldispersion=gd3 guess=read geom=check nosymm in
 tegral(ultrafinegrid)
 ----------------------------------------------------------------------
 1/29=2,38=1,172=1/1;
 2/12=2,15=1,40=1/2;
 3/5=1,6=6,7=1,11=2,14=-4,25=1,30=1,74=-5,75=-5,116=-2,124=31/1,2,3;
 4/5=1/1;
 5/5=2,38=6/2;
 6/7=2,8=2,9=2,10=2,28=1/1;
 99/5=1,9=1/99;
 ------------------------------------------------------
 Candidate Structure: Conf:472 Charge calc in gas phase
 ------------------------------------------------------
 Structure from the checkpoint file:  "conf-472.chk"
 Charge =  1 Multiplicity = 1
 Redundant internal coordinates found in file.  (old form).
 N,0,-5.8394406023,-0.8086163742,-10.5023664924
 C,0,-4.9617131575,-1.867090284,-10.0808836745
 C,0,-5.7784405213,-3.1318494032,-9.7280083358
 O,0,-5.6318776606,-4.1714600204,-10.3510514452
 C,0,-4.0094706665,-1.5528960426,-8.8372086619
 C,0,-3.0176721204,-0.5222711257,-9.1895027503
 N,0,-3.2294360443,0.7501291145,-8.9553902863
 O,0,-1.9502259621,-0.9585478714,-9.8229793616
 H,0,-5.369200799,-0.0503095702,-10.9850931162
 H,0,-1.3265823155,-0.2600267591,-10.0965150049
 H,0,-4.3321202512,-2.1676955204,-10.9207913054
 H,0,-4.615706985,-1.2092361131,-7.9992503432
 H,0,-3.4848215709,-2.4668312318,-8.5474599982
 H,0,-2.5689171134,1.4743713795,-9.2196545172
 H,0,-4.0920538148,1.032040391,-8.4494216968
 H,0,-6.4169966252,-0.4387854931,-9.7538345698
 N,0,-6.6356310251,-2.9969960279,-8.6801582273
 C,0,-7.4325036453,-4.1214680978,-8.1768671413
 C,0,-8.4073117357,-3.5723747991,-7.1145006439
 O,0,-8.4375269904,-4.0370330667,-5.9789464331
 C,0,-6.5749641778,-5.3010047742,-7.6425274973
 C,0,-5.3620250344,-4.8994618319,-6.8296156127
 C,0,-4.1066674308,-4.7990580583,-7.447994482
 C,0,-5.4481868068,-4.6356038973,-5.4551929187
 C,0,-2.9771899071,-4.4103056004,-6.7219664547
 C,0,-4.3240085581,-4.2358340126,-4.7289185589
 C,0,-3.0848948195,-4.1114230662,-5.3618828547
 H,0,-6.726834039,-2.103150529,-8.2153824973
 H,0,-8.0200861227,-4.5153626703,-9.0178063292
 H,0,-7.240214465,-5.9371380017,-7.052354645
 H,0,-6.2482302846,-5.8703238539,-8.5149375861
 H,0,-4.0173893734,-5.0404141985,-8.5042127229
 H,0,-6.4028755679,-4.7710535986,-4.9582628553
 H,0,-2.008906256,-4.3627361558,-7.2154057555
 H,0,-4.4128082617,-4.0414065006,-3.6633112616
 H,0,-2.2072057964,-3.8162810085,-4.7933944077
 N,0,-9.1931024168,-2.5074206541,-7.4676443536
 C,0,-9.5516807245,-2.0521352091,-8.8049400016
 C,0,-9.0888225849,-0.621422594,-9.1402637565
 O,0,-9.4192430587,-0.1056021532,-10.19724336
 C,0,-11.0678572178,-2.1487410347,-9.04850686
 C,0,-11.8282705426,-1.2037035252,-8.118544295
 N,0,-13.1655086179,-1.385312607,-8.0499131839
 O,0,-11.2421892636,-0.3241281097,-7.4852870272
 H,0,-9.7243607561,-2.1148702178,-6.6855831953
 H,0,-9.0569888808,-2.6881664319,-9.541720444
 H,0,-11.400213877,-3.1840863082,-8.9153265199
 H,0,-11.2706285775,-1.8561857425,-10.084532715
 H,0,-13.7093144322,-0.771718318,-7.4581236992
 H,0,-13.6452493002,-2.1091876041,-8.5644397937
 N,0,-8.2340877657,-0.0129412219,-8.2466337491
 C,0,-8.0484891272,1.4181816202,-8.3767585275
 C,0,-6.6127160352,1.7852061511,-8.0406812523
 O,0,-5.7225401059,0.9662305283,-7.8510004229
 C,0,-9.1124334841,2.2747627929,-7.6348120309
 C,0,-8.9804795656,2.4386749042,-6.1090430276
 C,0,-9.2029835507,1.1786064713,-5.2664749378
 N,0,-8.0431831051,0.2766583026,-5.3473022676
 C,0,-8.1831253733,-1.0212515892,-4.816579442
 N,0,-9.3523047568,-1.4957631281,-4.5890645864
 N,0,-6.9589206181,-1.6554402421,-4.6279529047
 O,0,-6.2988625918,3.0851004868,-8.0181639071
 H,0,-7.088198389,3.6390484289,-8.1558273901
 H,0,-8.2313014686,-0.3271675161,-7.2759492472
 H,0,-8.1668338004,1.6308055806,-9.4499038364
 H,0,-9.1298184658,3.275502147,-8.0945106709
 H,0,-10.0791102402,1.8232578565,-7.8769550861
 H,0,-8.0092312624,2.8922605496,-5.8547984769
 H,0,-9.7347857252,3.172564581,-5.8020466465
 H,0,-9.3984739233,1.4582327914,-4.2225293286
 H,0,-10.0753467524,0.6278572132,-5.6200597365
 H,0,-7.1892517434,0.723649548,-5.0225414448
 H,0,-9.2969338372,-2.4790709983,-4.3237158139
 H,0,-7.0192353296,-2.6657670953,-4.5957016466
 H,0,-6.1989493152,-1.3526145997,-5.2267784198
 Recover connectivity data from disk.
                           ----------------------------
                           !    Current Parameters    !
                           ! (Angstroms and Degrees)  !
 --------------------------                            --------------------------
 ! Name  Definition              Value                                          !
 --------------------------------------------------------------------------------
 ! R1    R(1,2)                  1.4382                                         !
 ! R2    R(1,9)                  1.0145                                         !
 ! R3    R(1,16)                 1.0152                                         !
 ! R4    R(2,3)                  1.5463                                         !
 ! R5    R(2,5)                  1.5976                                         !
 ! R6    R(2,11)                 1.0919                                         !
 ! R7    R(3,4)                  1.2208                                         !
 ! R8    R(3,17)                 1.3605                                         !
 ! R9    R(5,6)                  1.4731                                         !
 ! R10   R(5,12)                 1.0899                                         !
 ! R11   R(5,13)                 1.0929                                         !
 ! R12   R(6,7)                  1.311                                          !
 ! R13   R(6,8)                  1.3157                                         !
 ! R14   R(7,14)                 1.0152                                         !
 ! R15   R(7,15)                 1.039                                          !
 ! R16   R(8,10)                 0.9755                                         !
 ! R17   R(17,18)                1.4672                                         !
 ! R18   R(17,28)                1.0116                                         !
 ! R19   R(18,19)                1.5428                                         !
 ! R20   R(18,21)                1.5531                                         !
 ! R21   R(18,29)                1.0989                                         !
 ! R22   R(19,20)                1.2273                                         !
 ! R23   R(19,37)                1.3698                                         !
 ! R24   R(21,22)                1.5144                                         !
 ! R25   R(21,30)                1.0934                                         !
 ! R26   R(21,31)                1.0918                                         !
 ! R27   R(22,23)                1.403                                          !
 ! R28   R(22,24)                1.4022                                         !
 ! R29   R(23,25)                1.3978                                         !
 ! R30   R(23,32)                1.0871                                         !
 ! R31   R(24,26)                1.3968                                         !
 ! R32   R(24,33)                1.0848                                         !
 ! R33   R(25,27)                1.3967                                         !
 ! R34   R(25,34)                1.0878                                         !
 ! R35   R(26,27)                1.397                                          !
 ! R36   R(26,35)                1.0868                                         !
 ! R37   R(27,36)                1.0866                                         !
 ! R38   R(37,38)                1.4575                                         !
 ! R39   R(37,45)                1.0237                                         !
 ! R40   R(38,39)                1.5407                                         !
 ! R41   R(38,41)                1.5387                                         !
 ! R42   R(38,46)                1.0918                                         !
 ! R43   R(39,40)                1.2217                                         !
 ! R44   R(39,51)                1.3782                                         !
 ! R45   R(41,42)                1.5284                                         !
 ! R46   R(41,47)                1.0955                                         !
 ! R47   R(41,48)                1.0955                                         !
 ! R48   R(42,43)                1.3513                                         !
 ! R49   R(42,44)                1.2321                                         !
 ! R50   R(43,49)                1.0112                                         !
 ! R51   R(43,50)                1.0094                                         !
 ! R52   R(51,52)                1.449                                          !
 ! R53   R(51,64)                1.0203                                         !
 ! R54   R(52,53)                1.5196                                         !
 ! R55   R(52,55)                1.5544                                         !
 ! R56   R(52,65)                1.1004                                         !
 ! R57   R(53,54)                1.2244                                         !
 ! R58   R(53,62)                1.3374                                         !
 ! R59   R(55,56)                1.5402                                         !
 ! R60   R(55,66)                1.1014                                         !
 ! R61   R(55,67)                1.0941                                         !
 ! R62   R(56,57)                1.5321                                         !
 ! R63   R(56,68)                1.1017                                         !
 ! R64   R(56,69)                1.0963                                         !
 ! R65   R(57,58)                1.4715                                         !
 ! R66   R(57,70)                1.0983                                         !
 ! R67   R(57,71)                1.0906                                         !
 ! R68   R(58,59)                1.4092                                         !
 ! R69   R(58,72)                1.0171                                         !
 ! R70   R(59,60)                1.2821                                         !
 ! R71   R(59,61)                1.3916                                         !
 ! R72   R(60,73)                1.02                                           !
 ! R73   R(61,74)                1.0126                                         !
 ! R74   R(61,75)                1.0138                                         !
 ! R75   R(62,63)                0.9741                                         !
 ! A1    A(2,1,9)              113.9968                                         !
 ! A2    A(2,1,16)             113.5299                                         !
 ! A3    A(9,1,16)             110.0136                                         !
 ! A4    A(1,2,3)              110.2729                                         !
 ! A5    A(1,2,5)              116.5624                                         !
 ! A6    A(1,2,11)             109.2137                                         !
 ! A7    A(3,2,5)              107.3391                                         !
 ! A8    A(3,2,11)             104.7683                                         !
 ! A9    A(5,2,11)             108.016                                          !
 ! A10   A(2,3,4)              121.1059                                         !
 ! A11   A(2,3,17)             115.3066                                         !
 ! A12   A(4,3,17)             123.5804                                         !
 ! A13   A(2,5,6)              110.6548                                         !
 ! A14   A(2,5,12)             109.2084                                         !
 ! A15   A(2,5,13)             109.1508                                         !
 ! A16   A(6,5,12)             109.7416                                         !
 ! A17   A(6,5,13)             108.9812                                         !
 ! A18   A(12,5,13)            109.0789                                         !
 ! A19   A(5,6,7)              121.8427                                         !
 ! A20   A(5,6,8)              115.4291                                         !
 ! A21   A(7,6,8)              122.6067                                         !
 ! A22   A(6,7,14)             122.7395                                         !
 ! A23   A(6,7,15)             118.9735                                         !
 ! A24   A(14,7,15)            118.2524                                         !
 ! A25   A(6,8,10)             114.5965                                         !
 ! A26   A(3,17,18)            122.0341                                         !
 ! A27   A(3,17,28)            119.885                                          !
 ! A28   A(18,17,28)           118.0749                                         !
 ! A29   A(17,18,19)           107.8541                                         !
 ! A30   A(17,18,21)           113.5897                                         !
 ! A31   A(17,18,29)           107.6147                                         !
 ! A32   A(19,18,21)           112.4728                                         !
 ! A33   A(19,18,29)           108.4615                                         !
 ! A34   A(21,18,29)           106.6356                                         !
 ! A35   A(18,19,20)           121.192                                          !
 ! A36   A(18,19,37)           117.4921                                         !
 ! A37   A(20,19,37)           121.2489                                         !
 ! A38   A(18,21,22)           115.1852                                         !
 ! A39   A(18,21,30)           106.9546                                         !
 ! A40   A(18,21,31)           106.6396                                         !
 ! A41   A(22,21,30)           110.6001                                         !
 ! A42   A(22,21,31)           109.1178                                         !
 ! A43   A(30,21,31)           108.0596                                         !
 ! A44   A(21,22,23)           119.9372                                         !
 ! A45   A(21,22,24)           121.7934                                         !
 ! A46   A(23,22,24)           118.265                                          !
 ! A47   A(22,23,25)           120.9283                                         !
 ! A48   A(22,23,32)           119.0664                                         !
 ! A49   A(25,23,32)           120.0011                                         !
 ! A50   A(22,24,26)           120.935                                          !
 ! A51   A(22,24,33)           118.6604                                         !
 ! A52   A(26,24,33)           120.3884                                         !
 ! A53   A(23,25,27)           120.1974                                         !
 ! A54   A(23,25,34)           119.7222                                         !
 ! A55   A(27,25,34)           120.0664                                         !
 ! A56   A(24,26,27)           120.2501                                         !
 ! A57   A(24,26,35)           119.6856                                         !
 ! A58   A(27,26,35)           120.0523                                         !
 ! A59   A(25,27,26)           119.3776                                         !
 ! A60   A(25,27,36)           120.3525                                         !
 ! A61   A(26,27,36)           120.2397                                         !
 ! A62   A(19,37,38)           128.3565                                         !
 ! A63   A(19,37,45)           113.5082                                         !
 ! A64   A(38,37,45)           116.9686                                         !
 ! A65   A(37,38,39)           114.5746                                         !
 ! A66   A(37,38,41)           111.5965                                         !
 ! A67   A(37,38,46)           109.0095                                         !
 ! A68   A(39,38,41)           108.6564                                         !
 ! A69   A(39,38,46)           104.9498                                         !
 ! A70   A(41,38,46)           107.642                                          !
 ! A71   A(38,39,40)           119.9439                                         !
 ! A72   A(38,39,51)           117.0777                                         !
 ! A73   A(40,39,51)           122.8422                                         !
 ! A74   A(38,41,42)           110.7998                                         !
 ! A75   A(38,41,47)           109.8186                                         !
 ! A76   A(38,41,48)           108.3812                                         !
 ! A77   A(42,41,47)           111.0659                                         !
 ! A78   A(42,41,48)           108.5547                                         !
 ! A79   A(47,41,48)           108.1322                                         !
 ! A80   A(41,42,43)           116.1133                                         !
 ! A81   A(41,42,44)           121.1607                                         !
 ! A82   A(43,42,44)           122.7222                                         !
 ! A83   A(42,43,49)           118.7112                                         !
 ! A84   A(42,43,50)           122.7406                                         !
 ! A85   A(49,43,50)           118.5482                                         !
 ! A86   A(39,51,52)           117.2119                                         !
 ! A87   A(39,51,64)           118.8559                                         !
 ! A88   A(52,51,64)           112.9096                                         !
 ! A89   A(51,52,53)           109.86                                           !
 ! A90   A(51,52,55)           114.44                                           !
 ! A91   A(51,52,65)           105.3464                                         !
 ! A92   A(53,52,55)           114.0828                                         !
 ! A93   A(53,52,65)           105.7022                                         !
 ! A94   A(55,52,65)           106.5831                                         !
 ! A95   A(52,53,54)           124.0317                                         !
 ! A96   A(52,53,62)           117.4001                                         !
 ! A97   A(54,53,62)           118.4826                                         !
 ! A98   A(52,55,56)           118.2192                                         !
 ! A99   A(52,55,66)           108.1968                                         !
 ! A100  A(52,55,67)           105.7664                                         !
 ! A101  A(56,55,66)           108.5491                                         !
 ! A102  A(56,55,67)           109.8079                                         !
 ! A103  A(66,55,67)           105.5838                                         !
 ! A104  A(55,56,57)           116.4125                                         !
 ! A105  A(55,56,68)           110.3626                                         !
 ! A106  A(55,56,69)           106.8403                                         !
 ! A107  A(57,56,68)           109.8614                                         !
 ! A108  A(57,56,69)           107.2568                                         !
 ! A109  A(68,56,69)           105.4473                                         !
 ! A110  A(56,57,58)           111.0671                                         !
 ! A111  A(56,57,70)           109.8279                                         !
 ! A112  A(56,57,71)           110.6842                                         !
 ! A113  A(58,57,70)           110.3999                                         !
 ! A114  A(58,57,71)           107.6455                                         !
 ! A115  A(70,57,71)           107.1199                                         !
 ! A116  A(57,58,59)           117.7489                                         !
 ! A117  A(57,58,72)           112.0141                                         !
 ! A118  A(59,58,72)           111.586                                          !
 ! A119  A(58,59,60)           119.8844                                         !
 ! A120  A(58,59,61)           112.5467                                         !
 ! A121  A(60,59,61)           127.5535                                         !
 ! A122  A(59,60,73)           110.6981                                         !
 ! A123  A(59,61,74)           113.9924                                         !
 ! A124  A(59,61,75)           116.3121                                         !
 ! A125  A(74,61,75)           111.1906                                         !
 ! A126  A(53,62,63)           111.1112                                         !
 ! D1    D(9,1,2,3)           -164.0191                                         !
 ! D2    D(9,1,2,5)             73.3064                                         !
 ! D3    D(9,1,2,11)           -49.4051                                         !
 ! D4    D(16,1,2,3)            68.9365                                         !
 ! D5    D(16,1,2,5)           -53.738                                          !
 ! D6    D(16,1,2,11)         -176.4496                                         !
 ! D7    D(1,2,3,4)            117.5445                                         !
 ! D8    D(1,2,3,17)           -63.3884                                         !
 ! D9    D(5,2,3,4)           -114.5239                                         !
 ! D10   D(5,2,3,17)            64.5432                                         !
 ! D11   D(11,2,3,4)             0.1455                                         !
 ! D12   D(11,2,3,17)          179.2126                                         !
 ! D13   D(1,2,5,6)            -66.6418                                         !
 ! D14   D(1,2,5,12)            54.2621                                         !
 ! D15   D(1,2,5,13)           173.4325                                         !
 ! D16   D(3,2,5,6)            169.1701                                         !
 ! D17   D(3,2,5,12)           -69.926                                          !
 ! D18   D(3,2,5,13)            49.2445                                         !
 ! D19   D(11,2,5,6)            56.6905                                         !
 ! D20   D(11,2,5,12)          177.5944                                         !
 ! D21   D(11,2,5,13)          -63.2352                                         !
 ! D22   D(2,3,17,18)         -176.8674                                         !
 ! D23   D(2,3,17,28)            2.2238                                         !
 ! D24   D(4,3,17,18)            2.1738                                         !
 ! D25   D(4,3,17,28)         -178.735                                          !
 ! D26   D(2,5,6,7)             93.4274                                         !
 ! D27   D(2,5,6,8)            -82.6639                                         !
 ! D28   D(12,5,6,7)           -27.1595                                         !
 ! D29   D(12,5,6,8)           156.7492                                         !
 ! D30   D(13,5,6,7)          -146.5453                                         !
 ! D31   D(13,5,6,8)            37.3635                                         !
 ! D32   D(5,6,7,14)          -177.9609                                         !
 ! D33   D(5,6,7,15)             4.2189                                         !
 ! D34   D(8,6,7,14)            -2.1519                                         !
 ! D35   D(8,6,7,15)          -179.9721                                         !
 ! D36   D(5,6,8,10)           176.5861                                         !
 ! D37   D(7,6,8,10)             0.5279                                         !
 ! D38   D(3,17,18,19)        -173.1081                                         !
 ! D39   D(3,17,18,21)          61.5215                                         !
 ! D40   D(3,17,18,29)         -56.2794                                         !
 ! D41   D(28,17,18,19)          7.7849                                         !
 ! D42   D(28,17,18,21)       -117.5855                                         !
 ! D43   D(28,17,18,29)        124.6136                                         !
 ! D44   D(17,18,19,20)       -124.579                                          !
 ! D45   D(17,18,19,37)         52.4799                                         !
 ! D46   D(21,18,19,20)          1.4522                                         !
 ! D47   D(21,18,19,37)        178.511                                          !
 ! D48   D(29,18,19,20)        119.1442                                         !
 ! D49   D(29,18,19,37)        -63.797                                          !
 ! D50   D(17,18,21,22)         41.158                                          !
 ! D51   D(17,18,21,30)        164.5136                                         !
 ! D52   D(17,18,21,31)        -80.0588                                         !
 ! D53   D(19,18,21,22)        -81.7082                                         !
 ! D54   D(19,18,21,30)         41.6475                                         !
 ! D55   D(19,18,21,31)        157.0751                                         !
 ! D56   D(29,18,21,22)        159.5242                                         !
 ! D57   D(29,18,21,30)        -77.1201                                         !
 ! D58   D(29,18,21,31)         38.3075                                         !
 ! D59   D(18,19,37,38)         20.481                                          !
 ! D60   D(18,19,37,45)       -172.385                                          !
 ! D61   D(20,19,37,38)       -162.4619                                         !
 ! D62   D(20,19,37,45)          4.6721                                         !
 ! D63   D(18,21,22,23)        -95.538                                          !
 ! D64   D(18,21,22,24)         85.2411                                         !
 ! D65   D(30,21,22,23)        143.0615                                         !
 ! D66   D(30,21,22,24)        -36.1594                                         !
 ! D67   D(31,21,22,23)         24.3235                                         !
 ! D68   D(31,21,22,24)       -154.8974                                         !
 ! D69   D(21,22,23,25)        179.011                                          !
 ! D70   D(21,22,23,32)         -1.736                                          !
 ! D71   D(24,22,23,25)         -1.7408                                         !
 ! D72   D(24,22,23,32)        177.5121                                         !
 ! D73   D(21,22,24,26)       -178.4738                                         !
 ! D74   D(21,22,24,33)          2.9836                                         !
 ! D75   D(23,22,24,26)          2.2928                                         !
 ! D76   D(23,22,24,33)       -176.2498                                         !
 ! D77   D(22,23,25,27)         -0.1521                                         !
 ! D78   D(22,23,25,34)        178.4884                                         !
 ! D79   D(32,23,25,27)       -179.3981                                         !
 ! D80   D(32,23,25,34)         -0.7576                                         !
 ! D81   D(22,24,26,27)         -0.9557                                         !
 ! D82   D(22,24,26,35)       -179.6952                                         !
 ! D83   D(33,24,26,27)        177.5618                                         !
 ! D84   D(33,24,26,35)         -1.1777                                         !
 ! D85   D(23,25,27,26)          1.5272                                         !
 ! D86   D(23,25,27,36)        179.5346                                         !
 ! D87   D(34,25,27,26)       -177.1086                                         !
 ! D88   D(34,25,27,36)          0.8988                                         !
 ! D89   D(24,26,27,25)         -0.981                                          !
 ! D90   D(24,26,27,36)       -178.9907                                         !
 ! D91   D(35,26,27,25)        177.7538                                         !
 ! D92   D(35,26,27,36)         -0.2558                                         !
 ! D93   D(19,37,38,39)       -119.1784                                         !
 ! D94   D(19,37,38,41)        116.8116                                         !
 ! D95   D(19,37,38,46)         -1.9476                                         !
 ! D96   D(45,37,38,39)         74.0659                                         !
 ! D97   D(45,37,38,41)        -49.9441                                         !
 ! D98   D(45,37,38,46)       -168.7033                                         !
 ! D99   D(37,38,39,40)       -174.7432                                         !
 ! D100  D(37,38,39,51)          9.3773                                         !
 ! D101  D(41,38,39,40)        -49.1819                                         !
 ! D102  D(41,38,39,51)        134.9386                                         !
 ! D103  D(46,38,39,40)         65.7307                                         !
 ! D104  D(46,38,39,51)       -110.1488                                         !
 ! D105  D(37,38,41,42)         64.5567                                         !
 ! D106  D(37,38,41,47)        -58.5094                                         !
 ! D107  D(37,38,41,48)       -176.4362                                         !
 ! D108  D(39,38,41,42)        -62.7254                                         !
 ! D109  D(39,38,41,47)        174.2085                                         !
 ! D110  D(39,38,41,48)         56.2818                                         !
 ! D111  D(46,38,41,42)       -175.8725                                         !
 ! D112  D(46,38,41,47)         61.0614                                         !
 ! D113  D(46,38,41,48)        -56.8653                                         !
 ! D114  D(38,39,51,52)       -165.6332                                         !
 ! D115  D(38,39,51,64)        -24.0867                                         !
 ! D116  D(40,39,51,52)         18.6167                                         !
 ! D117  D(40,39,51,64)        160.1632                                         !
 ! D118  D(38,41,42,43)       -167.4251                                         !
 ! D119  D(38,41,42,44)         13.2547                                         !
 ! D120  D(47,41,42,43)        -45.0831                                         !
 ! D121  D(47,41,42,44)        135.5967                                         !
 ! D122  D(48,41,42,43)         73.6724                                         !
 ! D123  D(48,41,42,44)       -105.6477                                         !
 ! D124  D(41,42,43,49)       -179.0052                                         !
 ! D125  D(41,42,43,50)          1.0553                                         !
 ! D126  D(44,42,43,49)          0.3033                                         !
 ! D127  D(44,42,43,50)       -179.6362                                         !
 ! D128  D(39,51,52,53)       -144.4684                                         !
 ! D129  D(39,51,52,55)         85.6863                                         !
 ! D130  D(39,51,52,65)        -31.0452                                         !
 ! D131  D(64,51,52,53)         71.7814                                         !
 ! D132  D(64,51,52,55)        -58.0639                                         !
 ! D133  D(64,51,52,65)       -174.7954                                         !
 ! D134  D(51,52,53,54)          8.1511                                         !
 ! D135  D(51,52,53,62)       -175.2707                                         !
 ! D136  D(55,52,53,54)        138.1886                                         !
 ! D137  D(55,52,53,62)        -45.2332                                         !
 ! D138  D(65,52,53,54)       -105.0427                                         !
 ! D139  D(65,52,53,62)         71.5355                                         !
 ! D140  D(51,52,55,56)         77.8737                                         !
 ! D141  D(51,52,55,66)       -158.3168                                         !
 ! D142  D(51,52,55,67)        -45.5703                                         !
 ! D143  D(53,52,55,56)        -49.8508                                         !
 ! D144  D(53,52,55,66)         73.9587                                         !
 ! D145  D(53,52,55,67)       -173.2948                                         !
 ! D146  D(65,52,55,56)       -166.1083                                         !
 ! D147  D(65,52,55,66)        -42.2988                                         !
 ! D148  D(65,52,55,67)         70.4477                                         !
 ! D149  D(52,53,62,63)          4.8196                                         !
 ! D150  D(54,53,62,63)       -178.4064                                         !
 ! D151  D(52,55,56,57)        -67.5269                                         !
 ! D152  D(52,55,56,68)         58.5572                                         !
 ! D153  D(52,55,56,69)        172.7104                                         !
 ! D154  D(66,55,56,57)        168.839                                          !
 ! D155  D(66,55,56,68)        -65.0769                                         !
 ! D156  D(66,55,56,69)         49.0763                                         !
 ! D157  D(67,55,56,57)         53.8752                                         !
 ! D158  D(67,55,56,68)        179.9593                                         !
 ! D159  D(67,55,56,69)        -65.8875                                         !
 ! D160  D(55,56,57,58)         75.3041                                         !
 ! D161  D(55,56,57,70)       -162.2858                                         !
 ! D162  D(55,56,57,71)        -44.2113                                         !
 ! D163  D(68,56,57,58)        -51.0307                                         !
 ! D164  D(68,56,57,70)         71.3794                                         !
 ! D165  D(68,56,57,71)       -170.5461                                         !
 ! D166  D(69,56,57,58)       -165.1576                                         !
 ! D167  D(69,56,57,70)        -42.7475                                         !
 ! D168  D(69,56,57,71)         75.327                                          !
 ! D169  D(56,57,58,59)       -169.3808                                         !
 ! D170  D(56,57,58,72)         59.2349                                         !
 ! D171  D(70,57,58,59)         68.5412                                         !
 ! D172  D(70,57,58,72)        -62.843                                          !
 ! D173  D(71,57,58,59)        -48.0661                                         !
 ! D174  D(71,57,58,72)       -179.4504                                         !
 ! D175  D(57,58,59,60)         17.0409                                         !
 ! D176  D(57,58,59,61)       -164.28                                           !
 ! D177  D(72,58,59,60)        148.6188                                         !
 ! D178  D(72,58,59,61)        -32.7021                                         !
 ! D179  D(58,59,60,73)        172.6432                                         !
 ! D180  D(61,59,60,73)         -5.8179                                         !
 ! D181  D(58,59,61,74)       -157.747                                          !
 ! D182  D(58,59,61,75)        -26.3347                                         !
 ! D183  D(60,59,61,74)         20.8084                                         !
 ! D184  D(60,59,61,75)        152.2207                                         !
 --------------------------------------------------------------------------------
 Symmetry turned off by external request.
 Stoichiometry    C23H36N9O7(1+)
 Framework group  C1[X(C23H36N9O7)]
 Deg. of freedom   219
 Full point group                 C1      NOp   1
                          Input orientation:                          
 ---------------------------------------------------------------------
 Center     Atomic      Atomic             Coordinates (Angstroms)
 Number     Number       Type             X           Y           Z
 ---------------------------------------------------------------------
      1          7           0       -5.839441   -0.808616  -10.502366
      2          6           0       -4.961713   -1.867090  -10.080884
      3          6           0       -5.778441   -3.131849   -9.728008
      4          8           0       -5.631878   -4.171460  -10.351051
      5          6           0       -4.009471   -1.552896   -8.837209
      6          6           0       -3.017672   -0.522271   -9.189503
      7          7           0       -3.229436    0.750129   -8.955390
      8          8           0       -1.950226   -0.958548   -9.822979
      9          1           0       -5.369201   -0.050310  -10.985093
     10          1           0       -1.326582   -0.260027  -10.096515
     11          1           0       -4.332120   -2.167696  -10.920791
     12          1           0       -4.615707   -1.209236   -7.999250
     13          1           0       -3.484822   -2.466831   -8.547460
     14          1           0       -2.568917    1.474371   -9.219655
     15          1           0       -4.092054    1.032040   -8.449422
     16          1           0       -6.416997   -0.438785   -9.753835
     17          7           0       -6.635631   -2.996996   -8.680158
     18          6           0       -7.432504   -4.121468   -8.176867
     19          6           0       -8.407312   -3.572375   -7.114501
     20          8           0       -8.437527   -4.037033   -5.978946
     21          6           0       -6.574964   -5.301005   -7.642527
     22          6           0       -5.362025   -4.899462   -6.829616
     23          6           0       -4.106667   -4.799058   -7.447994
     24          6           0       -5.448187   -4.635604   -5.455193
     25          6           0       -2.977190   -4.410306   -6.721966
     26          6           0       -4.324009   -4.235834   -4.728919
     27          6           0       -3.084895   -4.111423   -5.361883
     28          1           0       -6.726834   -2.103151   -8.215382
     29          1           0       -8.020086   -4.515363   -9.017806
     30          1           0       -7.240214   -5.937138   -7.052355
     31          1           0       -6.248230   -5.870324   -8.514938
     32          1           0       -4.017389   -5.040414   -8.504213
     33          1           0       -6.402876   -4.771054   -4.958263
     34          1           0       -2.008906   -4.362736   -7.215406
     35          1           0       -4.412808   -4.041407   -3.663311
     36          1           0       -2.207206   -3.816281   -4.793394
     37          7           0       -9.193102   -2.507421   -7.467644
     38          6           0       -9.551681   -2.052135   -8.804940
     39          6           0       -9.088823   -0.621423   -9.140264
     40          8           0       -9.419243   -0.105602  -10.197243
     41          6           0      -11.067857   -2.148741   -9.048507
     42          6           0      -11.828271   -1.203704   -8.118544
     43          7           0      -13.165509   -1.385313   -8.049913
     44          8           0      -11.242189   -0.324128   -7.485287
     45          1           0       -9.724361   -2.114870   -6.685583
     46          1           0       -9.056989   -2.688166   -9.541720
     47          1           0      -11.400214   -3.184086   -8.915327
     48          1           0      -11.270629   -1.856186  -10.084533
     49          1           0      -13.709314   -0.771718   -7.458124
     50          1           0      -13.645249   -2.109188   -8.564440
     51          7           0       -8.234088   -0.012941   -8.246634
     52          6           0       -8.048489    1.418182   -8.376759
     53          6           0       -6.612716    1.785206   -8.040681
     54          8           0       -5.722540    0.966231   -7.851000
     55          6           0       -9.112433    2.274763   -7.634812
     56          6           0       -8.980480    2.438675   -6.109043
     57          6           0       -9.202984    1.178606   -5.266475
     58          7           0       -8.043183    0.276658   -5.347302
     59          6           0       -8.183125   -1.021252   -4.816579
     60          7           0       -9.352305   -1.495763   -4.589065
     61          7           0       -6.958921   -1.655440   -4.627953
     62          8           0       -6.298863    3.085100   -8.018164
     63          1           0       -7.088198    3.639048   -8.155827
     64          1           0       -8.231301   -0.327168   -7.275949
     65          1           0       -8.166834    1.630806   -9.449904
     66          1           0       -9.129818    3.275502   -8.094511
     67          1           0      -10.079110    1.823258   -7.876955
     68          1           0       -8.009231    2.892261   -5.854798
     69          1           0       -9.734786    3.172565   -5.802047
     70          1           0       -9.398474    1.458233   -4.222529
     71          1           0      -10.075347    0.627857   -5.620060
     72          1           0       -7.189252    0.723650   -5.022541
     73          1           0       -9.296934   -2.479071   -4.323716
     74          1           0       -7.019235   -2.665767   -4.595702
     75          1           0       -6.198949   -1.352615   -5.226778
 ---------------------------------------------------------------------
 Rotational constants (GHZ):           0.1225790           0.0853672           0.0723816
 Standard basis: 6-31G(d) (6D, 7F)
   657 basis functions,  1236 primitive gaussians,   657 cartesian basis functions
   146 alpha electrons      146 beta electrons
       nuclear repulsion energy      5178.5320960924 Hartrees.
 NAtoms=   75 NActive=   75 NUniq=   75 SFac= 1.00D+00 NAtFMM=   60 NAOKFM=T Big=T
 Integral buffers will be    131072 words long.
 Raffenetti 2 integral format.
 Two-electron integral symmetry is turned off.
 Nuclear repulsion after empirical dispersion term =     5178.4078215452 Hartrees.
 One-electron integrals computed using PRISM.
 NBasis=   657 RedAO= T EigKep=  4.67D-04  NBF=   657
 NBsUse=   657 1.00D-06 EigRej= -1.00D+00 NBFU=   657
 Initial guess from the checkpoint file:  "conf-472.chk"
 B after Tr=     0.000000    0.000000    0.000000
         Rot=    1.000000    0.000000    0.000000    0.000000 Ang=   0.00 deg.
 Requested convergence on RMS density matrix=1.00D-08 within 128 cycles.
 Requested convergence on MAX density matrix=1.00D-06.
 Requested convergence on             energy=1.00D-06.
 No special actions if energy rises.
 SCF Done:  E(RB3LYP) =  -1917.43304532     A.U. after    2 cycles
            NFock=  2  Conv=0.88D-08     -V/T= 2.0093

 **********************************************************************

            Population analysis using the SCF Density.

 **********************************************************************

 Alpha  occ. eigenvalues --  -19.38884 -19.33793 -19.28711 -19.21635 -19.21591
 Alpha  occ. eigenvalues --  -19.21517 -19.21279 -14.55535 -14.46575 -14.45644
 Alpha  occ. eigenvalues --  -14.45454 -14.45205 -14.44049 -14.43612 -14.42862
 Alpha  occ. eigenvalues --  -14.36428 -10.50107 -10.46438 -10.39030 -10.38973
 Alpha  occ. eigenvalues --  -10.38863 -10.38807 -10.36436 -10.35598 -10.35545
 Alpha  occ. eigenvalues --  -10.34040 -10.33927 -10.33372 -10.30079 -10.29604
 Alpha  occ. eigenvalues --  -10.29561 -10.28799 -10.27498 -10.27022 -10.26821
 Alpha  occ. eigenvalues --  -10.26790 -10.26751 -10.26559 -10.26307  -1.28589
 Alpha  occ. eigenvalues --   -1.24787  -1.16299  -1.14125  -1.13819  -1.13244
 Alpha  occ. eigenvalues --   -1.12788  -1.11849  -1.06157  -1.03807  -1.02950
 Alpha  occ. eigenvalues --   -1.01851  -1.00802  -1.00012  -0.97265  -0.93280
 Alpha  occ. eigenvalues --   -0.92581  -0.92447  -0.90111  -0.87905  -0.87094
 Alpha  occ. eigenvalues --   -0.84372  -0.83376  -0.82129  -0.81545  -0.78268
 Alpha  occ. eigenvalues --   -0.78095  -0.77613  -0.76566  -0.75206  -0.74851
 Alpha  occ. eigenvalues --   -0.71845  -0.70290  -0.69408  -0.69080  -0.68656
 Alpha  occ. eigenvalues --   -0.68220  -0.67681  -0.67274  -0.66385  -0.65979
 Alpha  occ. eigenvalues --   -0.64393  -0.63052  -0.62565  -0.62160  -0.61614
 Alpha  occ. eigenvalues --   -0.61128  -0.60843  -0.60170  -0.59955  -0.59264
 Alpha  occ. eigenvalues --   -0.59017  -0.58438  -0.57222  -0.56913  -0.56577
 Alpha  occ. eigenvalues --   -0.56279  -0.55949  -0.55500  -0.55005  -0.54311
 Alpha  occ. eigenvalues --   -0.54004  -0.53775  -0.53422  -0.53297  -0.53056
 Alpha  occ. eigenvalues --   -0.52733  -0.51736  -0.51357  -0.51079  -0.50439
 Alpha  occ. eigenvalues --   -0.50154  -0.50003  -0.49580  -0.49295  -0.48978
 Alpha  occ. eigenvalues --   -0.48673  -0.48516  -0.48313  -0.47310  -0.46905
 Alpha  occ. eigenvalues --   -0.46563  -0.46413  -0.46099  -0.45946  -0.44903
 Alpha  occ. eigenvalues --   -0.44487  -0.43636  -0.43522  -0.43377  -0.41890
 Alpha  occ. eigenvalues --   -0.41522  -0.41177  -0.37899  -0.36989  -0.36812
 Alpha  occ. eigenvalues --   -0.36331  -0.35834  -0.35435  -0.35154  -0.34564
 Alpha  occ. eigenvalues --   -0.34325  -0.33903  -0.33653  -0.32842  -0.32200
 Alpha  occ. eigenvalues --   -0.31270
 Alpha virt. eigenvalues --   -0.18561  -0.13666  -0.11143  -0.09050  -0.08603
 Alpha virt. eigenvalues --   -0.08362  -0.07877  -0.07347  -0.06957  -0.06611
 Alpha virt. eigenvalues --   -0.05854  -0.04744  -0.03271  -0.02259  -0.00807
 Alpha virt. eigenvalues --   -0.00312   0.00297   0.01089   0.01312   0.01907
 Alpha virt. eigenvalues --    0.02954   0.03380   0.03697   0.03825   0.04436
 Alpha virt. eigenvalues --    0.04883   0.05291   0.05667   0.05943   0.06127
 Alpha virt. eigenvalues --    0.06350   0.06719   0.06910   0.07425   0.07672
 Alpha virt. eigenvalues --    0.08207   0.08426   0.08752   0.08918   0.09205
 Alpha virt. eigenvalues --    0.09461   0.09532   0.10048   0.10271   0.10561
 Alpha virt. eigenvalues --    0.11004   0.11134   0.11603   0.12629   0.12843
 Alpha virt. eigenvalues --    0.12895   0.13421   0.13520   0.13890   0.14806
 Alpha virt. eigenvalues --    0.15687   0.15886   0.16043   0.16806   0.17055
 Alpha virt. eigenvalues --    0.17406   0.18046   0.18937   0.19213   0.19902
 Alpha virt. eigenvalues --    0.20154   0.22987   0.23427   0.24235   0.24386
 Alpha virt. eigenvalues --    0.24901   0.25150   0.25961   0.26497   0.26918
 Alpha virt. eigenvalues --    0.27344   0.28221   0.28850   0.29520   0.30329
 Alpha virt. eigenvalues --    0.33241   0.33797   0.35670   0.36207   0.36456
 Alpha virt. eigenvalues --    0.37690   0.38092   0.39082   0.39959   0.41347
 Alpha virt. eigenvalues --    0.41497   0.41779   0.42138   0.42699   0.43187
 Alpha virt. eigenvalues --    0.43613   0.43992   0.44794   0.45319   0.46349
 Alpha virt. eigenvalues --    0.46576   0.47206   0.47683   0.47968   0.48086
 Alpha virt. eigenvalues --    0.48461   0.48998   0.49200   0.49608   0.50499
 Alpha virt. eigenvalues --    0.50663   0.51314   0.51544   0.51706   0.52400
 Alpha virt. eigenvalues --    0.52574   0.52866   0.53539   0.53579   0.53942
 Alpha virt. eigenvalues --    0.54348   0.54640   0.55102   0.55175   0.55754
 Alpha virt. eigenvalues --    0.56334   0.56382   0.56832   0.57146   0.57686
 Alpha virt. eigenvalues --    0.58077   0.58980   0.59260   0.59778   0.59853
 Alpha virt. eigenvalues --    0.60739   0.61342   0.61671   0.62127   0.62543
 Alpha virt. eigenvalues --    0.63118   0.63255   0.64089   0.65191   0.65435
 Alpha virt. eigenvalues --    0.66091   0.66944   0.67059   0.67573   0.67964
 Alpha virt. eigenvalues --    0.68382   0.69305   0.69596   0.69830   0.70411
 Alpha virt. eigenvalues --    0.70749   0.72051   0.72607   0.73116   0.73532
 Alpha virt. eigenvalues --    0.73655   0.74366   0.74867   0.75105   0.75502
 Alpha virt. eigenvalues --    0.76152   0.76466   0.76588   0.76852   0.77048
 Alpha virt. eigenvalues --    0.77424   0.77711   0.78121   0.78537   0.78991
 Alpha virt. eigenvalues --    0.79372   0.79549   0.79754   0.80149   0.80392
 Alpha virt. eigenvalues --    0.81181   0.81490   0.81898   0.82543   0.82687
 Alpha virt. eigenvalues --    0.82774   0.83424   0.84132   0.84901   0.85028
 Alpha virt. eigenvalues --    0.85508   0.85947   0.86336   0.86752   0.87106
 Alpha virt. eigenvalues --    0.87916   0.88113   0.88563   0.88703   0.89078
 Alpha virt. eigenvalues --    0.89468   0.90317   0.91193   0.91394   0.91890
 Alpha virt. eigenvalues --    0.92505   0.92765   0.93516   0.93744   0.95166
 Alpha virt. eigenvalues --    0.95668   0.96442   0.97164   0.97512   0.97695
 Alpha virt. eigenvalues --    0.98999   0.99928   1.00063   1.01378   1.02041
 Alpha virt. eigenvalues --    1.02556   1.03754   1.04384   1.04820   1.05372
 Alpha virt. eigenvalues --    1.05651   1.06356   1.07171   1.07802   1.09213
 Alpha virt. eigenvalues --    1.09980   1.11367   1.11619   1.11808   1.13464
 Alpha virt. eigenvalues --    1.13733   1.14777   1.15103   1.16464   1.16815
 Alpha virt. eigenvalues --    1.16967   1.18218   1.19117   1.19483   1.19769
 Alpha virt. eigenvalues --    1.20226   1.20499   1.21793   1.22363   1.23193
 Alpha virt. eigenvalues --    1.23646   1.25007   1.26112   1.26805   1.27285
 Alpha virt. eigenvalues --    1.27747   1.29011   1.30470   1.31159   1.31398
 Alpha virt. eigenvalues --    1.32448   1.32950   1.33504   1.34628   1.34960
 Alpha virt. eigenvalues --    1.35618   1.36704   1.37329   1.38556   1.39655
 Alpha virt. eigenvalues --    1.40183   1.40845   1.41268   1.41767   1.42185
 Alpha virt. eigenvalues --    1.42776   1.43777   1.44251   1.44665   1.45843
 Alpha virt. eigenvalues --    1.46521   1.47362   1.48165   1.48784   1.49150
 Alpha virt. eigenvalues --    1.50019   1.51502   1.51985   1.52973   1.54190
 Alpha virt. eigenvalues --    1.54936   1.56020   1.56662   1.57099   1.57887
 Alpha virt. eigenvalues --    1.59522   1.60388   1.60852   1.61065   1.62349
 Alpha virt. eigenvalues --    1.62770   1.63360   1.64824   1.65397   1.66325
 Alpha virt. eigenvalues --    1.66914   1.67026   1.67424   1.68347   1.69491
 Alpha virt. eigenvalues --    1.69649   1.70208   1.71178   1.71486   1.72444
 Alpha virt. eigenvalues --    1.72960   1.73154   1.74141   1.74564   1.74756
 Alpha virt. eigenvalues --    1.75461   1.76469   1.76684   1.77354   1.77563
 Alpha virt. eigenvalues --    1.77897   1.78609   1.79070   1.80100   1.80362
 Alpha virt. eigenvalues --    1.81168   1.82119   1.82838   1.83286   1.83703
 Alpha virt. eigenvalues --    1.83946   1.84325   1.84425   1.85049   1.85692
 Alpha virt. eigenvalues --    1.86458   1.87152   1.87879   1.88399   1.88455
 Alpha virt. eigenvalues --    1.90138   1.90247   1.91068   1.91719   1.92164
 Alpha virt. eigenvalues --    1.92775   1.94095   1.94367   1.95123   1.95328
 Alpha virt. eigenvalues --    1.95815   1.97305   1.97920   1.98366   1.99196
 Alpha virt. eigenvalues --    2.00044   2.00532   2.01702   2.02754   2.03159
 Alpha virt. eigenvalues --    2.03586   2.05223   2.06056   2.06603   2.07033
 Alpha virt. eigenvalues --    2.07248   2.07793   2.08085   2.08418   2.09749
 Alpha virt. eigenvalues --    2.11005   2.11930   2.12259   2.13076   2.15543
 Alpha virt. eigenvalues --    2.15647   2.16078   2.16919   2.18095   2.19657
 Alpha virt. eigenvalues --    2.20161   2.20598   2.20782   2.21859   2.22760
 Alpha virt. eigenvalues --    2.23399   2.23440   2.24425   2.24781   2.26532
 Alpha virt. eigenvalues --    2.27236   2.28360   2.29167   2.29370   2.30666
 Alpha virt. eigenvalues --    2.31299   2.31450   2.32587   2.32979   2.33444
 Alpha virt. eigenvalues --    2.34536   2.35693   2.35882   2.36782   2.38202
 Alpha virt. eigenvalues --    2.38784   2.40191   2.40858   2.41976   2.43393
 Alpha virt. eigenvalues --    2.43854   2.44435   2.45339   2.47702   2.48060
 Alpha virt. eigenvalues --    2.48874   2.49349   2.49926   2.50907   2.51108
 Alpha virt. eigenvalues --    2.51940   2.53180   2.53654   2.54260   2.54515
 Alpha virt. eigenvalues --    2.55444   2.57023   2.57657   2.58100   2.58401
 Alpha virt. eigenvalues --    2.60027   2.61458   2.61817   2.62974   2.64005
 Alpha virt. eigenvalues --    2.64514   2.65626   2.66813   2.67356   2.67895
 Alpha virt. eigenvalues --    2.68599   2.69398   2.70677   2.72836   2.73543
 Alpha virt. eigenvalues --    2.74553   2.78513   2.78882   2.80860   2.85252
 Alpha virt. eigenvalues --    2.85459   2.86247   2.90676   2.90903   2.92562
 Alpha virt. eigenvalues --    2.92933   2.93869   2.95680   2.95812   2.97688
 Alpha virt. eigenvalues --    2.98859   2.99148   3.02115   3.03437   3.07131
 Alpha virt. eigenvalues --    3.10898   3.33032   3.68923   3.72468   3.75563
 Alpha virt. eigenvalues --    3.78670   3.81189   3.83592   3.91655   3.94079
 Alpha virt. eigenvalues --    3.95746   3.98469   4.00369   4.01985   4.03179
 Alpha virt. eigenvalues --    4.05466   4.06841   4.08504   4.09221   4.09836
 Alpha virt. eigenvalues --    4.12625   4.13557   4.15584   4.22105   4.23334
 Alpha virt. eigenvalues --    4.25118   4.27161   4.29864   4.31166   4.33725
 Alpha virt. eigenvalues --    4.35718   4.39760   4.42711   4.44423   4.47221
 Alpha virt. eigenvalues --    4.49490   4.53820   4.55911   4.63461   4.65919
 Alpha virt. eigenvalues --    4.71040
          Condensed to atoms (all electrons):
 Mulliken charges:
               1
     1  N   -0.723398
     2  C   -0.102445
     3  C    0.660877
     4  O   -0.496346
     5  C   -0.381556
     6  C    0.604183
     7  N   -0.721179
     8  O   -0.509546
     9  H    0.309197
    10  H    0.449269
    11  H    0.201296
    12  H    0.204908
    13  H    0.231256
    14  H    0.376504
    15  H    0.442322
    16  H    0.349350
    17  N   -0.640511
    18  C   -0.023091
    19  C    0.568378
    20  O   -0.509168
    21  C   -0.367538
    22  C    0.155986
    23  C   -0.211668
    24  C   -0.211558
    25  C   -0.148283
    26  C   -0.136132
    27  C   -0.134892
    28  H    0.342734
    29  H    0.187429
    30  H    0.184357
    31  H    0.186474
    32  H    0.159657
    33  H    0.170412
    34  H    0.135121
    35  H    0.149127
    36  H    0.141788
    37  N   -0.649811
    38  C   -0.066029
    39  C    0.650267
    40  O   -0.516655
    41  C   -0.375015
    42  C    0.628946
    43  N   -0.745522
    44  O   -0.526175
    45  H    0.389406
    46  H    0.204056
    47  H    0.178599
    48  H    0.220183
    49  H    0.361800
    50  H    0.357438
    51  N   -0.661967
    52  C   -0.104211
    53  C    0.636771
    54  O   -0.517208
    55  C   -0.315745
    56  C   -0.293742
    57  C   -0.137256
    58  N   -0.659145
    59  C    0.589114
    60  N   -0.658790
    61  N   -0.764269
    62  O   -0.552778
    63  H    0.444201
    64  H    0.408240
    65  H    0.223737
    66  H    0.136167
    67  H    0.226378
    68  H    0.125037
    69  H    0.173084
    70  H    0.164951
    71  H    0.231674
    72  H    0.320390
    73  H    0.307668
    74  H    0.360428
    75  H    0.312467
 Sum of Mulliken charges =   1.00000
 Mulliken charges with hydrogens summed into heavy atoms:
               1
     1  N   -0.064850
     2  C    0.098852
     3  C    0.660877
     4  O   -0.496346
     5  C    0.054608
     6  C    0.604183
     7  N    0.097647
     8  O   -0.060277
    17  N   -0.297777
    18  C    0.164338
    19  C    0.568378
    20  O   -0.509168
    21  C    0.003293
    22  C    0.155986
    23  C   -0.052012
    24  C   -0.041146
    25  C   -0.013162
    26  C    0.012994
    27  C    0.006896
    37  N   -0.260405
    38  C    0.138027
    39  C    0.650267
    40  O   -0.516655
    41  C    0.023767
    42  C    0.628946
    43  N   -0.026284
    44  O   -0.526175
    51  N   -0.253726
    52  C    0.119526
    53  C    0.636771
    54  O   -0.517208
    55  C    0.046800
    56  C    0.004379
    57  C    0.259370
    58  N   -0.338755
    59  C    0.589114
    60  N   -0.351121
    61  N   -0.091374
    62  O   -0.108577
 Electronic spatial extent (au):  <R**2>=         133444.0629
 Charge=              1.0000 electrons
 Dipole moment (field-independent basis, Debye):
    X=            -27.0123    Y=              3.3017    Z=            -41.0939  Tot=             49.2877
 Quadrupole moment (field-independent basis, Debye-Ang):
   XX=             33.3619   YY=           -203.8588   ZZ=            121.5707
   XY=             -3.4260   XZ=            222.6752   YZ=            -29.9150
 Traceless Quadrupole moment (field-independent basis, Debye-Ang):
   XX=             49.6706   YY=           -187.5500   ZZ=            137.8794
   XY=             -3.4260   XZ=            222.6752   YZ=            -29.9150
 Octapole moment (field-independent basis, Debye-Ang**2):
  XXX=           1702.6439  YYY=           1108.5971  ZZZ=           2290.7897  XYY=           1370.0804
  XXY=            153.1113  XXZ=           -444.0744  XZZ=           -129.1462  YZZ=            650.5156
  YYZ=           1563.0625  XYZ=            -17.8886
 Hexadecapole moment (field-independent basis, Debye-Ang**3):
 XXXX=         -37333.4529 YYYY=         -10572.8576 ZZZZ=         -60089.8298 XXXY=          -2115.7675
 XXXZ=         -10067.0352 YYYX=          -6545.3024 YYYZ=          -8253.7280 ZZZX=         -23943.4702
 ZZZY=         -11039.9898 XXYY=         -12295.7136 XXZZ=          -9901.7758 YYZZ=         -14538.8971
 XXYZ=           -146.7128 YYXZ=         -10279.6377 ZZXY=          -1857.2195
 N-N= 5.178407821545D+03 E-N=-1.479727923889D+04  KE= 1.899767044713D+03
 Unable to Open any file for archive entry.
 1\1\GINC-SKL-140\SP\RB3LYP\6-31G(d)\C23H36N9O7(1+)\KENGMITH\07-Jun-202
 2\0\\# B3LYP/6-31G* empiricaldispersion=gd3 guess=read geom=check nosy
 mm integral(ultrafinegrid)\\Candidate Structure: Conf:472 Charge calc 
 in gas phase\\1,1\N,0,-5.8394406023,-0.8086163742,-10.5023664924\C,0,-
 4.9617131575,-1.867090284,-10.0808836745\C,0,-5.7784405213,-3.13184940
 32,-9.7280083358\O,0,-5.6318776606,-4.1714600204,-10.3510514452\C,0,-4
 .0094706665,-1.5528960426,-8.8372086619\C,0,-3.0176721204,-0.522271125
 7,-9.1895027503\N,0,-3.2294360443,0.7501291145,-8.9553902863\O,0,-1.95
 02259621,-0.9585478714,-9.8229793616\H,0,-5.369200799,-0.0503095702,-1
 0.9850931162\H,0,-1.3265823155,-0.2600267591,-10.0965150049\H,0,-4.332
 1202512,-2.1676955204,-10.9207913054\H,0,-4.615706985,-1.2092361131,-7
 .9992503432\H,0,-3.4848215709,-2.4668312318,-8.5474599982\H,0,-2.56891
 71134,1.4743713795,-9.2196545172\H,0,-4.0920538148,1.032040391,-8.4494
 216968\H,0,-6.4169966252,-0.4387854931,-9.7538345698\N,0,-6.6356310251
 ,-2.9969960279,-8.6801582273\C,0,-7.4325036453,-4.1214680978,-8.176867
 1413\C,0,-8.4073117357,-3.5723747991,-7.1145006439\O,0,-8.4375269904,-
 4.0370330667,-5.9789464331\C,0,-6.5749641778,-5.3010047742,-7.64252749
 73\C,0,-5.3620250344,-4.8994618319,-6.8296156127\C,0,-4.1066674308,-4.
 7990580583,-7.447994482\C,0,-5.4481868068,-4.6356038973,-5.4551929187\
 C,0,-2.9771899071,-4.4103056004,-6.7219664547\C,0,-4.3240085581,-4.235
 8340126,-4.7289185589\C,0,-3.0848948195,-4.1114230662,-5.3618828547\H,
 0,-6.726834039,-2.103150529,-8.2153824973\H,0,-8.0200861227,-4.5153626
 703,-9.0178063292\H,0,-7.240214465,-5.9371380017,-7.052354645\H,0,-6.2
 482302846,-5.8703238539,-8.5149375861\H,0,-4.0173893734,-5.0404141985,
 -8.5042127229\H,0,-6.4028755679,-4.7710535986,-4.9582628553\H,0,-2.008
 906256,-4.3627361558,-7.2154057555\H,0,-4.4128082617,-4.0414065006,-3.
 6633112616\H,0,-2.2072057964,-3.8162810085,-4.7933944077\N,0,-9.193102
 4168,-2.5074206541,-7.4676443536\C,0,-9.5516807245,-2.0521352091,-8.80
 49400016\C,0,-9.0888225849,-0.621422594,-9.1402637565\O,0,-9.419243058
 7,-0.1056021532,-10.19724336\C,0,-11.0678572178,-2.1487410347,-9.04850
 686\C,0,-11.8282705426,-1.2037035252,-8.118544295\N,0,-13.1655086179,-
 1.385312607,-8.0499131839\O,0,-11.2421892636,-0.3241281097,-7.48528702
 72\H,0,-9.7243607561,-2.1148702178,-6.6855831953\H,0,-9.0569888808,-2.
 6881664319,-9.541720444\H,0,-11.400213877,-3.1840863082,-8.9153265199\
 H,0,-11.2706285775,-1.8561857425,-10.084532715\H,0,-13.7093144322,-0.7
 71718318,-7.4581236992\H,0,-13.6452493002,-2.1091876041,-8.5644397937\
 N,0,-8.2340877657,-0.0129412219,-8.2466337491\C,0,-8.0484891272,1.4181
 816202,-8.3767585275\C,0,-6.6127160352,1.7852061511,-8.0406812523\O,0,
 -5.7225401059,0.9662305283,-7.8510004229\C,0,-9.1124334841,2.274762792
 9,-7.6348120309\C,0,-8.9804795656,2.4386749042,-6.1090430276\C,0,-9.20
 29835507,1.1786064713,-5.2664749378\N,0,-8.0431831051,0.2766583026,-5.
 3473022676\C,0,-8.1831253733,-1.0212515892,-4.816579442\N,0,-9.3523047
 568,-1.4957631281,-4.5890645864\N,0,-6.9589206181,-1.6554402421,-4.627
 9529047\O,0,-6.2988625918,3.0851004868,-8.0181639071\H,0,-7.088198389,
 3.6390484289,-8.1558273901\H,0,-8.2313014686,-0.3271675161,-7.27594924
 72\H,0,-8.1668338004,1.6308055806,-9.4499038364\H,0,-9.1298184658,3.27
 5502147,-8.0945106709\H,0,-10.0791102402,1.8232578565,-7.8769550861\H,
 0,-8.0092312624,2.8922605496,-5.8547984769\H,0,-9.7347857252,3.1725645
 81,-5.8020466465\H,0,-9.3984739233,1.4582327914,-4.2225293286\H,0,-10.
 0753467524,0.6278572132,-5.6200597365\H,0,-7.1892517434,0.723649548,-5
 .0225414448\H,0,-9.2969338372,-2.4790709983,-4.3237158139\H,0,-7.01923
 53296,-2.6657670953,-4.5957016466\H,0,-6.1989493152,-1.3526145997,-5.2
 267784198\\Version=ES64L-G16RevC.01\HF=-1917.4330453\RMSD=8.831e-09\Di
 pole=2.8203516,4.0641871,-1.6585654\Quadrupole=36.9288875,-139.4388485
 ,102.509961,-2.5471384,165.5535557,-22.2410663\PG=C01 [X(C23H36N9O7)]\
 \@
 The archive entry for this job was punched.


 HOW IS IT THAT THE SKY FEEDS THE STARS?

                           -- LUCRETIUS
 Job cpu time:       0 days  0 hours  4 minutes  2.1 seconds.
 Elapsed time:       0 days  0 hours  1 minutes  2.3 seconds.
 File lengths (MBytes):  RWF=    344 Int=      0 D2E=      0 Chk=     48 Scr=     16
 Normal termination of Gaussian 16 at Tue Jun  7 01:06:35 2022.
