 Entering Gaussian System, Link 0=/opt/software/Gaussian/g16-AVX2-C.01/g16/g16
 Input=charge-conf-876.com
 Output=charge-conf-876.log
 Initial command:
 /opt/software/Gaussian/g16-AVX2-C.01/g16/l1.exe "/mnt/gs18/scratch/users/kengmith/Gau-26320.inp" -scrdir="/mnt/gs18/scratch/users/kengmith/"
 Entering Link 1 = /opt/software/Gaussian/g16-AVX2-C.01/g16/l1.exe PID=     26330.
  
 Copyright (c) 1988-2019, Gaussian, Inc.  All Rights Reserved.
  
 This is part of the Gaussian(R) 16 program.  It is based on
 the Gaussian(R) 09 system (copyright 2009, Gaussian, Inc.),
 the Gaussian(R) 03 system (copyright 2003, Gaussian, Inc.),
 the Gaussian(R) 98 system (copyright 1998, Gaussian, Inc.),
 the Gaussian(R) 94 system (copyright 1995, Gaussian, Inc.),
 the Gaussian 92(TM) system (copyright 1992, Gaussian, Inc.),
 the Gaussian 90(TM) system (copyright 1990, Gaussian, Inc.),
 the Gaussian 88(TM) system (copyright 1988, Gaussian, Inc.),
 the Gaussian 86(TM) system (copyright 1986, Carnegie Mellon
 University), and the Gaussian 82(TM) system (copyright 1983,
 Carnegie Mellon University). Gaussian is a federally registered
 trademark of Gaussian, Inc.
  
 This software contains proprietary and confidential information,
 including trade secrets, belonging to Gaussian, Inc.
  
 This software is provided under written license and may be
 used, copied, transmitted, or stored only in accord with that
 written license.
  
 The following legend is applicable only to US Government
 contracts under FAR:
  
                    RESTRICTED RIGHTS LEGEND
  
 Use, reproduction and disclosure by the US Government is
 subject to restrictions as set forth in subparagraphs (a)
 and (c) of the Commercial Computer Software - Restricted
 Rights clause in FAR 52.227-19.
  
 Gaussian, Inc.
 340 Quinnipiac St., Bldg. 40, Wallingford CT 06492
  
  
 ---------------------------------------------------------------
 Warning -- This program may not be used in any manner that
 competes with the business of Gaussian, Inc. or will provide
 assistance to any competitor of Gaussian, Inc.  The licensee
 of this program is prohibited from giving any competitor of
 Gaussian, Inc. access to this program.  By using this program,
 the user acknowledges that Gaussian, Inc. is engaged in the
 business of creating and licensing software in the field of
 computational chemistry and represents and warrants to the
 licensee that it is not a competitor of Gaussian, Inc. and that
 it will not use this program in any manner prohibited above.
 ---------------------------------------------------------------
  

 Cite this work as:
 Gaussian 16, Revision C.01,
 M. J. Frisch, G. W. Trucks, H. B. Schlegel, G. E. Scuseria, 
 M. A. Robb, J. R. Cheeseman, G. Scalmani, V. Barone, 
 G. A. Petersson, H. Nakatsuji, X. Li, M. Caricato, A. V. Marenich, 
 J. Bloino, B. G. Janesko, R. Gomperts, B. Mennucci, H. P. Hratchian, 
 J. V. Ortiz, A. F. Izmaylov, J. L. Sonnenberg, D. Williams-Young, 
 F. Ding, F. Lipparini, F. Egidi, J. Goings, B. Peng, A. Petrone, 
 T. Henderson, D. Ranasinghe, V. G. Zakrzewski, J. Gao, N. Rega, 
 G. Zheng, W. Liang, M. Hada, M. Ehara, K. Toyota, R. Fukuda, 
 J. Hasegawa, M. Ishida, T. Nakajima, Y. Honda, O. Kitao, H. Nakai, 
 T. Vreven, K. Throssell, J. A. Montgomery, Jr., J. E. Peralta, 
 F. Ogliaro, M. J. Bearpark, J. J. Heyd, E. N. Brothers, K. N. Kudin, 
 V. N. Staroverov, T. A. Keith, R. Kobayashi, J. Normand, 
 K. Raghavachari, A. P. Rendell, J. C. Burant, S. S. Iyengar, 
 J. Tomasi, M. Cossi, J. M. Millam, M. Klene, C. Adamo, R. Cammi, 
 J. W. Ochterski, R. L. Martin, K. Morokuma, O. Farkas, 
 J. B. Foresman, and D. J. Fox, Gaussian, Inc., Wallingford CT, 2019.
 
 ******************************************
 Gaussian 16:  ES64L-G16RevC.01  3-Jul-2019
                24-May-2022 
 ******************************************
 %mem=8gb
 %nproc=4
 Will use up to    4 processors via shared memory.
 %chk=conf-876.chk
 ----------------------------------------------------------------------
 # B3LYP/6-31G* empiricaldispersion=gd3 guess=read geom=check nosymm in
 tegral(ultrafinegrid)
 ----------------------------------------------------------------------
 1/29=2,38=1,172=1/1;
 2/12=2,15=1,40=1/2;
 3/5=1,6=6,7=1,11=2,14=-4,25=1,30=1,74=-5,75=-5,116=-2,124=31/1,2,3;
 4/5=1/1;
 5/5=2,38=6/2;
 6/7=2,8=2,9=2,10=2,28=1/1;
 99/5=1,9=1/99;
 ------------------------------------------------------
 Candidate Structure: Conf:876 Charge calc in gas phase
 ------------------------------------------------------
 Structure from the checkpoint file:  "conf-876.chk"
 Charge =  1 Multiplicity = 1
 Redundant internal coordinates found in file.  (old form).
 N,0,9.8467453277,16.2194688877,16.2036404393
 C,0,9.4111869156,17.0992662914,15.056427402
 C,0,9.2520672095,18.477807936,15.734702728
 O,0,8.4028328859,18.5646938102,16.6172309929
 C,0,8.1037794896,16.6168702224,14.4285550668
 C,0,7.621564357,17.5379702397,13.2971089579
 C,0,8.5719214911,17.650316638,12.1125909902
 O,0,9.6872465428,17.1594433229,12.0759727041
 O,0,8.1453904891,18.3563341331,11.06024555
 H,0,7.2414222233,18.6957999591,11.1849390251
 H,0,9.2159421091,16.3780197109,17.001625242
 H,0,10.2081892435,17.054523491,14.3220649903
 H,0,7.3255849958,16.5893360045,15.1978486722
 H,0,8.2430456997,15.6018760152,14.0377616408
 H,0,6.6534280191,17.1756959721,12.9287696782
 H,0,7.4383111414,18.5509859324,13.6813894971
 H,0,9.8737012119,15.2237179024,15.966984003
 H,0,10.8197549949,16.573152129,16.4420844175
 N,0,10.0447404152,19.4884049011,15.3213580375
 C,0,11.2647302689,19.3743914178,14.5152825974
 C,0,12.14743693,18.1898214681,14.9957026329
 O,0,12.0281404546,17.7042168567,16.1439011275
 C,0,12.0194307844,20.721304286,14.5839774979
 C,0,13.1802700094,20.9145717059,13.5858400443
 C,0,12.7239150402,20.8053265619,12.1220669677
 C,0,13.8348078745,22.2807476308,13.8428785703
 H,0,9.9405444672,20.3289710571,15.8817403181
 H,0,10.9780694534,19.1799360233,13.4764413572
 H,0,12.3872209476,20.8520141106,15.6103309238
 H,0,11.280354175,21.5151738905,14.4029293222
 H,0,13.9402567726,20.1444431051,13.7648199555
 H,0,11.9336410167,21.5358454449,11.9047974286
 H,0,13.5643933878,21.0046127244,11.4505882296
 H,0,12.3499067302,19.8082517383,11.860251869
 H,0,13.1259819374,23.0982077785,13.6592489319
 H,0,14.1904348053,22.3677656312,14.8758173755
 H,0,14.692887,22.4273163149,13.1791806936
 N,0,12.9658644848,17.7373369546,14.0594704478
 C,0,14.0322628355,16.7377699779,14.145607867
 C,0,14.6265966364,16.707158055,12.6919219385
 O,0,15.2557276252,15.6643299407,12.3763231679
 C,0,13.6077172862,15.3578375877,14.6645120643
 C,0,12.4091195819,14.6603226042,13.996324048
 C,0,12.508127437,14.3344770925,12.4947469029
 N,0,12.1199968423,15.4907474915,11.6804347071
 C,0,12.6639915122,15.9230805061,10.538116924
 N,0,13.8327730745,15.4436430676,10.0955803279
 N,0,11.9558248256,16.8132492751,9.7997074379
 O,0,14.343899643,17.6945155594,11.96519102
 H,0,13.0697788919,18.2143484253,13.1519136186
 H,0,14.8131350766,17.1153100553,14.8189187737
 H,0,13.3926383863,15.4418345277,15.7355306427
 H,0,14.4887037708,14.7191212972,14.554397114
 H,0,12.2556685042,13.7086573476,14.5211567566
 H,0,11.4897830507,15.2474069992,14.1572472287
 H,0,11.8333815802,13.5031110406,12.2524619539
 H,0,13.5245332112,14.037268011,12.2445456673
 H,0,11.2801855298,15.9757646385,11.9726742988
 H,0,14.575713707,15.3623421995,10.8339735033
 H,0,14.1669751052,15.8448773633,9.2281077704
 H,0,12.4867377013,17.4935778904,9.271818119
 H,0,11.0782409427,17.1521482569,10.1789796822
 Recover connectivity data from disk.
                           ----------------------------
                           !    Current Parameters    !
                           ! (Angstroms and Degrees)  !
 --------------------------                            --------------------------
 ! Name  Definition              Value                                          !
 --------------------------------------------------------------------------------
 ! R1    R(1,2)                  1.5099                                         !
 ! R2    R(1,11)                 1.0295                                         !
 ! R3    R(1,17)                 1.0238                                         !
 ! R4    R(1,18)                 1.0624                                         !
 ! R5    R(2,3)                  1.5446                                         !
 ! R6    R(2,5)                  1.5285                                         !
 ! R7    R(2,12)                 1.0847                                         !
 ! R8    R(3,4)                  1.2278                                         !
 ! R9    R(3,19)                 1.3493                                         !
 ! R10   R(5,6)                  1.5366                                         !
 ! R11   R(5,13)                 1.0946                                         !
 ! R12   R(5,14)                 1.0965                                         !
 ! R13   R(6,7)                  1.5228                                         !
 ! R14   R(6,15)                 1.0974                                         !
 ! R15   R(6,16)                 1.0988                                         !
 ! R16   R(7,8)                  1.2191                                         !
 ! R17   R(7,9)                  1.3371                                         !
 ! R18   R(9,10)                 0.9736                                         !
 ! R19   R(19,20)                1.4667                                         !
 ! R20   R(19,27)                1.0156                                         !
 ! R21   R(20,21)                1.5534                                         !
 ! R22   R(20,23)                1.5455                                         !
 ! R23   R(20,28)                1.0951                                         !
 ! R24   R(21,22)                1.2524                                         !
 ! R25   R(21,38)                1.3233                                         !
 ! R26   R(23,24)                1.5431                                         !
 ! R27   R(23,29)                1.0981                                         !
 ! R28   R(23,30)                1.0997                                         !
 ! R29   R(24,25)                1.5371                                         !
 ! R30   R(24,26)                1.5365                                         !
 ! R31   R(24,31)                1.0967                                         !
 ! R32   R(25,32)                1.0979                                         !
 ! R33   R(25,33)                1.0941                                         !
 ! R34   R(25,34)                1.0966                                         !
 ! R35   R(26,35)                1.0974                                         !
 ! R36   R(26,36)                1.0959                                         !
 ! R37   R(26,37)                1.0947                                         !
 ! R38   R(38,39)                1.4642                                         !
 ! R39   R(38,50)                1.0305                                         !
 ! R40   R(39,40)                1.5708                                         !
 ! R41   R(39,42)                1.5342                                         !
 ! R42   R(39,51)                1.098                                          !
 ! R43   R(40,41)                1.2581                                         !
 ! R44   R(40,49)                1.2581                                         !
 ! R45   R(42,43)                1.5394                                         !
 ! R46   R(42,52)                1.0956                                         !
 ! R47   R(42,53)                1.0937                                         !
 ! R48   R(43,44)                1.5397                                         !
 ! R49   R(43,54)                1.0976                                         !
 ! R50   R(43,55)                1.1026                                         !
 ! R51   R(44,45)                1.4665                                         !
 ! R52   R(44,56)                1.0978                                         !
 ! R53   R(44,57)                1.0881                                         !
 ! R54   R(45,46)                1.3371                                         !
 ! R55   R(45,58)                1.0129                                         !
 ! R56   R(46,47)                1.3386                                         !
 ! R57   R(46,48)                1.3562                                         !
 ! R58   R(47,59)                1.0506                                         !
 ! R59   R(47,60)                1.0125                                         !
 ! R60   R(48,61)                1.0116                                         !
 ! R61   R(48,62)                1.0143                                         !
 ! A1    A(2,1,11)             108.8107                                         !
 ! A2    A(2,1,17)             113.4948                                         !
 ! A3    A(2,1,18)             103.9302                                         !
 ! A4    A(11,1,17)            110.187                                          !
 ! A5    A(11,1,18)            109.6298                                         !
 ! A6    A(17,1,18)            110.5816                                         !
 ! A7    A(1,2,3)              102.4808                                         !
 ! A8    A(1,2,5)              112.0214                                         !
 ! A9    A(1,2,12)             106.1652                                         !
 ! A10   A(3,2,5)              111.9592                                         !
 ! A11   A(3,2,12)             114.1936                                         !
 ! A12   A(5,2,12)             109.7173                                         !
 ! A13   A(2,3,4)              116.7461                                         !
 ! A14   A(2,3,19)             118.2575                                         !
 ! A15   A(4,3,19)             124.9965                                         !
 ! A16   A(2,5,6)              112.4401                                         !
 ! A17   A(2,5,13)             109.108                                          !
 ! A18   A(2,5,14)             109.2631                                         !
 ! A19   A(6,5,13)             108.0273                                         !
 ! A20   A(6,5,14)             109.4091                                         !
 ! A21   A(13,5,14)            108.5112                                         !
 ! A22   A(5,6,7)              114.9064                                         !
 ! A23   A(5,6,15)             109.0338                                         !
 ! A24   A(5,6,16)             110.3315                                         !
 ! A25   A(7,6,15)             108.2918                                         !
 ! A26   A(7,6,16)             107.9444                                         !
 ! A27   A(15,6,16)            105.9382                                         !
 ! A28   A(6,7,8)              124.3756                                         !
 ! A29   A(6,7,9)              116.8772                                         !
 ! A30   A(8,7,9)              118.7381                                         !
 ! A31   A(7,9,10)             112.3015                                         !
 ! A32   A(3,19,20)            126.7855                                         !
 ! A33   A(3,19,27)            112.9923                                         !
 ! A34   A(20,19,27)           116.9319                                         !
 ! A35   A(19,20,21)           111.2208                                         !
 ! A36   A(19,20,23)           108.3017                                         !
 ! A37   A(19,20,28)           108.5077                                         !
 ! A38   A(21,20,23)           111.9223                                         !
 ! A39   A(21,20,28)           107.8617                                         !
 ! A40   A(23,20,28)           108.951                                          !
 ! A41   A(20,21,22)           121.6743                                         !
 ! A42   A(20,21,38)           113.1648                                         !
 ! A43   A(22,21,38)           125.0987                                         !
 ! A44   A(20,23,24)           116.6002                                         !
 ! A45   A(20,23,29)           107.9901                                         !
 ! A46   A(20,23,30)           107.0767                                         !
 ! A47   A(24,23,29)           109.7376                                         !
 ! A48   A(24,23,30)           107.9802                                         !
 ! A49   A(29,23,30)           107.0417                                         !
 ! A50   A(23,24,25)           112.5643                                         !
 ! A51   A(23,24,26)           108.8814                                         !
 ! A52   A(23,24,31)           109.1353                                         !
 ! A53   A(25,24,26)           110.4236                                         !
 ! A54   A(25,24,31)           108.134                                          !
 ! A55   A(26,24,31)           107.5703                                         !
 ! A56   A(24,25,32)           110.7847                                         !
 ! A57   A(24,25,33)           110.0859                                         !
 ! A58   A(24,25,34)           113.1551                                         !
 ! A59   A(32,25,33)           108.0775                                         !
 ! A60   A(32,25,34)           108.194                                          !
 ! A61   A(33,25,34)           106.3251                                         !
 ! A62   A(24,26,35)           111.0487                                         !
 ! A63   A(24,26,36)           111.5004                                         !
 ! A64   A(24,26,37)           110.5818                                         !
 ! A65   A(35,26,36)           107.9483                                         !
 ! A66   A(35,26,37)           107.7649                                         !
 ! A67   A(36,26,37)           107.8464                                         !
 ! A68   A(21,38,39)           129.9618                                         !
 ! A69   A(21,38,50)           121.814                                          !
 ! A70   A(39,38,50)           107.1198                                         !
 ! A71   A(38,39,40)           103.5585                                         !
 ! A72   A(38,39,42)           115.6201                                         !
 ! A73   A(38,39,51)           108.621                                          !
 ! A74   A(40,39,42)           113.59                                           !
 ! A75   A(40,39,51)           107.7648                                         !
 ! A76   A(42,39,51)           107.3772                                         !
 ! A77   A(39,40,41)           115.9446                                         !
 ! A78   A(39,40,49)           115.7375                                         !
 ! A79   A(41,40,49)           128.1657                                         !
 ! A80   A(39,42,43)           118.4384                                         !
 ! A81   A(39,42,52)           108.421                                          !
 ! A82   A(39,42,53)           105.5642                                         !
 ! A83   A(43,42,52)           107.8308                                         !
 ! A84   A(43,42,53)           108.5945                                         !
 ! A85   A(52,42,53)           107.5366                                         !
 ! A86   A(42,43,44)           117.9786                                         !
 ! A87   A(42,43,54)           107.1085                                         !
 ! A88   A(42,43,55)           110.1571                                         !
 ! A89   A(44,43,54)           106.9675                                         !
 ! A90   A(44,43,55)           107.9766                                         !
 ! A91   A(54,43,55)           105.9804                                         !
 ! A92   A(43,44,45)           110.9552                                         !
 ! A93   A(43,44,56)           109.6321                                         !
 ! A94   A(43,44,57)           110.0056                                         !
 ! A95   A(45,44,56)           108.1721                                         !
 ! A96   A(45,44,57)           109.566                                          !
 ! A97   A(56,44,57)           108.4532                                         !
 ! A98   A(44,45,46)           128.4367                                         !
 ! A99   A(44,45,58)           115.8982                                         !
 ! A100  A(46,45,58)           115.4044                                         !
 ! A101  A(45,46,47)           121.4593                                         !
 ! A102  A(45,46,48)           117.7082                                         !
 ! A103  A(47,46,48)           120.7335                                         !
 ! A104  A(46,47,59)           114.3818                                         !
 ! A105  A(46,47,60)           115.4369                                         !
 ! A106  A(59,47,60)           113.5404                                         !
 ! A107  A(46,48,61)           116.8405                                         !
 ! A108  A(46,48,62)           117.8727                                         !
 ! A109  A(61,48,62)           115.1182                                         !
 ! D1    D(11,1,2,3)            48.6457                                         !
 ! D2    D(11,1,2,5)           -71.5307                                         !
 ! D3    D(11,1,2,12)          168.7236                                         !
 ! D4    D(17,1,2,3)           171.7105                                         !
 ! D5    D(17,1,2,5)            51.5342                                         !
 ! D6    D(17,1,2,12)          -68.2115                                         !
 ! D7    D(18,1,2,3)           -68.107                                          !
 ! D8    D(18,1,2,5)           171.7167                                         !
 ! D9    D(18,1,2,12)           51.971                                          !
 ! D10   D(1,2,3,4)            -62.499                                          !
 ! D11   D(1,2,3,19)           117.5221                                         !
 ! D12   D(5,2,3,4)             57.7205                                         !
 ! D13   D(5,2,3,19)          -122.2585                                         !
 ! D14   D(12,2,3,4)          -176.8326                                         !
 ! D15   D(12,2,3,19)            3.1885                                         !
 ! D16   D(1,2,5,6)            177.667                                          !
 ! D17   D(1,2,5,13)            57.8374                                         !
 ! D18   D(1,2,5,14)           -60.6523                                         !
 ! D19   D(3,2,5,6)             63.1833                                         !
 ! D20   D(3,2,5,13)           -56.6463                                         !
 ! D21   D(3,2,5,14)          -175.1359                                         !
 ! D22   D(12,2,5,6)           -64.689                                          !
 ! D23   D(12,2,5,13)          175.4815                                         !
 ! D24   D(12,2,5,14)           56.9918                                         !
 ! D25   D(2,3,19,20)          -15.4598                                         !
 ! D26   D(2,3,19,27)         -174.1468                                         !
 ! D27   D(4,3,19,20)          164.5631                                         !
 ! D28   D(4,3,19,27)            5.8762                                         !
 ! D29   D(2,5,6,7)             61.6304                                         !
 ! D30   D(2,5,6,15)          -176.6179                                         !
 ! D31   D(2,5,6,16)           -60.6662                                         !
 ! D32   D(13,5,6,7)          -177.9148                                         !
 ! D33   D(13,5,6,15)          -56.1632                                         !
 ! D34   D(13,5,6,16)           59.7885                                         !
 ! D35   D(14,5,6,7)           -59.9672                                         !
 ! D36   D(14,5,6,15)           61.7844                                         !
 ! D37   D(14,5,6,16)          177.7361                                         !
 ! D38   D(5,6,7,8)             -6.2604                                         !
 ! D39   D(5,6,7,9)            174.8564                                         !
 ! D40   D(15,6,7,8)          -128.4139                                         !
 ! D41   D(15,6,7,9)            52.703                                          !
 ! D42   D(16,6,7,8)           117.3151                                         !
 ! D43   D(16,6,7,9)           -61.5681                                         !
 ! D44   D(6,7,9,10)            -1.6972                                         !
 ! D45   D(8,7,9,10)           179.354                                          !
 ! D46   D(3,19,20,21)         -42.6834                                         !
 ! D47   D(3,19,20,23)        -166.0691                                         !
 ! D48   D(3,19,20,28)          75.8034                                         !
 ! D49   D(27,19,20,21)        115.2743                                         !
 ! D50   D(27,19,20,23)         -8.1114                                         !
 ! D51   D(27,19,20,28)       -126.2389                                         !
 ! D52   D(19,20,21,22)        -20.5118                                         !
 ! D53   D(19,20,21,38)        156.7586                                         !
 ! D54   D(23,20,21,22)        100.7793                                         !
 ! D55   D(23,20,21,38)        -81.9503                                         !
 ! D56   D(28,20,21,22)       -139.3865                                         !
 ! D57   D(28,20,21,38)         37.8839                                         !
 ! D58   D(19,20,23,24)       -168.1733                                         !
 ! D59   D(19,20,23,29)         67.7903                                         !
 ! D60   D(19,20,23,30)        -47.1768                                         !
 ! D61   D(21,20,23,24)         68.8652                                         !
 ! D62   D(21,20,23,29)        -55.1712                                         !
 ! D63   D(21,20,23,30)       -170.1383                                         !
 ! D64   D(28,20,23,24)        -50.3286                                         !
 ! D65   D(28,20,23,29)       -174.365                                          !
 ! D66   D(28,20,23,30)         70.6679                                         !
 ! D67   D(20,21,38,39)        173.38                                           !
 ! D68   D(20,21,38,50)          7.0185                                         !
 ! D69   D(22,21,38,39)         -9.4594                                         !
 ! D70   D(22,21,38,50)       -175.8209                                         !
 ! D71   D(20,23,24,25)         59.3401                                         !
 ! D72   D(20,23,24,26)       -177.8746                                         !
 ! D73   D(20,23,24,31)        -60.7214                                         !
 ! D74   D(29,23,24,25)       -177.5227                                         !
 ! D75   D(29,23,24,26)        -54.7374                                         !
 ! D76   D(29,23,24,31)         62.4158                                         !
 ! D77   D(30,23,24,25)        -61.1768                                         !
 ! D78   D(30,23,24,26)         61.6085                                         !
 ! D79   D(30,23,24,31)        178.7617                                         !
 ! D80   D(23,24,25,32)         57.3082                                         !
 ! D81   D(23,24,25,33)        176.7929                                         !
 ! D82   D(23,24,25,34)        -64.3976                                         !
 ! D83   D(26,24,25,32)        -64.6076                                         !
 ! D84   D(26,24,25,33)         54.8771                                         !
 ! D85   D(26,24,25,34)        173.6866                                         !
 ! D86   D(31,24,25,32)        177.9464                                         !
 ! D87   D(31,24,25,33)        -62.5689                                         !
 ! D88   D(31,24,25,34)         56.2406                                         !
 ! D89   D(23,24,26,35)        -63.0227                                         !
 ! D90   D(23,24,26,36)         57.407                                          !
 ! D91   D(23,24,26,37)        177.3915                                         !
 ! D92   D(25,24,26,35)         61.04                                           !
 ! D93   D(25,24,26,36)       -178.5303                                         !
 ! D94   D(25,24,26,37)        -58.5458                                         !
 ! D95   D(31,24,26,35)        178.833                                          !
 ! D96   D(31,24,26,36)        -60.7373                                         !
 ! D97   D(31,24,26,37)         59.2472                                         !
 ! D98   D(21,38,39,40)       -178.5126                                         !
 ! D99   D(21,38,39,42)         56.5839                                         !
 ! D100  D(21,38,39,51)        -64.1536                                         !
 ! D101  D(50,38,39,40)        -10.6151                                         !
 ! D102  D(50,38,39,42)       -135.5186                                         !
 ! D103  D(50,38,39,51)        103.7439                                         !
 ! D104  D(38,39,40,41)       -158.3949                                         !
 ! D105  D(38,39,40,49)         17.4923                                         !
 ! D106  D(42,39,40,41)        -32.1905                                         !
 ! D107  D(42,39,40,49)        143.6966                                         !
 ! D108  D(51,39,40,41)         86.6334                                         !
 ! D109  D(51,39,40,49)        -97.4795                                         !
 ! D110  D(38,39,42,43)         51.9013                                         !
 ! D111  D(38,39,42,52)        -71.2882                                         !
 ! D112  D(38,39,42,53)        173.7227                                         !
 ! D113  D(40,39,42,43)        -67.6445                                         !
 ! D114  D(40,39,42,52)        169.166                                          !
 ! D115  D(40,39,42,53)         54.1769                                         !
 ! D116  D(51,39,42,43)        173.3095                                         !
 ! D117  D(51,39,42,52)         50.12                                           !
 ! D118  D(51,39,42,53)        -64.8691                                         !
 ! D119  D(39,42,43,44)         60.6429                                         !
 ! D120  D(39,42,43,54)       -178.7422                                         !
 ! D121  D(39,42,43,55)        -63.9178                                         !
 ! D122  D(52,42,43,44)       -175.8738                                         !
 ! D123  D(52,42,43,54)        -55.2589                                         !
 ! D124  D(52,42,43,55)         59.5655                                         !
 ! D125  D(53,42,43,44)        -59.6316                                         !
 ! D126  D(53,42,43,54)         60.9832                                         !
 ! D127  D(53,42,43,55)        175.8076                                         !
 ! D128  D(42,43,44,45)        -84.5768                                         !
 ! D129  D(42,43,44,56)        156.0049                                         !
 ! D130  D(42,43,44,57)         36.8273                                         !
 ! D131  D(54,43,44,45)        154.7354                                         !
 ! D132  D(54,43,44,56)         35.3171                                         !
 ! D133  D(54,43,44,57)        -83.8605                                         !
 ! D134  D(55,43,44,45)         41.0565                                         !
 ! D135  D(55,43,44,56)        -78.3618                                         !
 ! D136  D(55,43,44,57)        162.4606                                         !
 ! D137  D(43,44,45,46)        141.0155                                         !
 ! D138  D(43,44,45,58)        -45.1719                                         !
 ! D139  D(56,44,45,46)        -98.6952                                         !
 ! D140  D(56,44,45,58)         75.1175                                         !
 ! D141  D(57,44,45,46)         19.3537                                         !
 ! D142  D(57,44,45,58)       -166.8337                                         !
 ! D143  D(44,45,46,47)        -11.6695                                         !
 ! D144  D(44,45,46,48)        164.738                                          !
 ! D145  D(58,45,46,47)        174.4922                                         !
 ! D146  D(58,45,46,48)         -9.1003                                         !
 ! D147  D(45,46,47,59)        -44.5987                                         !
 ! D148  D(45,46,47,60)       -179.1178                                         !
 ! D149  D(48,46,47,59)        139.1016                                         !
 ! D150  D(48,46,47,60)          4.5825                                         !
 ! D151  D(45,46,48,61)        147.5845                                         !
 ! D152  D(45,46,48,62)          3.8979                                         !
 ! D153  D(47,46,48,61)        -35.9805                                         !
 ! D154  D(47,46,48,62)       -179.6672                                         !
 --------------------------------------------------------------------------------
 Symmetry turned off by external request.
 Stoichiometry    C17H33N6O6(1+)
 Framework group  C1[X(C17H33N6O6)]
 Deg. of freedom   180
 Full point group                 C1      NOp   1
                          Input orientation:                          
 ---------------------------------------------------------------------
 Center     Atomic      Atomic             Coordinates (Angstroms)
 Number     Number       Type             X           Y           Z
 ---------------------------------------------------------------------
      1          7           0        9.846745   16.219469   16.203640
      2          6           0        9.411187   17.099266   15.056427
      3          6           0        9.252067   18.477808   15.734703
      4          8           0        8.402833   18.564694   16.617231
      5          6           0        8.103779   16.616870   14.428555
      6          6           0        7.621564   17.537970   13.297109
      7          6           0        8.571921   17.650317   12.112591
      8          8           0        9.687247   17.159443   12.075973
      9          8           0        8.145390   18.356334   11.060246
     10          1           0        7.241422   18.695800   11.184939
     11          1           0        9.215942   16.378020   17.001625
     12          1           0       10.208189   17.054523   14.322065
     13          1           0        7.325585   16.589336   15.197849
     14          1           0        8.243046   15.601876   14.037762
     15          1           0        6.653428   17.175696   12.928770
     16          1           0        7.438311   18.550986   13.681389
     17          1           0        9.873701   15.223718   15.966984
     18          1           0       10.819755   16.573152   16.442084
     19          7           0       10.044740   19.488405   15.321358
     20          6           0       11.264730   19.374391   14.515283
     21          6           0       12.147437   18.189821   14.995703
     22          8           0       12.028140   17.704217   16.143901
     23          6           0       12.019431   20.721304   14.583977
     24          6           0       13.180270   20.914572   13.585840
     25          6           0       12.723915   20.805327   12.122067
     26          6           0       13.834808   22.280748   13.842879
     27          1           0        9.940544   20.328971   15.881740
     28          1           0       10.978069   19.179936   13.476441
     29          1           0       12.387221   20.852014   15.610331
     30          1           0       11.280354   21.515174   14.402929
     31          1           0       13.940257   20.144443   13.764820
     32          1           0       11.933641   21.535845   11.904797
     33          1           0       13.564393   21.004613   11.450588
     34          1           0       12.349907   19.808252   11.860252
     35          1           0       13.125982   23.098208   13.659249
     36          1           0       14.190435   22.367766   14.875817
     37          1           0       14.692887   22.427316   13.179181
     38          7           0       12.965864   17.737337   14.059470
     39          6           0       14.032263   16.737770   14.145608
     40          6           0       14.626597   16.707158   12.691922
     41          8           0       15.255728   15.664330   12.376323
     42          6           0       13.607717   15.357838   14.664512
     43          6           0       12.409120   14.660323   13.996324
     44          6           0       12.508127   14.334477   12.494747
     45          7           0       12.119997   15.490747   11.680435
     46          6           0       12.663992   15.923081   10.538117
     47          7           0       13.832773   15.443643   10.095580
     48          7           0       11.955825   16.813249    9.799707
     49          8           0       14.343900   17.694516   11.965191
     50          1           0       13.069779   18.214348   13.151914
     51          1           0       14.813135   17.115310   14.818919
     52          1           0       13.392638   15.441835   15.735531
     53          1           0       14.488704   14.719121   14.554397
     54          1           0       12.255669   13.708657   14.521157
     55          1           0       11.489783   15.247407   14.157247
     56          1           0       11.833382   13.503111   12.252462
     57          1           0       13.524533   14.037268   12.244546
     58          1           0       11.280186   15.975765   11.972674
     59          1           0       14.575714   15.362342   10.833974
     60          1           0       14.166975   15.844877    9.228108
     61          1           0       12.486738   17.493578    9.271818
     62          1           0       11.078241   17.152148   10.178980
 ---------------------------------------------------------------------
 Rotational constants (GHZ):           0.1885515           0.1428224           0.1254700
 Standard basis: 6-31G(d) (6D, 7F)
   501 basis functions,   944 primitive gaussians,   501 cartesian basis functions
   112 alpha electrons      112 beta electrons
       nuclear repulsion energy      3347.6101797409 Hartrees.
 NAtoms=   62 NActive=   62 NUniq=   62 SFac= 1.00D+00 NAtFMM=   60 NAOKFM=T Big=T
 Integral buffers will be    131072 words long.
 Raffenetti 2 integral format.
 Two-electron integral symmetry is turned off.
 Nuclear repulsion after empirical dispersion term =     3347.5170148299 Hartrees.
 One-electron integrals computed using PRISM.
 NBasis=   501 RedAO= T EigKep=  1.57D-03  NBF=   501
 NBsUse=   501 1.00D-06 EigRej= -1.00D+00 NBFU=   501
 Initial guess from the checkpoint file:  "conf-876.chk"
 B after Tr=     0.000000    0.000000    0.000000
         Rot=    1.000000    0.000000    0.000000    0.000000 Ang=   0.00 deg.
 Requested convergence on RMS density matrix=1.00D-08 within 128 cycles.
 Requested convergence on MAX density matrix=1.00D-06.
 Requested convergence on             energy=1.00D-06.
 No special actions if energy rises.
 SCF Done:  E(RB3LYP) =  -1447.49109427     A.U. after    2 cycles
            NFock=  2  Conv=0.83D-08     -V/T= 2.0093

 **********************************************************************

            Population analysis using the SCF Density.

 **********************************************************************

 Alpha  occ. eigenvalues --  -19.34884 -19.29970 -19.25553 -19.24219 -19.17391
 Alpha  occ. eigenvalues --  -19.17235 -14.59256 -14.49659 -14.48303 -14.47871
 Alpha  occ. eigenvalues --  -14.46559 -14.45173 -10.48252 -10.43760 -10.43109
 Alpha  occ. eigenvalues --  -10.40885 -10.40053 -10.36268 -10.36032 -10.35613
 Alpha  occ. eigenvalues --  -10.35359 -10.33197 -10.31389 -10.30644 -10.30102
 Alpha  occ. eigenvalues --  -10.28535 -10.28070 -10.26438 -10.25575  -1.25939
 Alpha  occ. eigenvalues --   -1.18306  -1.17539  -1.15441  -1.13500  -1.12631
 Alpha  occ. eigenvalues --   -1.10789  -1.06073  -1.03895  -1.02300  -1.01615
 Alpha  occ. eigenvalues --   -0.99814  -0.96370  -0.91786  -0.89892  -0.88492
 Alpha  occ. eigenvalues --   -0.86277  -0.83666  -0.80875  -0.78779  -0.77215
 Alpha  occ. eigenvalues --   -0.77112  -0.75506  -0.74414  -0.73919  -0.72566
 Alpha  occ. eigenvalues --   -0.71778  -0.71287  -0.69094  -0.67275  -0.66721
 Alpha  occ. eigenvalues --   -0.66337  -0.65795  -0.64971  -0.64136  -0.63309
 Alpha  occ. eigenvalues --   -0.62215  -0.61656  -0.60964  -0.60510  -0.59890
 Alpha  occ. eigenvalues --   -0.59437  -0.58275  -0.57582  -0.56756  -0.56595
 Alpha  occ. eigenvalues --   -0.55502  -0.55171  -0.55120  -0.54282  -0.54056
 Alpha  occ. eigenvalues --   -0.52805  -0.52635  -0.52294  -0.52146  -0.51627
 Alpha  occ. eigenvalues --   -0.50860  -0.50817  -0.50082  -0.49543  -0.49121
 Alpha  occ. eigenvalues --   -0.48037  -0.47547  -0.47274  -0.46987  -0.46802
 Alpha  occ. eigenvalues --   -0.45709  -0.44998  -0.44511  -0.43714  -0.43526
 Alpha  occ. eigenvalues --   -0.42680  -0.42145  -0.41884  -0.39727  -0.39305
 Alpha  occ. eigenvalues --   -0.39041  -0.37745  -0.37196  -0.36835  -0.33091
 Alpha  occ. eigenvalues --   -0.32010  -0.31510
 Alpha virt. eigenvalues --   -0.14949  -0.13390  -0.11228  -0.09623  -0.09030
 Alpha virt. eigenvalues --   -0.08095  -0.04705  -0.04111  -0.03537  -0.03100
 Alpha virt. eigenvalues --   -0.02211  -0.01876  -0.01022  -0.00427   0.00291
 Alpha virt. eigenvalues --    0.00371   0.01426   0.01757   0.02353   0.02679
 Alpha virt. eigenvalues --    0.02955   0.03550   0.03889   0.04077   0.04962
 Alpha virt. eigenvalues --    0.05045   0.05433   0.06124   0.06305   0.06898
 Alpha virt. eigenvalues --    0.07031   0.07455   0.07657   0.08013   0.08576
 Alpha virt. eigenvalues --    0.09132   0.09419   0.10232   0.10337   0.10757
 Alpha virt. eigenvalues --    0.11064   0.11660   0.12152   0.12605   0.13660
 Alpha virt. eigenvalues --    0.13848   0.14212   0.15047   0.15439   0.16013
 Alpha virt. eigenvalues --    0.16889   0.17170   0.17654   0.18181   0.18562
 Alpha virt. eigenvalues --    0.19055   0.22246   0.23323   0.24682   0.25218
 Alpha virt. eigenvalues --    0.27230   0.27928   0.29384   0.30337   0.32361
 Alpha virt. eigenvalues --    0.35225   0.35864   0.36263   0.38556   0.38986
 Alpha virt. eigenvalues --    0.40016   0.40877   0.41552   0.41987   0.42282
 Alpha virt. eigenvalues --    0.42881   0.43009   0.43140   0.44037   0.44882
 Alpha virt. eigenvalues --    0.45487   0.46054   0.46093   0.46637   0.47712
 Alpha virt. eigenvalues --    0.48062   0.48735   0.49069   0.49531   0.49814
 Alpha virt. eigenvalues --    0.51199   0.52008   0.52868   0.53268   0.53651
 Alpha virt. eigenvalues --    0.53902   0.55135   0.55259   0.55689   0.56344
 Alpha virt. eigenvalues --    0.56625   0.57160   0.58237   0.58589   0.59712
 Alpha virt. eigenvalues --    0.60811   0.61190   0.62176   0.62371   0.62920
 Alpha virt. eigenvalues --    0.63635   0.63962   0.64769   0.64841   0.65638
 Alpha virt. eigenvalues --    0.65960   0.66930   0.67111   0.67615   0.69553
 Alpha virt. eigenvalues --    0.70524   0.70943   0.71111   0.71834   0.72293
 Alpha virt. eigenvalues --    0.73232   0.73606   0.73787   0.74503   0.75215
 Alpha virt. eigenvalues --    0.75610   0.76045   0.76602   0.76824   0.77371
 Alpha virt. eigenvalues --    0.77695   0.78612   0.78945   0.79275   0.79680
 Alpha virt. eigenvalues --    0.80093   0.80649   0.81459   0.81593   0.82021
 Alpha virt. eigenvalues --    0.82422   0.82840   0.83331   0.83606   0.84571
 Alpha virt. eigenvalues --    0.84673   0.85408   0.85562   0.86158   0.86636
 Alpha virt. eigenvalues --    0.87342   0.87699   0.89060   0.89372   0.89884
 Alpha virt. eigenvalues --    0.90284   0.91211   0.91962   0.93036   0.93731
 Alpha virt. eigenvalues --    0.94528   0.95722   0.96718   0.97404   0.98019
 Alpha virt. eigenvalues --    0.99010   1.00021   1.01285   1.01792   1.02679
 Alpha virt. eigenvalues --    1.03090   1.03865   1.05035   1.05815   1.07127
 Alpha virt. eigenvalues --    1.08217   1.09952   1.10558   1.11225   1.12871
 Alpha virt. eigenvalues --    1.14308   1.15037   1.15283   1.16930   1.17995
 Alpha virt. eigenvalues --    1.19999   1.20914   1.22589   1.23074   1.23838
 Alpha virt. eigenvalues --    1.24565   1.24816   1.25934   1.27280   1.28101
 Alpha virt. eigenvalues --    1.28970   1.30053   1.31111   1.32669   1.35220
 Alpha virt. eigenvalues --    1.36222   1.36450   1.37314   1.38624   1.39515
 Alpha virt. eigenvalues --    1.40803   1.41695   1.42323   1.43435   1.44782
 Alpha virt. eigenvalues --    1.47335   1.47851   1.49905   1.50390   1.52335
 Alpha virt. eigenvalues --    1.52610   1.54045   1.55219   1.55698   1.56421
 Alpha virt. eigenvalues --    1.57899   1.58907   1.59301   1.60096   1.62096
 Alpha virt. eigenvalues --    1.62418   1.63642   1.64261   1.64519   1.65820
 Alpha virt. eigenvalues --    1.66948   1.67178   1.67876   1.68159   1.68579
 Alpha virt. eigenvalues --    1.70070   1.70814   1.71305   1.71974   1.72514
 Alpha virt. eigenvalues --    1.72764   1.73670   1.73954   1.74201   1.75036
 Alpha virt. eigenvalues --    1.75855   1.76850   1.77706   1.78765   1.79548
 Alpha virt. eigenvalues --    1.79962   1.80440   1.81217   1.82924   1.83640
 Alpha virt. eigenvalues --    1.85316   1.85694   1.86753   1.87040   1.87638
 Alpha virt. eigenvalues --    1.88360   1.89135   1.89249   1.89926   1.90636
 Alpha virt. eigenvalues --    1.91121   1.91935   1.92823   1.94436   1.95241
 Alpha virt. eigenvalues --    1.95778   1.97482   1.98323   1.99821   2.00213
 Alpha virt. eigenvalues --    2.00925   2.02295   2.02614   2.03922   2.04495
 Alpha virt. eigenvalues --    2.05802   2.06597   2.08259   2.08815   2.09617
 Alpha virt. eigenvalues --    2.11223   2.12260   2.13374   2.14728   2.15901
 Alpha virt. eigenvalues --    2.16227   2.16655   2.17591   2.18618   2.18826
 Alpha virt. eigenvalues --    2.19754   2.20763   2.21253   2.22343   2.23120
 Alpha virt. eigenvalues --    2.25031   2.26421   2.27453   2.28022   2.29161
 Alpha virt. eigenvalues --    2.29950   2.31826   2.32619   2.33160   2.34676
 Alpha virt. eigenvalues --    2.35176   2.35652   2.37959   2.39131   2.41788
 Alpha virt. eigenvalues --    2.42361   2.42927   2.42975   2.45996   2.47501
 Alpha virt. eigenvalues --    2.48194   2.49066   2.49444   2.51641   2.51738
 Alpha virt. eigenvalues --    2.52991   2.54197   2.55116   2.57332   2.58289
 Alpha virt. eigenvalues --    2.60104   2.60958   2.61157   2.64164   2.65164
 Alpha virt. eigenvalues --    2.65952   2.67701   2.68156   2.69188   2.72810
 Alpha virt. eigenvalues --    2.73745   2.78454   2.81832   2.85491   2.87498
 Alpha virt. eigenvalues --    2.88052   2.91220   2.92016   2.92425   2.94752
 Alpha virt. eigenvalues --    2.97521   3.00356   3.01758   3.06851   3.15089
 Alpha virt. eigenvalues --    3.68314   3.71862   3.75712   3.82610   3.84293
 Alpha virt. eigenvalues --    3.89162   3.96433   3.99522   4.05307   4.06149
 Alpha virt. eigenvalues --    4.07590   4.12061   4.13056   4.15746   4.20018
 Alpha virt. eigenvalues --    4.21232   4.21890   4.24719   4.26770   4.31619
 Alpha virt. eigenvalues --    4.33625   4.39072   4.40783   4.42021   4.49842
 Alpha virt. eigenvalues --    4.50909   4.54751   4.61813   4.62937
          Condensed to atoms (all electrons):
 Mulliken charges:
               1
     1  N   -0.761160
     2  C   -0.125623
     3  C    0.615889
     4  O   -0.508613
     5  C   -0.275969
     6  C   -0.434281
     7  C    0.636391
     8  O   -0.480391
     9  O   -0.533175
    10  H    0.442787
    11  H    0.414797
    12  H    0.235954
    13  H    0.200920
    14  H    0.173500
    15  H    0.214556
    16  H    0.223113
    17  H    0.402331
    18  H    0.459644
    19  N   -0.604456
    20  C   -0.043963
    21  C    0.604941
    22  O   -0.606573
    23  C   -0.304938
    24  C   -0.097485
    25  C   -0.452070
    26  C   -0.449879
    27  H    0.363032
    28  H    0.173593
    29  H    0.171221
    30  H    0.155250
    31  H    0.159148
    32  H    0.141062
    33  H    0.177329
    34  H    0.131181
    35  H    0.148490
    36  H    0.155123
    37  H    0.167670
    38  N   -0.618808
    39  C   -0.044871
    40  C    0.612292
    41  O   -0.594902
    42  C   -0.270213
    43  C   -0.300201
    44  C   -0.136516
    45  N   -0.624104
    46  C    0.756127
    47  N   -0.737246
    48  N   -0.768375
    49  O   -0.608510
    50  H    0.398126
    51  H    0.189509
    52  H    0.145198
    53  H    0.194821
    54  H    0.160380
    55  H    0.081270
    56  H    0.165761
    57  H    0.225379
    58  H    0.386320
    59  H    0.415358
    60  H    0.350351
    61  H    0.368341
    62  H    0.365168
 Sum of Mulliken charges =   1.00000
 Mulliken charges with hydrogens summed into heavy atoms:
               1
     1  N    0.515612
     2  C    0.110331
     3  C    0.615889
     4  O   -0.508613
     5  C    0.098451
     6  C    0.003387
     7  C    0.636391
     8  O   -0.480391
     9  O   -0.090388
    19  N   -0.241423
    20  C    0.129630
    21  C    0.604941
    22  O   -0.606573
    23  C    0.021533
    24  C    0.061664
    25  C   -0.002498
    26  C    0.021403
    38  N   -0.220682
    39  C    0.144638
    40  C    0.612292
    41  O   -0.594902
    42  C    0.069806
    43  C   -0.058550
    44  C    0.254623
    45  N   -0.237784
    46  C    0.756127
    47  N    0.028463
    48  N   -0.034866
    49  O   -0.608510
 Electronic spatial extent (au):  <R**2>=         510189.9210
 Charge=              1.0000 electrons
 Dipole moment (field-independent basis, Debye):
    X=             43.8388    Y=             82.5222    Z=             64.5310  Tot=            113.5606
 Quadrupole moment (field-independent basis, Debye-Ang):
   XX=            228.7471   YY=           1276.6311   ZZ=            725.7665
   XY=            758.1108   XZ=            589.5420   YZ=           1097.1887
 Traceless Quadrupole moment (field-independent basis, Debye-Ang):
   XX=           -514.9678   YY=            532.9162   ZZ=            -17.9484
   XY=            758.1108   XZ=            589.5420   YZ=           1097.1887
 Octapole moment (field-independent basis, Debye-Ang**2):
  XXX=          -2475.1620  YYY=          16911.2522  ZZZ=           5870.9108  XYY=          11452.7936
  XXY=           3999.9280  XXZ=           3042.7270  XZZ=           6303.8284  YZZ=          12057.1151
  YYZ=          16786.1054  XYZ=          10107.4605
 Hexadecapole moment (field-independent basis, Debye-Ang**3):
 XXXX=        -117332.0692 YYYY=         152399.2869 ZZZZ=          -4225.8341 XXXY=         -41960.1495
 XXXZ=         -33624.3741 YYYX=         139452.0560 YYYZ=         218163.0731 ZZZX=          40469.4278
 ZZZY=          89911.7257 XXYY=          48936.7969 XXZZ=          20456.5515 YYZZ=         174078.0992
 XXYZ=          52437.5813 YYXZ=         151558.0204 ZZXY=         105736.1249
 N-N= 3.347517014830D+03 E-N=-1.004380314277D+04  KE= 1.434117085873D+03
 Unable to Open any file for archive entry.
 1\1\GINC-AMR-137\SP\RB3LYP\6-31G(d)\C17H33N6O6(1+)\KENGMITH\24-May-202
 2\0\\# B3LYP/6-31G* empiricaldispersion=gd3 guess=read geom=check nosy
 mm integral(ultrafinegrid)\\Candidate Structure: Conf:876 Charge calc 
 in gas phase\\1,1\N,0,9.8467453277,16.2194688877,16.2036404393\C,0,9.4
 111869156,17.0992662914,15.056427402\C,0,9.2520672095,18.477807936,15.
 734702728\O,0,8.4028328859,18.5646938102,16.6172309929\C,0,8.103779489
 6,16.6168702224,14.4285550668\C,0,7.621564357,17.5379702397,13.2971089
 579\C,0,8.5719214911,17.650316638,12.1125909902\O,0,9.6872465428,17.15
 94433229,12.0759727041\O,0,8.1453904891,18.3563341331,11.06024555\H,0,
 7.2414222233,18.6957999591,11.1849390251\H,0,9.2159421091,16.378019710
 9,17.001625242\H,0,10.2081892435,17.054523491,14.3220649903\H,0,7.3255
 849958,16.5893360045,15.1978486722\H,0,8.2430456997,15.6018760152,14.0
 377616408\H,0,6.6534280191,17.1756959721,12.9287696782\H,0,7.438311141
 4,18.5509859324,13.6813894971\H,0,9.8737012119,15.2237179024,15.966984
 003\H,0,10.8197549949,16.573152129,16.4420844175\N,0,10.0447404152,19.
 4884049011,15.3213580375\C,0,11.2647302689,19.3743914178,14.5152825974
 \C,0,12.14743693,18.1898214681,14.9957026329\O,0,12.0281404546,17.7042
 168567,16.1439011275\C,0,12.0194307844,20.721304286,14.5839774979\C,0,
 13.1802700094,20.9145717059,13.5858400443\C,0,12.7239150402,20.8053265
 619,12.1220669677\C,0,13.8348078745,22.2807476308,13.8428785703\H,0,9.
 9405444672,20.3289710571,15.8817403181\H,0,10.9780694534,19.1799360233
 ,13.4764413572\H,0,12.3872209476,20.8520141106,15.6103309238\H,0,11.28
 0354175,21.5151738905,14.4029293222\H,0,13.9402567726,20.1444431051,13
 .7648199555\H,0,11.9336410167,21.5358454449,11.9047974286\H,0,13.56439
 33878,21.0046127244,11.4505882296\H,0,12.3499067302,19.8082517383,11.8
 60251869\H,0,13.1259819374,23.0982077785,13.6592489319\H,0,14.19043480
 53,22.3677656312,14.8758173755\H,0,14.692887,22.4273163149,13.17918069
 36\N,0,12.9658644848,17.7373369546,14.0594704478\C,0,14.0322628355,16.
 7377699779,14.145607867\C,0,14.6265966364,16.707158055,12.6919219385\O
 ,0,15.2557276252,15.6643299407,12.3763231679\C,0,13.6077172862,15.3578
 375877,14.6645120643\C,0,12.4091195819,14.6603226042,13.996324048\C,0,
 12.508127437,14.3344770925,12.4947469029\N,0,12.1199968423,15.49074749
 15,11.6804347071\C,0,12.6639915122,15.9230805061,10.538116924\N,0,13.8
 327730745,15.4436430676,10.0955803279\N,0,11.9558248256,16.8132492751,
 9.7997074379\O,0,14.343899643,17.6945155594,11.96519102\H,0,13.0697788
 919,18.2143484253,13.1519136186\H,0,14.8131350766,17.1153100553,14.818
 9187737\H,0,13.3926383863,15.4418345277,15.7355306427\H,0,14.488703770
 8,14.7191212972,14.554397114\H,0,12.2556685042,13.7086573476,14.521156
 7566\H,0,11.4897830507,15.2474069992,14.1572472287\H,0,11.8333815802,1
 3.5031110406,12.2524619539\H,0,13.5245332112,14.037268011,12.244545667
 3\H,0,11.2801855298,15.9757646385,11.9726742988\H,0,14.575713707,15.36
 23421995,10.8339735033\H,0,14.1669751052,15.8448773633,9.2281077704\H,
 0,12.4867377013,17.4935778904,9.271818119\H,0,11.0782409427,17.1521482
 569,10.1789796822\\Version=ES64L-G16RevC.01\HF=-1447.4910943\RMSD=8.26
 6e-09\Dipole=-4.6732936,-0.773591,0.0021106\Quadrupole=-382.8659294,39
 6.2101391,-13.3442096,563.6368123,438.3100174,815.7328789\PG=C01 [X(C1
 7H33N6O6)]\\@
 The archive entry for this job was punched.


 KNOWLEDGE IS EXPERIMENT'S DAUGHTER.
 -- LEONARDO DA VINCI, IN "PENSIERI" CA. 1492
 Job cpu time:       0 days  0 hours  1 minutes 56.8 seconds.
 Elapsed time:       0 days  0 hours  0 minutes 29.5 seconds.
 File lengths (MBytes):  RWF=    248 Int=      0 D2E=      0 Chk=     32 Scr=     16
 Normal termination of Gaussian 16 at Tue May 24 03:31:37 2022.
