 Entering Gaussian System, Link 0=/opt/software/Gaussian/g16-AVX2-C.01/g16/g16
 Input=charge-conf-364.com
 Output=charge-conf-364.log
 Initial command:
 /opt/software/Gaussian/g16-AVX2-C.01/g16/l1.exe "/mnt/gs18/scratch/users/kengmith/Gau-52726.inp" -scrdir="/mnt/gs18/scratch/users/kengmith/"
 Entering Link 1 = /opt/software/Gaussian/g16-AVX2-C.01/g16/l1.exe PID=     52736.
  
 Copyright (c) 1988-2019, Gaussian, Inc.  All Rights Reserved.
  
 This is part of the Gaussian(R) 16 program.  It is based on
 the Gaussian(R) 09 system (copyright 2009, Gaussian, Inc.),
 the Gaussian(R) 03 system (copyright 2003, Gaussian, Inc.),
 the Gaussian(R) 98 system (copyright 1998, Gaussian, Inc.),
 the Gaussian(R) 94 system (copyright 1995, Gaussian, Inc.),
 the Gaussian 92(TM) system (copyright 1992, Gaussian, Inc.),
 the Gaussian 90(TM) system (copyright 1990, Gaussian, Inc.),
 the Gaussian 88(TM) system (copyright 1988, Gaussian, Inc.),
 the Gaussian 86(TM) system (copyright 1986, Carnegie Mellon
 University), and the Gaussian 82(TM) system (copyright 1983,
 Carnegie Mellon University). Gaussian is a federally registered
 trademark of Gaussian, Inc.
  
 This software contains proprietary and confidential information,
 including trade secrets, belonging to Gaussian, Inc.
  
 This software is provided under written license and may be
 used, copied, transmitted, or stored only in accord with that
 written license.
  
 The following legend is applicable only to US Government
 contracts under FAR:
  
                    RESTRICTED RIGHTS LEGEND
  
 Use, reproduction and disclosure by the US Government is
 subject to restrictions as set forth in subparagraphs (a)
 and (c) of the Commercial Computer Software - Restricted
 Rights clause in FAR 52.227-19.
  
 Gaussian, Inc.
 340 Quinnipiac St., Bldg. 40, Wallingford CT 06492
  
  
 ---------------------------------------------------------------
 Warning -- This program may not be used in any manner that
 competes with the business of Gaussian, Inc. or will provide
 assistance to any competitor of Gaussian, Inc.  The licensee
 of this program is prohibited from giving any competitor of
 Gaussian, Inc. access to this program.  By using this program,
 the user acknowledges that Gaussian, Inc. is engaged in the
 business of creating and licensing software in the field of
 computational chemistry and represents and warrants to the
 licensee that it is not a competitor of Gaussian, Inc. and that
 it will not use this program in any manner prohibited above.
 ---------------------------------------------------------------
  

 Cite this work as:
 Gaussian 16, Revision C.01,
 M. J. Frisch, G. W. Trucks, H. B. Schlegel, G. E. Scuseria, 
 M. A. Robb, J. R. Cheeseman, G. Scalmani, V. Barone, 
 G. A. Petersson, H. Nakatsuji, X. Li, M. Caricato, A. V. Marenich, 
 J. Bloino, B. G. Janesko, R. Gomperts, B. Mennucci, H. P. Hratchian, 
 J. V. Ortiz, A. F. Izmaylov, J. L. Sonnenberg, D. Williams-Young, 
 F. Ding, F. Lipparini, F. Egidi, J. Goings, B. Peng, A. Petrone, 
 T. Henderson, D. Ranasinghe, V. G. Zakrzewski, J. Gao, N. Rega, 
 G. Zheng, W. Liang, M. Hada, M. Ehara, K. Toyota, R. Fukuda, 
 J. Hasegawa, M. Ishida, T. Nakajima, Y. Honda, O. Kitao, H. Nakai, 
 T. Vreven, K. Throssell, J. A. Montgomery, Jr., J. E. Peralta, 
 F. Ogliaro, M. J. Bearpark, J. J. Heyd, E. N. Brothers, K. N. Kudin, 
 V. N. Staroverov, T. A. Keith, R. Kobayashi, J. Normand, 
 K. Raghavachari, A. P. Rendell, J. C. Burant, S. S. Iyengar, 
 J. Tomasi, M. Cossi, J. M. Millam, M. Klene, C. Adamo, R. Cammi, 
 J. W. Ochterski, R. L. Martin, K. Morokuma, O. Farkas, 
 J. B. Foresman, and D. J. Fox, Gaussian, Inc., Wallingford CT, 2019.
 
 ******************************************
 Gaussian 16:  ES64L-G16RevC.01  3-Jul-2019
                24-May-2022 
 ******************************************
 %mem=8gb
 %nproc=4
 Will use up to    4 processors via shared memory.
 %chk=conf-364.chk
 ----------------------------------------------------------------------
 # B3LYP/6-31G* empiricaldispersion=gd3 guess=read geom=check nosymm in
 tegral(ultrafinegrid)
 ----------------------------------------------------------------------
 1/29=2,38=1,172=1/1;
 2/12=2,15=1,40=1/2;
 3/5=1,6=6,7=1,11=2,14=-4,25=1,30=1,74=-5,75=-5,116=-2,124=31/1,2,3;
 4/5=1/1;
 5/5=2,38=6/2;
 6/7=2,8=2,9=2,10=2,28=1/1;
 99/5=1,9=1/99;
 ------------------------------------------------------
 Candidate Structure: Conf:364 Charge calc in gas phase
 ------------------------------------------------------
 Structure from the checkpoint file:  "conf-364.chk"
 Charge =  1 Multiplicity = 1
 Redundant internal coordinates found in file.  (old form).
 N,0,9.8843389495,17.2285186451,15.9950894265
 C,0,11.3136625209,16.7421059383,16.0740417623
 C,0,11.1685298434,15.2077570323,16.1039932397
 O,0,10.562800585,14.7242985492,17.0534761971
 C,0,12.0612312641,17.2331297404,17.319340636
 C,0,12.057699111,18.7674469727,17.5622413376
 C,0,12.1564419021,19.5267897281,16.2618672269
 O,0,11.1529664821,19.6765951969,15.5495685798
 O,0,13.358439928,19.9256826729,15.9215551777
 H,0,13.367118059,20.3251924367,14.9918662779
 H,0,9.8702208587,18.2619154787,15.9797636671
 H,0,11.7877551185,17.1226427358,15.1703766339
 H,0,13.0943159165,16.8877868817,17.2020507095
 H,0,11.656057782,16.7261293621,18.1998686021
 H,0,11.1232319037,19.0738573362,18.042665884
 H,0,12.8833221944,19.0283322636,18.2274062978
 H,0,9.5071891482,16.8551385074,15.0907504156
 H,0,9.344503639,16.8358846383,16.7759630168
 N,0,11.706743691,14.4994975929,15.0875099603
 C,0,12.1030676934,15.0103508794,13.7744046871
 C,0,11.0358720857,15.9755993761,13.1892930757
 O,0,9.8493277612,15.9267648891,13.5651596775
 C,0,12.292967742,13.7903245188,12.8396291088
 C,0,12.8845516762,14.0569288364,11.4417497269
 C,0,14.2848870615,14.6865872019,11.5002693367
 C,0,12.9253077506,12.7342853675,10.6597498879
 H,0,11.498313668,13.5075611205,15.1474423226
 H,0,13.059562166,15.5389782833,13.8663299563
 H,0,11.3155971074,13.300335494,12.73497569
 H,0,12.9533535103,13.0852671673,13.363949189
 H,0,12.2159098058,14.7402444707,10.9020929524
 H,0,14.292762804,15.6892466761,11.9446792671
 H,0,14.9701787833,14.0569087459,12.0817700512
 H,0,14.7000746857,14.7879785043,10.4925533976
 H,0,11.9305649323,12.2805986305,10.5849107762
 H,0,13.2976479357,12.897772806,9.6432827829
 H,0,13.5910325295,12.0107569746,11.1465992943
 N,0,11.5293148052,16.8255259213,12.2852918681
 C,0,10.8782559225,17.5649035753,11.1935659241
 C,0,11.9067045679,18.6432187058,10.7356016679
 O,0,11.4568413482,19.4911749297,9.9202117757
 C,0,9.478705169,18.1372392062,11.4593938783
 C,0,9.298656067,19.2127898767,12.542566213
 C,0,9.9579317942,20.5910705437,12.3058480087
 N,0,11.302335027,20.6295203303,12.8992723491
 C,0,12.4546199341,20.9880881788,12.3858308962
 N,0,12.6153866668,21.494659337,11.1644322787
 N,0,13.5791846251,20.7347909502,13.2381579074
 O,0,13.0551704781,18.5977132809,11.2586829286
 H,0,12.5400547607,16.8969699699,12.1694378232
 H,0,10.7642857785,16.8625014363,10.3549071684
 H,0,8.8128595774,17.3063853866,11.7077598378
 H,0,9.1509732586,18.5481310436,10.4999851085
 H,0,8.2208630319,19.389272325,12.6370336495
 H,0,9.6252185322,18.8235004753,13.5156359665
 H,0,9.3739280201,21.372530944,12.8046187481
 H,0,10.011870406,20.820825383,11.2434237251
 H,0,11.3367804692,20.305893276,13.869852824
 H,0,12.0385379561,20.9909245823,10.436124818
 H,0,13.5824607419,21.5309962298,10.8607200145
 H,0,14.2852910711,21.464449955,13.1294389601
 H,0,13.9708772355,19.8651858259,12.8461691916
 Recover connectivity data from disk.
                           ----------------------------
                           !    Current Parameters    !
                           ! (Angstroms and Degrees)  !
 --------------------------                            --------------------------
 ! Name  Definition              Value                                          !
 --------------------------------------------------------------------------------
 ! R1    R(1,2)                  1.5119                                         !
 ! R2    R(1,11)                 1.0336                                         !
 ! R3    R(1,17)                 1.0486                                         !
 ! R4    R(1,18)                 1.0273                                         !
 ! R5    R(2,3)                  1.5415                                         !
 ! R6    R(2,5)                  1.5332                                         !
 ! R7    R(2,12)                 1.0891                                         !
 ! R8    R(3,4)                  1.2256                                         !
 ! R9    R(3,19)                 1.3508                                         !
 ! R10   R(5,6)                  1.5534                                         !
 ! R11   R(5,13)                 1.0956                                         !
 ! R12   R(5,14)                 1.0939                                         !
 ! R13   R(6,7)                  1.5091                                         !
 ! R14   R(6,15)                 1.0945                                         !
 ! R15   R(6,16)                 1.0919                                         !
 ! R16   R(7,8)                  1.2397                                         !
 ! R17   R(7,9)                  1.3114                                         !
 ! R18   R(9,10)                 1.0119                                         !
 ! R19   R(19,20)                1.4637                                         !
 ! R20   R(19,27)                1.0154                                         !
 ! R21   R(20,21)                1.5534                                         !
 ! R22   R(20,23)                1.5487                                         !
 ! R23   R(20,28)                1.0967                                         !
 ! R24   R(21,22)                1.2456                                         !
 ! R25   R(21,38)                1.3353                                         !
 ! R26   R(23,24)                1.5411                                         !
 ! R27   R(23,29)                1.0983                                         !
 ! R28   R(23,30)                1.0991                                         !
 ! R29   R(24,25)                1.5365                                         !
 ! R30   R(24,26)                1.5371                                         !
 ! R31   R(24,31)                1.0978                                         !
 ! R32   R(25,32)                1.0968                                         !
 ! R33   R(25,33)                1.0974                                         !
 ! R34   R(25,34)                1.0946                                         !
 ! R35   R(26,35)                1.0959                                         !
 ! R36   R(26,36)                1.0948                                         !
 ! R37   R(26,37)                1.0971                                         !
 ! R38   R(38,39)                1.4705                                         !
 ! R39   R(38,50)                1.0199                                         !
 ! R40   R(39,40)                1.5589                                         !
 ! R41   R(39,42)                1.5352                                         !
 ! R42   R(39,51)                1.0999                                         !
 ! R43   R(40,41)                1.2595                                         !
 ! R44   R(40,49)                1.2628                                         !
 ! R45   R(42,43)                1.537                                          !
 ! R46   R(42,52)                1.0933                                         !
 ! R47   R(42,53)                1.0939                                         !
 ! R48   R(43,44)                1.5461                                         !
 ! R49   R(43,54)                1.0962                                         !
 ! R50   R(43,55)                1.0977                                         !
 ! R51   R(44,45)                1.4701                                         !
 ! R52   R(44,56)                1.0957                                         !
 ! R53   R(44,57)                1.0883                                         !
 ! R54   R(45,46)                1.3115                                         !
 ! R55   R(45,58)                1.0237                                         !
 ! R56   R(46,47)                1.332                                          !
 ! R57   R(46,48)                1.4336                                         !
 ! R58   R(47,59)                1.0569                                         !
 ! R59   R(47,60)                1.0143                                         !
 ! R60   R(48,61)                1.0212                                         !
 ! R61   R(48,62)                1.0312                                         !
 ! A1    A(2,1,11)             109.5937                                         !
 ! A2    A(2,1,17)             105.695                                          !
 ! A3    A(2,1,18)             109.5199                                         !
 ! A4    A(11,1,17)            109.7742                                         !
 ! A5    A(11,1,18)            112.7192                                         !
 ! A6    A(17,1,18)            109.297                                          !
 ! A7    A(1,2,3)              103.429                                          !
 ! A8    A(1,2,5)              113.5993                                         !
 ! A9    A(1,2,12)             104.8203                                         !
 ! A10   A(3,2,5)              110.4201                                         !
 ! A11   A(3,2,12)             113.884                                          !
 ! A12   A(5,2,12)             110.4733                                         !
 ! A13   A(2,3,4)              117.0145                                         !
 ! A14   A(2,3,19)             118.0199                                         !
 ! A15   A(4,3,19)             124.9646                                         !
 ! A16   A(2,5,6)              116.2451                                         !
 ! A17   A(2,5,13)             105.7755                                         !
 ! A18   A(2,5,14)             108.9515                                         !
 ! A19   A(6,5,13)             109.2823                                         !
 ! A20   A(6,5,14)             109.3344                                         !
 ! A21   A(13,5,14)            106.8193                                         !
 ! A22   A(5,6,7)              111.2295                                         !
 ! A23   A(5,6,15)             110.3093                                         !
 ! A24   A(5,6,16)             109.2406                                         !
 ! A25   A(7,6,15)             107.0518                                         !
 ! A26   A(7,6,16)             110.8084                                         !
 ! A27   A(15,6,16)            108.1377                                         !
 ! A28   A(6,7,8)              120.1963                                         !
 ! A29   A(6,7,9)              115.8902                                         !
 ! A30   A(8,7,9)              123.7855                                         !
 ! A31   A(7,9,10)             111.4916                                         !
 ! A32   A(3,19,20)            126.8704                                         !
 ! A33   A(3,19,27)            112.7078                                         !
 ! A34   A(20,19,27)           116.7122                                         !
 ! A35   A(19,20,21)           111.6404                                         !
 ! A36   A(19,20,23)           107.4432                                         !
 ! A37   A(19,20,28)           109.2198                                         !
 ! A38   A(21,20,23)           110.268                                          !
 ! A39   A(21,20,28)           109.3439                                         !
 ! A40   A(23,20,28)           108.8672                                         !
 ! A41   A(20,21,22)           121.0922                                         !
 ! A42   A(20,21,38)           113.3683                                         !
 ! A43   A(22,21,38)           125.5383                                         !
 ! A44   A(20,23,24)           117.2763                                         !
 ! A45   A(20,23,29)           107.4488                                         !
 ! A46   A(20,23,30)           106.9225                                         !
 ! A47   A(24,23,29)           109.4108                                         !
 ! A48   A(24,23,30)           108.2412                                         !
 ! A49   A(29,23,30)           107.0938                                         !
 ! A50   A(23,24,25)           112.7176                                         !
 ! A51   A(23,24,26)           108.8316                                         !
 ! A52   A(23,24,31)           108.6479                                         !
 ! A53   A(25,24,26)           110.3555                                         !
 ! A54   A(25,24,31)           108.5865                                         !
 ! A55   A(26,24,31)           107.557                                          !
 ! A56   A(24,25,32)           113.3668                                         !
 ! A57   A(24,25,33)           110.7428                                         !
 ! A58   A(24,25,34)           110.4009                                         !
 ! A59   A(32,25,33)           107.7802                                         !
 ! A60   A(32,25,34)           106.5967                                         !
 ! A61   A(33,25,34)           107.7051                                         !
 ! A62   A(24,26,35)           111.5256                                         !
 ! A63   A(24,26,36)           110.6636                                         !
 ! A64   A(24,26,37)           110.9653                                         !
 ! A65   A(35,26,36)           107.8864                                         !
 ! A66   A(35,26,37)           107.9432                                         !
 ! A67   A(36,26,37)           107.7047                                         !
 ! A68   A(21,38,39)           131.2259                                         !
 ! A69   A(21,38,50)           119.1907                                         !
 ! A70   A(39,38,50)           108.6159                                         !
 ! A71   A(38,39,40)           105.8908                                         !
 ! A72   A(38,39,42)           117.5488                                         !
 ! A73   A(38,39,51)           106.9101                                         !
 ! A74   A(40,39,42)           113.2293                                         !
 ! A75   A(40,39,51)           106.6247                                         !
 ! A76   A(42,39,51)           106.0004                                         !
 ! A77   A(39,40,41)           114.8504                                         !
 ! A78   A(39,40,49)           116.9607                                         !
 ! A79   A(41,40,49)           128.1176                                         !
 ! A80   A(39,42,43)           119.3192                                         !
 ! A81   A(39,42,52)           108.1325                                         !
 ! A82   A(39,42,53)           105.1459                                         !
 ! A83   A(43,42,52)           107.4781                                         !
 ! A84   A(43,42,53)           108.6703                                         !
 ! A85   A(52,42,53)           107.5906                                         !
 ! A86   A(42,43,44)           117.7726                                         !
 ! A87   A(42,43,54)           106.7714                                         !
 ! A88   A(42,43,55)           109.979                                          !
 ! A89   A(44,43,54)           106.7936                                         !
 ! A90   A(44,43,55)           108.9659                                         !
 ! A91   A(54,43,55)           105.8539                                         !
 ! A92   A(43,44,45)           110.5781                                         !
 ! A93   A(43,44,56)           109.8058                                         !
 ! A94   A(43,44,57)           111.0264                                         !
 ! A95   A(45,44,56)           106.5609                                         !
 ! A96   A(45,44,57)           110.0734                                         !
 ! A97   A(56,44,57)           108.677                                          !
 ! A98   A(44,45,46)           130.7406                                         !
 ! A99   A(44,45,58)           113.9059                                         !
 ! A100  A(46,45,58)           115.3444                                         !
 ! A101  A(45,46,47)           124.6812                                         !
 ! A102  A(45,46,48)           114.0884                                         !
 ! A103  A(47,46,48)           121.1762                                         !
 ! A104  A(46,47,59)           112.6286                                         !
 ! A105  A(46,47,60)           113.7824                                         !
 ! A106  A(59,47,60)           109.3377                                         !
 ! A107  A(46,48,61)           110.6622                                         !
 ! A108  A(46,48,62)           102.7657                                         !
 ! A109  A(61,48,62)           107.4246                                         !
 ! D1    D(11,1,2,3)           179.4057                                         !
 ! D2    D(11,1,2,5)            59.686                                          !
 ! D3    D(11,1,2,12)          -61.0057                                         !
 ! D4    D(17,1,2,3)           -62.3625                                         !
 ! D5    D(17,1,2,5)           177.9178                                         !
 ! D6    D(17,1,2,12)           57.226                                          !
 ! D7    D(18,1,2,3)            55.2708                                         !
 ! D8    D(18,1,2,5)           -64.4489                                         !
 ! D9    D(18,1,2,12)          174.8593                                         !
 ! D10   D(1,2,3,4)            -62.109                                          !
 ! D11   D(1,2,3,19)           117.5384                                         !
 ! D12   D(5,2,3,4)             59.767                                          !
 ! D13   D(5,2,3,19)          -120.5856                                         !
 ! D14   D(12,2,3,4)          -175.2712                                         !
 ! D15   D(12,2,3,19)            4.3762                                         !
 ! D16   D(1,2,5,6)            -53.5086                                         !
 ! D17   D(1,2,5,13)          -174.9668                                         !
 ! D18   D(1,2,5,14)            70.5189                                         !
 ! D19   D(3,2,5,6)           -169.1716                                         !
 ! D20   D(3,2,5,13)            69.3703                                         !
 ! D21   D(3,2,5,14)           -45.1441                                         !
 ! D22   D(12,2,5,6)            63.947                                          !
 ! D23   D(12,2,5,13)          -57.5112                                         !
 ! D24   D(12,2,5,14)         -172.0255                                         !
 ! D25   D(2,3,19,20)          -17.8561                                         !
 ! D26   D(2,3,19,27)         -175.219                                          !
 ! D27   D(4,3,19,20)          161.7606                                         !
 ! D28   D(4,3,19,27)            4.3977                                         !
 ! D29   D(2,5,6,7)            -37.0835                                         !
 ! D30   D(2,5,6,15)            81.5502                                         !
 ! D31   D(2,5,6,16)          -159.7154                                         !
 ! D32   D(13,5,6,7)            82.4952                                         !
 ! D33   D(13,5,6,15)         -158.8711                                         !
 ! D34   D(13,5,6,16)          -40.1367                                         !
 ! D35   D(14,5,6,7)          -160.9134                                         !
 ! D36   D(14,5,6,15)          -42.2798                                         !
 ! D37   D(14,5,6,16)           76.4547                                         !
 ! D38   D(5,6,7,8)             79.2139                                         !
 ! D39   D(5,6,7,9)            -96.8255                                         !
 ! D40   D(15,6,7,8)           -41.3586                                         !
 ! D41   D(15,6,7,9)           142.602                                          !
 ! D42   D(16,6,7,8)          -159.0624                                         !
 ! D43   D(16,6,7,9)            24.8983                                         !
 ! D44   D(6,7,9,10)           173.0388                                         !
 ! D45   D(8,7,9,10)            -2.8421                                         !
 ! D46   D(3,19,20,21)         -43.7251                                         !
 ! D47   D(3,19,20,23)        -164.7428                                         !
 ! D48   D(3,19,20,28)          77.3194                                         !
 ! D49   D(27,19,20,21)        112.8542                                         !
 ! D50   D(27,19,20,23)         -8.1635                                         !
 ! D51   D(27,19,20,28)       -126.1013                                         !
 ! D52   D(19,20,21,22)        -22.9862                                         !
 ! D53   D(19,20,21,38)        156.6345                                         !
 ! D54   D(23,20,21,22)         96.373                                          !
 ! D55   D(23,20,21,38)        -84.0063                                         !
 ! D56   D(28,20,21,22)       -143.9585                                         !
 ! D57   D(28,20,21,38)         35.6622                                         !
 ! D58   D(19,20,23,24)       -172.5041                                         !
 ! D59   D(19,20,23,29)         63.8528                                         !
 ! D60   D(19,20,23,30)        -50.8362                                         !
 ! D61   D(21,20,23,24)         65.6188                                         !
 ! D62   D(21,20,23,29)        -58.0244                                         !
 ! D63   D(21,20,23,30)       -172.7133                                         !
 ! D64   D(28,20,23,24)        -54.3379                                         !
 ! D65   D(28,20,23,29)       -177.981                                          !
 ! D66   D(28,20,23,30)         67.33                                           !
 ! D67   D(20,21,38,39)        156.8548                                         !
 ! D68   D(20,21,38,50)        -10.4882                                         !
 ! D69   D(22,21,38,39)        -23.5443                                         !
 ! D70   D(22,21,38,50)        169.1126                                         !
 ! D71   D(20,23,24,25)         59.9087                                         !
 ! D72   D(20,23,24,26)       -177.3252                                         !
 ! D73   D(20,23,24,31)        -60.4874                                         !
 ! D74   D(29,23,24,25)       -177.4495                                         !
 ! D75   D(29,23,24,26)        -54.6834                                         !
 ! D76   D(29,23,24,31)         62.1543                                         !
 ! D77   D(30,23,24,25)        -61.0726                                         !
 ! D78   D(30,23,24,26)         61.6935                                         !
 ! D79   D(30,23,24,31)        178.5312                                         !
 ! D80   D(23,24,25,32)        -64.8551                                         !
 ! D81   D(23,24,25,33)         56.4324                                         !
 ! D82   D(23,24,25,34)        175.6292                                         !
 ! D83   D(26,24,25,32)        173.2356                                         !
 ! D84   D(26,24,25,33)        -65.4769                                         !
 ! D85   D(26,24,25,34)         53.72                                           !
 ! D86   D(31,24,25,32)         55.5763                                         !
 ! D87   D(31,24,25,33)        176.8638                                         !
 ! D88   D(31,24,25,34)        -63.9393                                         !
 ! D89   D(23,24,26,35)         57.2314                                         !
 ! D90   D(23,24,26,36)        177.3382                                         !
 ! D91   D(23,24,26,37)        -63.152                                          !
 ! D92   D(25,24,26,35)       -178.5925                                         !
 ! D93   D(25,24,26,36)        -58.4856                                         !
 ! D94   D(25,24,26,37)         61.0242                                         !
 ! D95   D(31,24,26,35)        -60.3007                                         !
 ! D96   D(31,24,26,36)         59.8061                                         !
 ! D97   D(31,24,26,37)        179.3159                                         !
 ! D98   D(21,38,39,40)        166.2004                                         !
 ! D99   D(21,38,39,42)         38.5363                                         !
 ! D100  D(21,38,39,51)        -80.3801                                         !
 ! D101  D(50,38,39,40)        -25.4446                                         !
 ! D102  D(50,38,39,42)       -153.1086                                         !
 ! D103  D(50,38,39,51)         87.975                                          !
 ! D104  D(38,39,40,41)       -171.1034                                         !
 ! D105  D(38,39,40,49)          6.0789                                         !
 ! D106  D(42,39,40,41)        -40.9009                                         !
 ! D107  D(42,39,40,49)        136.2814                                         !
 ! D108  D(51,39,40,41)         75.2795                                         !
 ! D109  D(51,39,40,49)       -107.5382                                         !
 ! D110  D(38,39,42,43)         63.4146                                         !
 ! D111  D(38,39,42,52)        -59.7046                                         !
 ! D112  D(38,39,42,53)       -174.4188                                         !
 ! D113  D(40,39,42,43)        -60.6383                                         !
 ! D114  D(40,39,42,52)        176.2425                                         !
 ! D115  D(40,39,42,53)         61.5283                                         !
 ! D116  D(51,39,42,43)       -177.1874                                         !
 ! D117  D(51,39,42,52)         59.6934                                         !
 ! D118  D(51,39,42,53)        -55.0208                                         !
 ! D119  D(39,42,43,44)         66.2201                                         !
 ! D120  D(39,42,43,54)       -173.7957                                         !
 ! D121  D(39,42,43,55)        -59.3923                                         !
 ! D122  D(52,42,43,44)       -170.3405                                         !
 ! D123  D(52,42,43,54)        -50.3563                                         !
 ! D124  D(52,42,43,55)         64.0471                                         !
 ! D125  D(53,42,43,44)        -54.183                                          !
 ! D126  D(53,42,43,54)         65.8012                                         !
 ! D127  D(53,42,43,55)       -179.7954                                         !
 ! D128  D(42,43,44,45)        -92.2051                                         !
 ! D129  D(42,43,44,56)        150.4844                                         !
 ! D130  D(42,43,44,57)         30.2803                                         !
 ! D131  D(54,43,44,45)        147.8224                                         !
 ! D132  D(54,43,44,56)         30.5119                                         !
 ! D133  D(54,43,44,57)        -89.6922                                         !
 ! D134  D(55,43,44,45)         33.9029                                         !
 ! D135  D(55,43,44,56)        -83.4076                                         !
 ! D136  D(55,43,44,57)        156.3883                                         !
 ! D137  D(43,44,45,46)        129.2661                                         !
 ! D138  D(43,44,45,58)        -49.5679                                         !
 ! D139  D(56,44,45,46)       -111.4436                                         !
 ! D140  D(56,44,45,58)         69.7224                                         !
 ! D141  D(57,44,45,46)          6.2256                                         !
 ! D142  D(57,44,45,58)       -172.6084                                         !
 ! D143  D(44,45,46,47)          4.445                                          !
 ! D144  D(44,45,46,48)       -172.8962                                         !
 ! D145  D(58,45,46,47)       -176.7344                                         !
 ! D146  D(58,45,46,48)          5.9244                                         !
 ! D147  D(45,46,47,59)        -42.5663                                         !
 ! D148  D(45,46,47,60)       -167.7178                                         !
 ! D149  D(48,46,47,59)        134.5966                                         !
 ! D150  D(48,46,47,60)          9.445                                          !
 ! D151  D(45,46,48,61)       -145.0981                                         !
 ! D152  D(45,46,48,62)        100.4714                                         !
 ! D153  D(47,46,48,61)         37.4573                                         !
 ! D154  D(47,46,48,62)        -76.9732                                         !
 --------------------------------------------------------------------------------
 Symmetry turned off by external request.
 Stoichiometry    C17H33N6O6(1+)
 Framework group  C1[X(C17H33N6O6)]
 Deg. of freedom   180
 Full point group                 C1      NOp   1
                          Input orientation:                          
 ---------------------------------------------------------------------
 Center     Atomic      Atomic             Coordinates (Angstroms)
 Number     Number       Type             X           Y           Z
 ---------------------------------------------------------------------
      1          7           0        9.884339   17.228519   15.995089
      2          6           0       11.313663   16.742106   16.074042
      3          6           0       11.168530   15.207757   16.103993
      4          8           0       10.562801   14.724299   17.053476
      5          6           0       12.061231   17.233130   17.319341
      6          6           0       12.057699   18.767447   17.562241
      7          6           0       12.156442   19.526790   16.261867
      8          8           0       11.152966   19.676595   15.549569
      9          8           0       13.358440   19.925683   15.921555
     10          1           0       13.367118   20.325192   14.991866
     11          1           0        9.870221   18.261915   15.979764
     12          1           0       11.787755   17.122643   15.170377
     13          1           0       13.094316   16.887787   17.202051
     14          1           0       11.656058   16.726129   18.199869
     15          1           0       11.123232   19.073857   18.042666
     16          1           0       12.883322   19.028332   18.227406
     17          1           0        9.507189   16.855139   15.090750
     18          1           0        9.344504   16.835885   16.775963
     19          7           0       11.706744   14.499498   15.087510
     20          6           0       12.103068   15.010351   13.774405
     21          6           0       11.035872   15.975599   13.189293
     22          8           0        9.849328   15.926765   13.565160
     23          6           0       12.292968   13.790325   12.839629
     24          6           0       12.884552   14.056929   11.441750
     25          6           0       14.284887   14.686587   11.500269
     26          6           0       12.925308   12.734285   10.659750
     27          1           0       11.498314   13.507561   15.147442
     28          1           0       13.059562   15.538978   13.866330
     29          1           0       11.315597   13.300335   12.734976
     30          1           0       12.953354   13.085267   13.363949
     31          1           0       12.215910   14.740244   10.902093
     32          1           0       14.292763   15.689247   11.944679
     33          1           0       14.970179   14.056909   12.081770
     34          1           0       14.700075   14.787979   10.492553
     35          1           0       11.930565   12.280599   10.584911
     36          1           0       13.297648   12.897773    9.643283
     37          1           0       13.591033   12.010757   11.146599
     38          7           0       11.529315   16.825526   12.285292
     39          6           0       10.878256   17.564904   11.193566
     40          6           0       11.906705   18.643219   10.735602
     41          8           0       11.456841   19.491175    9.920212
     42          6           0        9.478705   18.137239   11.459394
     43          6           0        9.298656   19.212790   12.542566
     44          6           0        9.957932   20.591071   12.305848
     45          7           0       11.302335   20.629520   12.899272
     46          6           0       12.454620   20.988088   12.385831
     47          7           0       12.615387   21.494659   11.164432
     48          7           0       13.579185   20.734791   13.238158
     49          8           0       13.055170   18.597713   11.258683
     50          1           0       12.540055   16.896970   12.169438
     51          1           0       10.764286   16.862501   10.354907
     52          1           0        8.812860   17.306385   11.707760
     53          1           0        9.150973   18.548131   10.499985
     54          1           0        8.220863   19.389272   12.637034
     55          1           0        9.625219   18.823500   13.515636
     56          1           0        9.373928   21.372531   12.804619
     57          1           0       10.011870   20.820825   11.243424
     58          1           0       11.336780   20.305893   13.869853
     59          1           0       12.038538   20.990925   10.436125
     60          1           0       13.582461   21.530996   10.860720
     61          1           0       14.285291   21.464450   13.129439
     62          1           0       13.970877   19.865186   12.846169
 ---------------------------------------------------------------------
 Rotational constants (GHZ):           0.1800548           0.1541146           0.1066483
 Standard basis: 6-31G(d) (6D, 7F)
   501 basis functions,   944 primitive gaussians,   501 cartesian basis functions
   112 alpha electrons      112 beta electrons
       nuclear repulsion energy      3317.8554467999 Hartrees.
 NAtoms=   62 NActive=   62 NUniq=   62 SFac= 1.00D+00 NAtFMM=   60 NAOKFM=T Big=T
 Integral buffers will be    131072 words long.
 Raffenetti 2 integral format.
 Two-electron integral symmetry is turned off.
 Nuclear repulsion after empirical dispersion term =     3317.7628744127 Hartrees.
 One-electron integrals computed using PRISM.
 NBasis=   501 RedAO= T EigKep=  1.60D-03  NBF=   501
 NBsUse=   501 1.00D-06 EigRej= -1.00D+00 NBFU=   501
 Initial guess from the checkpoint file:  "conf-364.chk"
 B after Tr=     0.000000    0.000000    0.000000
         Rot=    1.000000    0.000000    0.000000    0.000000 Ang=   0.00 deg.
 Requested convergence on RMS density matrix=1.00D-08 within 128 cycles.
 Requested convergence on MAX density matrix=1.00D-06.
 Requested convergence on             energy=1.00D-06.
 No special actions if energy rises.
 SCF Done:  E(RB3LYP) =  -1447.49427530     A.U. after    1 cycles
            NFock=  1  Conv=0.64D-08     -V/T= 2.0093

 **********************************************************************

            Population analysis using the SCF Density.

 **********************************************************************

 Alpha  occ. eigenvalues --  -19.33103 -19.29619 -19.24785 -19.24361 -19.19514
 Alpha  occ. eigenvalues --  -19.19217 -14.58132 -14.50793 -14.50286 -14.48950
 Alpha  occ. eigenvalues --  -14.47839 -14.47389 -10.47382 -10.45868 -10.42423
 Alpha  occ. eigenvalues --  -10.41302 -10.39855 -10.37312 -10.36186 -10.34719
 Alpha  occ. eigenvalues --  -10.34341 -10.34256 -10.32643 -10.30286 -10.30221
 Alpha  occ. eigenvalues --  -10.29009 -10.28404 -10.26767 -10.25885  -1.25089
 Alpha  occ. eigenvalues --   -1.17592  -1.16173  -1.15551  -1.14802  -1.12691
 Alpha  occ. eigenvalues --   -1.12437  -1.05586  -1.04841  -1.04586  -1.03190
 Alpha  occ. eigenvalues --   -1.01965  -0.95168  -0.91940  -0.90481  -0.88213
 Alpha  occ. eigenvalues --   -0.86769  -0.84472  -0.80358  -0.79399  -0.77516
 Alpha  occ. eigenvalues --   -0.75795  -0.74929  -0.74193  -0.73969  -0.72831
 Alpha  occ. eigenvalues --   -0.71518  -0.70759  -0.69192  -0.67275  -0.66482
 Alpha  occ. eigenvalues --   -0.66384  -0.65550  -0.64944  -0.64624  -0.63497
 Alpha  occ. eigenvalues --   -0.62543  -0.62062  -0.61417  -0.60929  -0.59929
 Alpha  occ. eigenvalues --   -0.59584  -0.59033  -0.57916  -0.56924  -0.56733
 Alpha  occ. eigenvalues --   -0.56658  -0.55180  -0.54862  -0.54101  -0.54017
 Alpha  occ. eigenvalues --   -0.53001  -0.52754  -0.52381  -0.52015  -0.51158
 Alpha  occ. eigenvalues --   -0.50817  -0.50429  -0.50301  -0.49754  -0.49616
 Alpha  occ. eigenvalues --   -0.48894  -0.48292  -0.47359  -0.47163  -0.46652
 Alpha  occ. eigenvalues --   -0.46415  -0.45944  -0.44808  -0.44148  -0.44131
 Alpha  occ. eigenvalues --   -0.43031  -0.42966  -0.42424  -0.42217  -0.39583
 Alpha  occ. eigenvalues --   -0.39169  -0.38677  -0.37754  -0.37313  -0.35063
 Alpha  occ. eigenvalues --   -0.33876  -0.33270
 Alpha virt. eigenvalues --   -0.14624  -0.13681  -0.12291  -0.11389  -0.07581
 Alpha virt. eigenvalues --   -0.06563  -0.05086  -0.04002  -0.02305  -0.01751
 Alpha virt. eigenvalues --   -0.01521  -0.00996  -0.00714  -0.00304   0.00291
 Alpha virt. eigenvalues --    0.01081   0.01245   0.01765   0.02204   0.02747
 Alpha virt. eigenvalues --    0.03534   0.03739   0.04363   0.04655   0.04815
 Alpha virt. eigenvalues --    0.05005   0.05218   0.06008   0.06266   0.06548
 Alpha virt. eigenvalues --    0.07087   0.07338   0.07538   0.08091   0.08461
 Alpha virt. eigenvalues --    0.08487   0.09257   0.09482   0.09983   0.10517
 Alpha virt. eigenvalues --    0.10868   0.11221   0.12039   0.13011   0.13434
 Alpha virt. eigenvalues --    0.13577   0.14203   0.14473   0.14774   0.15187
 Alpha virt. eigenvalues --    0.15611   0.16064   0.17131   0.17452   0.18695
 Alpha virt. eigenvalues --    0.19466   0.21187   0.22485   0.24116   0.25145
 Alpha virt. eigenvalues --    0.27492   0.28289   0.29175   0.30733   0.32353
 Alpha virt. eigenvalues --    0.35437   0.36268   0.36968   0.37217   0.37891
 Alpha virt. eigenvalues --    0.38643   0.39986   0.40662   0.41364   0.42031
 Alpha virt. eigenvalues --    0.42354   0.42561   0.42982   0.43417   0.43926
 Alpha virt. eigenvalues --    0.44044   0.45190   0.45915   0.46049   0.47174
 Alpha virt. eigenvalues --    0.47933   0.48641   0.48929   0.48983   0.50165
 Alpha virt. eigenvalues --    0.51325   0.51715   0.52080   0.52462   0.53549
 Alpha virt. eigenvalues --    0.54229   0.55116   0.55278   0.55315   0.56157
 Alpha virt. eigenvalues --    0.57936   0.58193   0.58518   0.59395   0.59987
 Alpha virt. eigenvalues --    0.60414   0.61428   0.61894   0.62395   0.63154
 Alpha virt. eigenvalues --    0.63395   0.63947   0.64611   0.65053   0.65560
 Alpha virt. eigenvalues --    0.65781   0.66569   0.67882   0.68602   0.69096
 Alpha virt. eigenvalues --    0.69568   0.69692   0.70722   0.71285   0.71334
 Alpha virt. eigenvalues --    0.72501   0.72688   0.73125   0.73723   0.75301
 Alpha virt. eigenvalues --    0.75683   0.76204   0.76638   0.76884   0.77088
 Alpha virt. eigenvalues --    0.77847   0.77994   0.78188   0.78777   0.79644
 Alpha virt. eigenvalues --    0.80160   0.80358   0.80892   0.81436   0.81583
 Alpha virt. eigenvalues --    0.82253   0.82621   0.82951   0.83337   0.83434
 Alpha virt. eigenvalues --    0.84559   0.84594   0.86145   0.87027   0.87128
 Alpha virt. eigenvalues --    0.87443   0.88156   0.89076   0.89449   0.89852
 Alpha virt. eigenvalues --    0.90309   0.91181   0.91806   0.93209   0.93646
 Alpha virt. eigenvalues --    0.94576   0.94776   0.95527   0.96412   0.98192
 Alpha virt. eigenvalues --    0.98619   0.99685   1.00861   1.01092   1.01469
 Alpha virt. eigenvalues --    1.02967   1.03952   1.04223   1.05363   1.05738
 Alpha virt. eigenvalues --    1.07598   1.08842   1.09349   1.10734   1.11982
 Alpha virt. eigenvalues --    1.12427   1.14079   1.15335   1.15988   1.16893
 Alpha virt. eigenvalues --    1.17884   1.19544   1.19749   1.22414   1.24224
 Alpha virt. eigenvalues --    1.24779   1.25553   1.26964   1.27076   1.27558
 Alpha virt. eigenvalues --    1.27940   1.29278   1.31591   1.32389   1.34522
 Alpha virt. eigenvalues --    1.35535   1.35887   1.37276   1.37775   1.39190
 Alpha virt. eigenvalues --    1.39585   1.40167   1.40950   1.43034   1.44998
 Alpha virt. eigenvalues --    1.46961   1.47558   1.48921   1.49692   1.51272
 Alpha virt. eigenvalues --    1.52463   1.53435   1.53590   1.54577   1.55503
 Alpha virt. eigenvalues --    1.56973   1.58280   1.59072   1.60157   1.60854
 Alpha virt. eigenvalues --    1.62103   1.63057   1.63878   1.64262   1.64714
 Alpha virt. eigenvalues --    1.65260   1.66357   1.67379   1.68442   1.69244
 Alpha virt. eigenvalues --    1.69505   1.70465   1.70645   1.71993   1.72248
 Alpha virt. eigenvalues --    1.72744   1.73219   1.73955   1.74141   1.75233
 Alpha virt. eigenvalues --    1.76447   1.77426   1.77666   1.78152   1.79060
 Alpha virt. eigenvalues --    1.79459   1.79890   1.81710   1.82143   1.82674
 Alpha virt. eigenvalues --    1.83765   1.84882   1.85385   1.87134   1.87898
 Alpha virt. eigenvalues --    1.88078   1.88713   1.89648   1.90546   1.90756
 Alpha virt. eigenvalues --    1.91968   1.92502   1.93314   1.94183   1.95480
 Alpha virt. eigenvalues --    1.95679   1.97472   1.97908   1.99380   1.99540
 Alpha virt. eigenvalues --    2.00144   2.00872   2.02047   2.03360   2.03757
 Alpha virt. eigenvalues --    2.05644   2.06653   2.06946   2.08923   2.09384
 Alpha virt. eigenvalues --    2.10151   2.11656   2.12043   2.14238   2.14923
 Alpha virt. eigenvalues --    2.15399   2.15942   2.17149   2.18778   2.19395
 Alpha virt. eigenvalues --    2.20371   2.21220   2.21713   2.22903   2.23531
 Alpha virt. eigenvalues --    2.23969   2.25352   2.26914   2.28103   2.28402
 Alpha virt. eigenvalues --    2.29248   2.30162   2.32311   2.33185   2.34031
 Alpha virt. eigenvalues --    2.34654   2.35559   2.35810   2.38692   2.40562
 Alpha virt. eigenvalues --    2.42415   2.42940   2.44605   2.45378   2.46847
 Alpha virt. eigenvalues --    2.49252   2.49768   2.51007   2.52291   2.52476
 Alpha virt. eigenvalues --    2.54028   2.55186   2.55403   2.55902   2.56621
 Alpha virt. eigenvalues --    2.59001   2.60108   2.61554   2.62213   2.64292
 Alpha virt. eigenvalues --    2.66065   2.66462   2.67783   2.68730   2.71384
 Alpha virt. eigenvalues --    2.74761   2.76763   2.80235   2.81784   2.85590
 Alpha virt. eigenvalues --    2.86281   2.88034   2.89899   2.91562   2.93121
 Alpha virt. eigenvalues --    2.96647   2.99569   3.02387   3.05079   3.13674
 Alpha virt. eigenvalues --    3.69703   3.72593   3.82357   3.85834   3.89632
 Alpha virt. eigenvalues --    3.93226   3.94049   3.99419   4.04931   4.06368
 Alpha virt. eigenvalues --    4.07954   4.12711   4.15614   4.16896   4.18520
 Alpha virt. eigenvalues --    4.19787   4.20188   4.23849   4.25172   4.29797
 Alpha virt. eigenvalues --    4.31895   4.37583   4.39873   4.41113   4.48097
 Alpha virt. eigenvalues --    4.49300   4.55207   4.62311   4.63016
          Condensed to atoms (all electrons):
 Mulliken charges:
               1
     1  N   -0.773774
     2  C   -0.122223
     3  C    0.624842
     4  O   -0.501974
     5  C   -0.300402
     6  C   -0.362208
     7  C    0.603546
     8  O   -0.534177
     9  O   -0.556628
    10  H    0.472141
    11  H    0.424900
    12  H    0.196448
    13  H    0.202514
    14  H    0.216536
    15  H    0.191046
    16  H    0.218885
    17  H    0.451279
    18  H    0.410321
    19  N   -0.597101
    20  C   -0.038724
    21  C    0.602200
    22  O   -0.585662
    23  C   -0.306918
    24  C   -0.094874
    25  C   -0.460749
    26  C   -0.448107
    27  H    0.363193
    28  H    0.166939
    29  H    0.170833
    30  H    0.165090
    31  H    0.144206
    32  H    0.136041
    33  H    0.154361
    34  H    0.174607
    35  H    0.155444
    36  H    0.165242
    37  H    0.154011
    38  N   -0.609229
    39  C   -0.057188
    40  C    0.625425
    41  O   -0.594610
    42  C   -0.271528
    43  C   -0.292639
    44  C   -0.161641
    45  N   -0.561545
    46  C    0.651945
    47  N   -0.688328
    48  N   -0.836866
    49  O   -0.630461
    50  H    0.370256
    51  H    0.189362
    52  H    0.173975
    53  H    0.184262
    54  H    0.171219
    55  H    0.112057
    56  H    0.185253
    57  H    0.220480
    58  H    0.412782
    59  H    0.411862
    60  H    0.355366
    61  H    0.363401
    62  H    0.395288
 Sum of Mulliken charges =   1.00000
 Mulliken charges with hydrogens summed into heavy atoms:
               1
     1  N    0.512726
     2  C    0.074225
     3  C    0.624842
     4  O   -0.501974
     5  C    0.118647
     6  C    0.047723
     7  C    0.603546
     8  O   -0.534177
     9  O   -0.084487
    19  N   -0.233908
    20  C    0.128215
    21  C    0.602200
    22  O   -0.585662
    23  C    0.029005
    24  C    0.049332
    25  C    0.004260
    26  C    0.026590
    38  N   -0.238973
    39  C    0.132174
    40  C    0.625425
    41  O   -0.594610
    42  C    0.086709
    43  C   -0.009364
    44  C    0.244092
    45  N   -0.148763
    46  C    0.651945
    47  N    0.078900
    48  N   -0.078177
    49  O   -0.630461
 Electronic spatial extent (au):  <R**2>=         511509.9508
 Charge=              1.0000 electrons
 Dipole moment (field-independent basis, Debye):
    X=             57.3517    Y=             88.1910    Z=             70.9949  Tot=            126.9139
 Quadrupole moment (field-independent basis, Debye-Ang):
   XX=            534.4909   YY=           1487.1154   ZZ=            890.4715
   XY=           1053.2144   XZ=            839.9272   YZ=           1308.2888
 Traceless Quadrupole moment (field-independent basis, Debye-Ang):
   XX=           -436.2017   YY=            516.4228   ZZ=            -80.2211
   XY=           1053.2144   XZ=            839.9272   YZ=           1308.2888
 Octapole moment (field-independent basis, Debye-Ang**2):
  XXX=           2902.1768  YYY=          22835.0349  ZZZ=           9205.2718  XYY=          17873.9803
  XXY=          10005.6484  XXZ=           7919.9919  XZZ=          10454.5675  YZZ=          16633.0854
  YYZ=          22256.9855  XYZ=          15465.4243
 Hexadecapole moment (field-independent basis, Debye-Ang**3):
 XXXX=         -27569.3011 YYYY=         300032.3623 ZZZZ=          57275.8249 XXXY=          60171.1768
 XXXZ=          46903.2838 YYYX=         278948.0685 YYYZ=         347646.3496 ZZZX=         107090.6597
 ZZZY=         178160.1844 XXYY=         169550.2631 XXZZ=          94522.9384 YYZZ=         282504.6395
 XXYZ=         148280.5325 YYXZ=         264202.7933 ZZXY=         194941.6225
 N-N= 3.317762874413D+03 E-N=-9.983539618029D+03  KE= 1.434105744987D+03
 Unable to Open any file for archive entry.
 1\1\GINC-AMR-143\SP\RB3LYP\6-31G(d)\C17H33N6O6(1+)\KENGMITH\24-May-202
 2\0\\# B3LYP/6-31G* empiricaldispersion=gd3 guess=read geom=check nosy
 mm integral(ultrafinegrid)\\Candidate Structure: Conf:364 Charge calc 
 in gas phase\\1,1\N,0,9.8843389495,17.2285186451,15.9950894265\C,0,11.
 3136625209,16.7421059383,16.0740417623\C,0,11.1685298434,15.2077570323
 ,16.1039932397\O,0,10.562800585,14.7242985492,17.0534761971\C,0,12.061
 2312641,17.2331297404,17.319340636\C,0,12.057699111,18.7674469727,17.5
 622413376\C,0,12.1564419021,19.5267897281,16.2618672269\O,0,11.1529664
 821,19.6765951969,15.5495685798\O,0,13.358439928,19.9256826729,15.9215
 551777\H,0,13.367118059,20.3251924367,14.9918662779\H,0,9.8702208587,1
 8.2619154787,15.9797636671\H,0,11.7877551185,17.1226427358,15.17037663
 39\H,0,13.0943159165,16.8877868817,17.2020507095\H,0,11.656057782,16.7
 261293621,18.1998686021\H,0,11.1232319037,19.0738573362,18.042665884\H
 ,0,12.8833221944,19.0283322636,18.2274062978\H,0,9.5071891482,16.85513
 85074,15.0907504156\H,0,9.344503639,16.8358846383,16.7759630168\N,0,11
 .706743691,14.4994975929,15.0875099603\C,0,12.1030676934,15.0103508794
 ,13.7744046871\C,0,11.0358720857,15.9755993761,13.1892930757\O,0,9.849
 3277612,15.9267648891,13.5651596775\C,0,12.292967742,13.7903245188,12.
 8396291088\C,0,12.8845516762,14.0569288364,11.4417497269\C,0,14.284887
 0615,14.6865872019,11.5002693367\C,0,12.9253077506,12.7342853675,10.65
 97498879\H,0,11.498313668,13.5075611205,15.1474423226\H,0,13.059562166
 ,15.5389782833,13.8663299563\H,0,11.3155971074,13.300335494,12.7349756
 9\H,0,12.9533535103,13.0852671673,13.363949189\H,0,12.2159098058,14.74
 02444707,10.9020929524\H,0,14.292762804,15.6892466761,11.9446792671\H,
 0,14.9701787833,14.0569087459,12.0817700512\H,0,14.7000746857,14.78797
 85043,10.4925533976\H,0,11.9305649323,12.2805986305,10.5849107762\H,0,
 13.2976479357,12.897772806,9.6432827829\H,0,13.5910325295,12.010756974
 6,11.1465992943\N,0,11.5293148052,16.8255259213,12.2852918681\C,0,10.8
 782559225,17.5649035753,11.1935659241\C,0,11.9067045679,18.6432187058,
 10.7356016679\O,0,11.4568413482,19.4911749297,9.9202117757\C,0,9.47870
 5169,18.1372392062,11.4593938783\C,0,9.298656067,19.2127898767,12.5425
 66213\C,0,9.9579317942,20.5910705437,12.3058480087\N,0,11.302335027,20
 .6295203303,12.8992723491\C,0,12.4546199341,20.9880881788,12.385830896
 2\N,0,12.6153866668,21.494659337,11.1644322787\N,0,13.5791846251,20.73
 47909502,13.2381579074\O,0,13.0551704781,18.5977132809,11.2586829286\H
 ,0,12.5400547607,16.8969699699,12.1694378232\H,0,10.7642857785,16.8625
 014363,10.3549071684\H,0,8.8128595774,17.3063853866,11.7077598378\H,0,
 9.1509732586,18.5481310436,10.4999851085\H,0,8.2208630319,19.389272325
 ,12.6370336495\H,0,9.6252185322,18.8235004753,13.5156359665\H,0,9.3739
 280201,21.372530944,12.8046187481\H,0,10.011870406,20.820825383,11.243
 4237251\H,0,11.3367804692,20.305893276,13.869852824\H,0,12.0385379561,
 20.9909245823,10.436124818\H,0,13.5824607419,21.5309962298,10.86072001
 45\H,0,14.2852910711,21.464449955,13.1294389601\H,0,13.9708772355,19.8
 651858259,12.8461691916\\Version=ES64L-G16RevC.01\HF=-1447.4942753\RMS
 D=6.431e-09\Dipole=0.4790105,1.546803,2.4614031\Quadrupole=-324.305251
 6,383.947698,-59.6424464,783.0390681,624.4653033,972.680677\PG=C01 [X(
 C17H33N6O6)]\\@
 The archive entry for this job was punched.


 THERE IS NOTHING NOBLE IN BEING SUPERIOR TO SOME OTHER MAN.
 TRUE NOBILITY IS BEING SUPERIOR TO YOUR FORMER SELF.

                                                   -- HINDU PROVERB
 Job cpu time:       0 days  0 hours  1 minutes  6.8 seconds.
 Elapsed time:       0 days  0 hours  0 minutes 17.0 seconds.
 File lengths (MBytes):  RWF=    248 Int=      0 D2E=      0 Chk=     32 Scr=     16
 Normal termination of Gaussian 16 at Tue May 24 03:32:27 2022.
