 Entering Gaussian System, Link 0=/opt/software/Gaussian/g16-AVX2-C.01/g16/g16
 Input=charge-conf-807.com
 Output=charge-conf-807.log
 Initial command:
 /opt/software/Gaussian/g16-AVX2-C.01/g16/l1.exe "/mnt/gs18/scratch/users/kengmith/Gau-116283.inp" -scrdir="/mnt/gs18/scratch/users/kengmith/"
 Entering Link 1 = /opt/software/Gaussian/g16-AVX2-C.01/g16/l1.exe PID=    116293.
  
 Copyright (c) 1988-2019, Gaussian, Inc.  All Rights Reserved.
  
 This is part of the Gaussian(R) 16 program.  It is based on
 the Gaussian(R) 09 system (copyright 2009, Gaussian, Inc.),
 the Gaussian(R) 03 system (copyright 2003, Gaussian, Inc.),
 the Gaussian(R) 98 system (copyright 1998, Gaussian, Inc.),
 the Gaussian(R) 94 system (copyright 1995, Gaussian, Inc.),
 the Gaussian 92(TM) system (copyright 1992, Gaussian, Inc.),
 the Gaussian 90(TM) system (copyright 1990, Gaussian, Inc.),
 the Gaussian 88(TM) system (copyright 1988, Gaussian, Inc.),
 the Gaussian 86(TM) system (copyright 1986, Carnegie Mellon
 University), and the Gaussian 82(TM) system (copyright 1983,
 Carnegie Mellon University). Gaussian is a federally registered
 trademark of Gaussian, Inc.
  
 This software contains proprietary and confidential information,
 including trade secrets, belonging to Gaussian, Inc.
  
 This software is provided under written license and may be
 used, copied, transmitted, or stored only in accord with that
 written license.
  
 The following legend is applicable only to US Government
 contracts under FAR:
  
                    RESTRICTED RIGHTS LEGEND
  
 Use, reproduction and disclosure by the US Government is
 subject to restrictions as set forth in subparagraphs (a)
 and (c) of the Commercial Computer Software - Restricted
 Rights clause in FAR 52.227-19.
  
 Gaussian, Inc.
 340 Quinnipiac St., Bldg. 40, Wallingford CT 06492
  
  
 ---------------------------------------------------------------
 Warning -- This program may not be used in any manner that
 competes with the business of Gaussian, Inc. or will provide
 assistance to any competitor of Gaussian, Inc.  The licensee
 of this program is prohibited from giving any competitor of
 Gaussian, Inc. access to this program.  By using this program,
 the user acknowledges that Gaussian, Inc. is engaged in the
 business of creating and licensing software in the field of
 computational chemistry and represents and warrants to the
 licensee that it is not a competitor of Gaussian, Inc. and that
 it will not use this program in any manner prohibited above.
 ---------------------------------------------------------------
  

 Cite this work as:
 Gaussian 16, Revision C.01,
 M. J. Frisch, G. W. Trucks, H. B. Schlegel, G. E. Scuseria, 
 M. A. Robb, J. R. Cheeseman, G. Scalmani, V. Barone, 
 G. A. Petersson, H. Nakatsuji, X. Li, M. Caricato, A. V. Marenich, 
 J. Bloino, B. G. Janesko, R. Gomperts, B. Mennucci, H. P. Hratchian, 
 J. V. Ortiz, A. F. Izmaylov, J. L. Sonnenberg, D. Williams-Young, 
 F. Ding, F. Lipparini, F. Egidi, J. Goings, B. Peng, A. Petrone, 
 T. Henderson, D. Ranasinghe, V. G. Zakrzewski, J. Gao, N. Rega, 
 G. Zheng, W. Liang, M. Hada, M. Ehara, K. Toyota, R. Fukuda, 
 J. Hasegawa, M. Ishida, T. Nakajima, Y. Honda, O. Kitao, H. Nakai, 
 T. Vreven, K. Throssell, J. A. Montgomery, Jr., J. E. Peralta, 
 F. Ogliaro, M. J. Bearpark, J. J. Heyd, E. N. Brothers, K. N. Kudin, 
 V. N. Staroverov, T. A. Keith, R. Kobayashi, J. Normand, 
 K. Raghavachari, A. P. Rendell, J. C. Burant, S. S. Iyengar, 
 J. Tomasi, M. Cossi, J. M. Millam, M. Klene, C. Adamo, R. Cammi, 
 J. W. Ochterski, R. L. Martin, K. Morokuma, O. Farkas, 
 J. B. Foresman, and D. J. Fox, Gaussian, Inc., Wallingford CT, 2019.
 
 ******************************************
 Gaussian 16:  ES64L-G16RevC.01  3-Jul-2019
                24-May-2022 
 ******************************************
 %mem=8gb
 %nproc=4
 Will use up to    4 processors via shared memory.
 %chk=conf-807.chk
 ----------------------------------------------------------------------
 # B3LYP/6-31G* empiricaldispersion=gd3 guess=read geom=check nosymm in
 tegral(ultrafinegrid)
 ----------------------------------------------------------------------
 1/29=2,38=1,172=1/1;
 2/12=2,15=1,40=1/2;
 3/5=1,6=6,7=1,11=2,14=-4,25=1,30=1,74=-5,75=-5,116=-2,124=31/1,2,3;
 4/5=1/1;
 5/5=2,38=6/2;
 6/7=2,8=2,9=2,10=2,28=1/1;
 99/5=1,9=1/99;
 ------------------------------------------------------
 Candidate Structure: Conf:807 Charge calc in gas phase
 ------------------------------------------------------
 Structure from the checkpoint file:  "conf-807.chk"
 Charge =  1 Multiplicity = 1
 Redundant internal coordinates found in file.  (old form).
 N,0,9.5405467607,19.6461281101,12.5273325858
 C,0,9.5229695985,18.3457012756,11.7606446344
 C,0,10.1549778627,18.7159437715,10.3996268736
 O,0,9.5400423788,19.5172330697,9.7049348091
 C,0,8.1141164046,17.7849646467,11.5298459647
 C,0,7.212639246,17.6102466384,12.7817558202
 C,0,7.9874868396,17.0502887279,13.9564366803
 O,0,8.7842796637,17.7417242544,14.5701037166
 O,0,7.863314791,15.7580427178,14.2927150372
 H,0,7.177339419,15.3057416799,13.7711931634
 H,0,9.0500376868,20.3721363851,11.9912450961
 H,0,10.1258137732,17.6598755514,12.3545505045
 H,0,8.2525905155,16.8145618352,11.0395171296
 H,0,7.5951346493,18.426132422,10.8114508037
 H,0,6.8207598792,18.5796658002,13.1064040213
 H,0,6.3489185396,16.9933996149,12.5141171661
 H,0,9.141216588,19.518225809,13.466160771
 H,0,10.5665687572,19.9060610488,12.6028664121
 N,0,11.3233326031,18.1296338448,10.0616636523
 C,0,12.2938003775,17.5176993934,10.9754584149
 C,0,12.4988637631,18.3852455868,12.2467453789
 O,0,12.2038936761,19.6023576891,12.2428380726
 C,0,13.6250141293,17.3620222468,10.1995006392
 C,0,14.7520201233,16.562071295,10.8821500464
 C,0,14.3432064191,15.1162130479,11.2028294026
 C,0,15.9912817724,16.5807816085,9.9730453435
 H,0,11.6952668338,18.4887727918,9.1873306683
 H,0,11.9375263108,16.5232396642,11.268642169
 H,0,13.9869275291,18.3708654747,9.9587918074
 H,0,13.3834911525,16.8696993545,9.2467250926
 H,0,15.0213329213,17.0630390546,11.8204477918
 H,0,14.0015803438,14.5986892645,10.2969947855
 H,0,15.1968617995,14.5607943654,11.6035174397
 H,0,13.5500596237,15.0474110023,11.9561012499
 H,0,15.7875561447,16.0763847077,9.0200656122
 H,0,16.3126954943,17.604843815,9.7511402744
 H,0,16.828042961,16.0623163618,10.4520785874
 N,0,12.9915086807,17.7162085839,13.2796508723
 C,0,13.6748462121,18.1853269754,14.4927138587
 C,0,13.8143242898,16.904956273,15.3801923551
 O,0,14.1653698168,17.1215989063,16.5732869209
 C,0,13.057415894,19.3787193723,15.2299117089
 C,0,11.6214387321,19.2475600127,15.7600256918
 C,0,11.3691042713,18.2607318024,16.9214697721
 N,0,10.9414365831,16.9432078848,16.4295888127
 C,0,11.2881483439,15.7344834443,16.879547702
 N,0,12.3461550425,15.5510323908,17.6693674443
 N,0,10.4848818912,14.6831003564,16.5596216417
 O,0,13.5164033828,15.811362856,14.8430883748
 H,0,13.0855845982,16.692093424,13.258071285
 H,0,14.6896070656,18.4879182149,14.1976058927
 H,0,13.0911248987,20.2465798413,14.5645407855
 H,0,13.7284629725,19.5796414579,16.070209025
 H,0,11.3204813076,20.241413946,16.1134547702
 H,0,10.9417061271,19.0013523034,14.9344279297
 H,0,10.5667061614,18.6471974634,17.5623918214
 H,0,12.2664989574,18.1459029804,17.5259662866
 H,0,10.1671527486,16.9816557461,15.7744810973
 H,0,13.2068927103,16.1200667052,17.423368945
 H,0,12.5237796242,14.6012003445,17.9694206723
 H,0,10.921167299,13.7794614855,16.4367028369
 H,0,9.6589913173,14.8474131516,15.9986399386
 Recover connectivity data from disk.
                           ----------------------------
                           !    Current Parameters    !
                           ! (Angstroms and Degrees)  !
 --------------------------                            --------------------------
 ! Name  Definition              Value                                          !
 --------------------------------------------------------------------------------
 ! R1    R(1,2)                  1.5097                                         !
 ! R2    R(1,11)                 1.0272                                         !
 ! R3    R(1,17)                 1.0282                                         !
 ! R4    R(1,18)                 1.0611                                         !
 ! R5    R(2,3)                  1.5456                                         !
 ! R6    R(2,5)                  1.5338                                         !
 ! R7    R(2,12)                 1.0893                                         !
 ! R8    R(3,4)                  1.2259                                         !
 ! R9    R(3,19)                 1.3502                                         !
 ! R10   R(5,6)                  1.5526                                         !
 ! R11   R(5,13)                 1.096                                          !
 ! R12   R(5,14)                 1.0939                                         !
 ! R13   R(6,7)                  1.5145                                         !
 ! R14   R(6,15)                 1.0949                                         !
 ! R15   R(6,16)                 1.0946                                         !
 ! R16   R(7,8)                  1.2205                                         !
 ! R17   R(7,9)                  1.341                                          !
 ! R18   R(9,10)                 0.9732                                         !
 ! R19   R(19,20)                1.4667                                         !
 ! R20   R(19,27)                1.0158                                         !
 ! R21   R(20,21)                1.5527                                         !
 ! R22   R(20,23)                1.5487                                         !
 ! R23   R(20,28)                1.0963                                         !
 ! R24   R(21,22)                1.2524                                         !
 ! R25   R(21,38)                1.3256                                         !
 ! R26   R(23,24)                1.5415                                         !
 ! R27   R(23,29)                1.0985                                         !
 ! R28   R(23,30)                1.0993                                         !
 ! R29   R(24,25)                1.5364                                         !
 ! R30   R(24,26)                1.5371                                         !
 ! R31   R(24,31)                1.0972                                         !
 ! R32   R(25,32)                1.0978                                         !
 ! R33   R(25,33)                1.0944                                         !
 ! R34   R(25,34)                1.096                                          !
 ! R35   R(26,35)                1.0973                                         !
 ! R36   R(26,36)                1.096                                          !
 ! R37   R(26,37)                1.0947                                         !
 ! R38   R(38,39)                1.4692                                         !
 ! R39   R(38,50)                1.0287                                         !
 ! R40   R(39,40)                1.5641                                         !
 ! R41   R(39,42)                1.5326                                         !
 ! R42   R(39,51)                1.0993                                         !
 ! R43   R(40,41)                1.2624                                         !
 ! R44   R(40,49)                1.2543                                         !
 ! R45   R(42,43)                1.5363                                         !
 ! R46   R(42,52)                1.0941                                         !
 ! R47   R(42,53)                1.094                                          !
 ! R48   R(43,44)                1.5448                                         !
 ! R49   R(43,54)                1.0969                                         !
 ! R50   R(43,55)                1.0974                                         !
 ! R51   R(44,45)                1.4699                                         !
 ! R52   R(44,56)                1.0973                                         !
 ! R53   R(44,57)                1.0881                                         !
 ! R54   R(45,46)                1.3355                                         !
 ! R55   R(45,58)                1.015                                          !
 ! R56   R(46,47)                1.333                                          !
 ! R57   R(46,48)                1.3612                                         !
 ! R58   R(47,59)                1.0607                                         !
 ! R59   R(47,60)                1.0118                                         !
 ! R60   R(48,61)                1.0109                                         !
 ! R61   R(48,62)                1.0118                                         !
 ! A1    A(2,1,11)             109.7684                                         !
 ! A2    A(2,1,17)             110.6109                                         !
 ! A3    A(2,1,18)             104.9756                                         !
 ! A4    A(11,1,17)            112.2716                                         !
 ! A5    A(11,1,18)            109.0109                                         !
 ! A6    A(17,1,18)            109.9379                                         !
 ! A7    A(1,2,3)              103.6558                                         !
 ! A8    A(1,2,5)              113.7043                                         !
 ! A9    A(1,2,12)             105.0111                                         !
 ! A10   A(3,2,5)              109.3092                                         !
 ! A11   A(3,2,12)             113.8684                                         !
 ! A12   A(5,2,12)             111.1136                                         !
 ! A13   A(2,3,4)              116.7736                                         !
 ! A14   A(2,3,19)             118.0492                                         !
 ! A15   A(4,3,19)             125.1737                                         !
 ! A16   A(2,5,6)              116.9454                                         !
 ! A17   A(2,5,13)             105.9591                                         !
 ! A18   A(2,5,14)             108.6832                                         !
 ! A19   A(6,5,13)             109.5395                                         !
 ! A20   A(6,5,14)             108.666                                          !
 ! A21   A(13,5,14)            106.5648                                         !
 ! A22   A(5,6,7)              111.7129                                         !
 ! A23   A(5,6,15)             110.321                                          !
 ! A24   A(5,6,16)             108.9307                                         !
 ! A25   A(7,6,15)             106.2898                                         !
 ! A26   A(7,6,16)             112.6429                                         !
 ! A27   A(15,6,16)            106.8005                                         !
 ! A28   A(6,7,8)              120.9661                                         !
 ! A29   A(6,7,9)              120.2243                                         !
 ! A30   A(8,7,9)              118.7038                                         !
 ! A31   A(7,9,10)             112.2552                                         !
 ! A32   A(3,19,20)            126.7103                                         !
 ! A33   A(3,19,27)            112.2576                                         !
 ! A34   A(20,19,27)           116.2002                                         !
 ! A35   A(19,20,21)           111.3692                                         !
 ! A36   A(19,20,23)           107.3688                                         !
 ! A37   A(19,20,28)           109.2717                                         !
 ! A38   A(21,20,23)           110.6631                                         !
 ! A39   A(21,20,28)           109.3171                                         !
 ! A40   A(23,20,28)           108.7933                                         !
 ! A41   A(20,21,22)           120.6207                                         !
 ! A42   A(20,21,38)           113.8952                                         !
 ! A43   A(22,21,38)           125.4836                                         !
 ! A44   A(20,23,24)           117.3055                                         !
 ! A45   A(20,23,29)           107.4978                                         !
 ! A46   A(20,23,30)           106.8829                                         !
 ! A47   A(24,23,29)           109.4368                                         !
 ! A48   A(24,23,30)           108.1826                                         !
 ! A49   A(29,23,30)           107.0834                                         !
 ! A50   A(23,24,25)           112.7227                                         !
 ! A51   A(23,24,26)           108.7371                                         !
 ! A52   A(23,24,31)           108.7371                                         !
 ! A53   A(25,24,26)           110.453                                          !
 ! A54   A(25,24,31)           108.4511                                         !
 ! A55   A(26,24,31)           107.5978                                         !
 ! A56   A(24,25,32)           110.7466                                         !
 ! A57   A(24,25,33)           110.2711                                         !
 ! A58   A(24,25,34)           113.2715                                         !
 ! A59   A(32,25,33)           107.7939                                         !
 ! A60   A(32,25,34)           108.1993                                         !
 ! A61   A(33,25,34)           106.3186                                         !
 ! A62   A(24,26,35)           111.0004                                         !
 ! A63   A(24,26,36)           111.5652                                         !
 ! A64   A(24,26,37)           110.5903                                         !
 ! A65   A(35,26,36)           107.9448                                         !
 ! A66   A(35,26,37)           107.7121                                         !
 ! A67   A(36,26,37)           107.8755                                         !
 ! A68   A(21,38,39)           130.924                                          !
 ! A69   A(21,38,50)           121.3404                                         !
 ! A70   A(39,38,50)           107.0184                                         !
 ! A71   A(38,39,40)           104.3935                                         !
 ! A72   A(38,39,42)           117.2845                                         !
 ! A73   A(38,39,51)           107.1929                                         !
 ! A74   A(40,39,42)           113.6042                                         !
 ! A75   A(40,39,51)           107.1778                                         !
 ! A76   A(42,39,51)           106.6595                                         !
 ! A77   A(39,40,41)           114.8707                                         !
 ! A78   A(39,40,49)           116.7166                                         !
 ! A79   A(41,40,49)           128.3449                                         !
 ! A80   A(39,42,43)           118.4279                                         !
 ! A81   A(39,42,52)           108.2234                                         !
 ! A82   A(39,42,53)           105.3887                                         !
 ! A83   A(43,42,52)           107.8402                                         !
 ! A84   A(43,42,53)           108.9038                                         !
 ! A85   A(52,42,53)           107.6105                                         !
 ! A86   A(42,43,44)           117.8162                                         !
 ! A87   A(42,43,54)           106.8743                                         !
 ! A88   A(42,43,55)           109.7864                                         !
 ! A89   A(44,43,54)           106.961                                          !
 ! A90   A(44,43,55)           108.7313                                         !
 ! A91   A(54,43,55)           106.0057                                         !
 ! A92   A(43,44,45)           111.6234                                         !
 ! A93   A(43,44,56)           109.4881                                         !
 ! A94   A(43,44,57)           110.5111                                         !
 ! A95   A(45,44,56)           107.361                                          !
 ! A96   A(45,44,57)           109.3459                                         !
 ! A97   A(56,44,57)           108.4078                                         !
 ! A98   A(44,45,46)           128.5305                                         !
 ! A99   A(44,45,58)           113.8273                                         !
 ! A100  A(46,45,58)           116.7298                                         !
 ! A101  A(45,46,47)           122.0211                                         !
 ! A102  A(45,46,48)           117.8171                                         !
 ! A103  A(47,46,48)           120.0878                                         !
 ! A104  A(46,47,59)           115.6463                                         !
 ! A105  A(46,47,60)           116.3749                                         !
 ! A106  A(59,47,60)           115.4618                                         !
 ! A107  A(46,48,61)           117.6647                                         !
 ! A108  A(46,48,62)           119.1131                                         !
 ! A109  A(61,48,62)           115.4675                                         !
 ! D1    D(11,1,2,3)            55.8403                                         !
 ! D2    D(11,1,2,5)           -62.7349                                         !
 ! D3    D(11,1,2,12)          175.5939                                         !
 ! D4    D(17,1,2,3)          -179.7269                                         !
 ! D5    D(17,1,2,5)            61.6978                                         !
 ! D6    D(17,1,2,12)          -59.9734                                         !
 ! D7    D(18,1,2,3)           -61.1896                                         !
 ! D8    D(18,1,2,5)          -179.7648                                         !
 ! D9    D(18,1,2,12)           58.564                                          !
 ! D10   D(1,2,3,4)            -64.3344                                         !
 ! D11   D(1,2,3,19)           116.3068                                         !
 ! D12   D(5,2,3,4)             57.2328                                         !
 ! D13   D(5,2,3,19)          -122.126                                          !
 ! D14   D(12,2,3,4)          -177.8482                                         !
 ! D15   D(12,2,3,19)            2.793                                          !
 ! D16   D(1,2,5,6)            -53.2852                                         !
 ! D17   D(1,2,5,13)          -175.6695                                         !
 ! D18   D(1,2,5,14)            70.1429                                         !
 ! D19   D(3,2,5,6)           -168.5655                                         !
 ! D20   D(3,2,5,13)            69.0502                                         !
 ! D21   D(3,2,5,14)           -45.1374                                         !
 ! D22   D(12,2,5,6)            64.9287                                         !
 ! D23   D(12,2,5,13)          -57.4555                                         !
 ! D24   D(12,2,5,14)         -171.6432                                         !
 ! D25   D(2,3,19,20)          -21.3206                                         !
 ! D26   D(2,3,19,27)         -175.5111                                         !
 ! D27   D(4,3,19,20)          159.3797                                         !
 ! D28   D(4,3,19,27)            5.1892                                         !
 ! D29   D(2,5,6,7)            -41.6213                                         !
 ! D30   D(2,5,6,15)            76.3755                                         !
 ! D31   D(2,5,6,16)          -166.6971                                         !
 ! D32   D(13,5,6,7)            78.8884                                         !
 ! D33   D(13,5,6,15)         -163.1148                                         !
 ! D34   D(13,5,6,16)          -46.1874                                         !
 ! D35   D(14,5,6,7)          -165.0582                                         !
 ! D36   D(14,5,6,15)          -47.0614                                         !
 ! D37   D(14,5,6,16)           69.866                                          !
 ! D38   D(5,6,7,8)             73.3887                                         !
 ! D39   D(5,6,7,9)           -102.8235                                         !
 ! D40   D(15,6,7,8)           -46.9959                                         !
 ! D41   D(15,6,7,9)           136.7919                                         !
 ! D42   D(16,6,7,8)          -163.6226                                         !
 ! D43   D(16,6,7,9)            20.1651                                         !
 ! D44   D(6,7,9,10)            -6.168                                          !
 ! D45   D(8,7,9,10)           177.5348                                         !
 ! D46   D(3,19,20,21)         -42.4228                                         !
 ! D47   D(3,19,20,23)        -163.7155                                         !
 ! D48   D(3,19,20,28)          78.4482                                         !
 ! D49   D(27,19,20,21)        110.8925                                         !
 ! D50   D(27,19,20,23)        -10.4002                                         !
 ! D51   D(27,19,20,28)       -128.2364                                         !
 ! D52   D(19,20,21,22)        -20.8631                                         !
 ! D53   D(19,20,21,38)        158.896                                          !
 ! D54   D(23,20,21,22)         98.488                                          !
 ! D55   D(23,20,21,38)        -81.7529                                         !
 ! D56   D(28,20,21,22)       -141.7076                                         !
 ! D57   D(28,20,21,38)         38.0515                                         !
 ! D58   D(19,20,23,24)       -171.7309                                         !
 ! D59   D(19,20,23,29)         64.5295                                         !
 ! D60   D(19,20,23,30)        -50.1516                                         !
 ! D61   D(21,20,23,24)         66.534                                          !
 ! D62   D(21,20,23,29)        -57.2056                                         !
 ! D63   D(21,20,23,30)       -171.8867                                         !
 ! D64   D(28,20,23,24)        -53.5841                                         !
 ! D65   D(28,20,23,29)       -177.3238                                         !
 ! D66   D(28,20,23,30)         67.9951                                         !
 ! D67   D(20,21,38,39)        160.3319                                         !
 ! D68   D(20,21,38,50)         -8.6263                                         !
 ! D69   D(22,21,38,39)        -19.9227                                         !
 ! D70   D(22,21,38,50)        171.1191                                         !
 ! D71   D(20,23,24,25)         59.5069                                         !
 ! D72   D(20,23,24,26)       -177.6668                                         !
 ! D73   D(20,23,24,31)        -60.7833                                         !
 ! D74   D(29,23,24,25)       -177.7414                                         !
 ! D75   D(29,23,24,26)        -54.9151                                         !
 ! D76   D(29,23,24,31)         61.9684                                         !
 ! D77   D(30,23,24,25)        -61.3954                                         !
 ! D78   D(30,23,24,26)         61.4308                                         !
 ! D79   D(30,23,24,31)        178.3143                                         !
 ! D80   D(23,24,25,32)         55.7758                                         !
 ! D81   D(23,24,25,33)        175.0024                                         !
 ! D82   D(23,24,25,34)        -65.9915                                         !
 ! D83   D(26,24,25,32)        -66.0858                                         !
 ! D84   D(26,24,25,33)         53.1408                                         !
 ! D85   D(26,24,25,34)        172.1468                                         !
 ! D86   D(31,24,25,32)        176.2302                                         !
 ! D87   D(31,24,25,33)        -64.5432                                         !
 ! D88   D(31,24,25,34)         54.4628                                         !
 ! D89   D(23,24,26,35)        -63.3232                                         !
 ! D90   D(23,24,26,36)         57.1129                                         !
 ! D91   D(23,24,26,37)        177.1828                                         !
 ! D92   D(25,24,26,35)         60.8598                                         !
 ! D93   D(25,24,26,36)       -178.704                                          !
 ! D94   D(25,24,26,37)        -58.6341                                         !
 ! D95   D(31,24,26,35)        179.0673                                         !
 ! D96   D(31,24,26,36)        -60.4966                                         !
 ! D97   D(31,24,26,37)         59.5733                                         !
 ! D98   D(21,38,39,40)        172.4868                                         !
 ! D99   D(21,38,39,42)         45.7948                                         !
 ! D100  D(21,38,39,51)        -74.0239                                         !
 ! D101  D(50,38,39,40)        -17.3633                                         !
 ! D102  D(50,38,39,42)       -144.0554                                         !
 ! D103  D(50,38,39,51)         96.126                                          !
 ! D104  D(38,39,40,41)       -168.1092                                         !
 ! D105  D(38,39,40,49)          9.1484                                         !
 ! D106  D(42,39,40,41)        -39.1609                                         !
 ! D107  D(42,39,40,49)        138.0967                                         !
 ! D108  D(51,39,40,41)         78.3907                                         !
 ! D109  D(51,39,40,49)       -104.3516                                         !
 ! D110  D(38,39,42,43)         59.6156                                         !
 ! D111  D(38,39,42,52)        -63.4084                                         !
 ! D112  D(38,39,42,53)       -178.3049                                         !
 ! D113  D(40,39,42,43)        -62.4322                                         !
 ! D114  D(40,39,42,52)        174.5438                                         !
 ! D115  D(40,39,42,53)         59.6472                                         !
 ! D116  D(51,39,42,43)        179.7159                                         !
 ! D117  D(51,39,42,52)         56.6919                                         !
 ! D118  D(51,39,42,53)        -58.2047                                         !
 ! D119  D(39,42,43,44)         67.9409                                         !
 ! D120  D(39,42,43,54)       -171.7468                                         !
 ! D121  D(39,42,43,55)        -57.2058                                         !
 ! D122  D(52,42,43,44)       -168.8439                                         !
 ! D123  D(52,42,43,54)        -48.5316                                         !
 ! D124  D(52,42,43,55)         66.0094                                         !
 ! D125  D(53,42,43,44)        -52.3463                                         !
 ! D126  D(53,42,43,54)         67.966                                          !
 ! D127  D(53,42,43,55)       -177.493                                          !
 ! D128  D(42,43,44,45)        -94.2575                                         !
 ! D129  D(42,43,44,56)        147.0071                                         !
 ! D130  D(42,43,44,57)         27.6644                                         !
 ! D131  D(54,43,44,45)        145.4753                                         !
 ! D132  D(54,43,44,56)         26.7399                                         !
 ! D133  D(54,43,44,57)        -92.6028                                         !
 ! D134  D(55,43,44,45)         31.4078                                         !
 ! D135  D(55,43,44,56)        -87.3276                                         !
 ! D136  D(55,43,44,57)        153.3297                                         !
 ! D137  D(43,44,45,46)        140.2946                                         !
 ! D138  D(43,44,45,58)        -51.1249                                         !
 ! D139  D(56,44,45,46)        -99.7105                                         !
 ! D140  D(56,44,45,58)         68.87                                           !
 ! D141  D(57,44,45,46)         17.7033                                         !
 ! D142  D(57,44,45,58)       -173.7162                                         !
 ! D143  D(44,45,46,47)        -16.4396                                         !
 ! D144  D(44,45,46,48)        160.4326                                         !
 ! D145  D(58,45,46,47)        175.2603                                         !
 ! D146  D(58,45,46,48)         -7.8675                                         !
 ! D147  D(45,46,47,59)        -40.3521                                         !
 ! D148  D(45,46,47,60)        179.2609                                         !
 ! D149  D(48,46,47,59)        142.8452                                         !
 ! D150  D(48,46,47,60)          2.4582                                         !
 ! D151  D(45,46,48,61)        147.8726                                         !
 ! D152  D(45,46,48,62)         -0.084                                          !
 ! D153  D(47,46,48,61)        -35.1923                                         !
 ! D154  D(47,46,48,62)        176.8512                                         !
 --------------------------------------------------------------------------------
 Symmetry turned off by external request.
 Stoichiometry    C17H33N6O6(1+)
 Framework group  C1[X(C17H33N6O6)]
 Deg. of freedom   180
 Full point group                 C1      NOp   1
                          Input orientation:                          
 ---------------------------------------------------------------------
 Center     Atomic      Atomic             Coordinates (Angstroms)
 Number     Number       Type             X           Y           Z
 ---------------------------------------------------------------------
      1          7           0        9.540547   19.646128   12.527333
      2          6           0        9.522970   18.345701   11.760645
      3          6           0       10.154978   18.715944   10.399627
      4          8           0        9.540042   19.517233    9.704935
      5          6           0        8.114116   17.784965   11.529846
      6          6           0        7.212639   17.610247   12.781756
      7          6           0        7.987487   17.050289   13.956437
      8          8           0        8.784280   17.741724   14.570104
      9          8           0        7.863315   15.758043   14.292715
     10          1           0        7.177339   15.305742   13.771193
     11          1           0        9.050038   20.372136   11.991245
     12          1           0       10.125814   17.659876   12.354551
     13          1           0        8.252591   16.814562   11.039517
     14          1           0        7.595135   18.426132   10.811451
     15          1           0        6.820760   18.579666   13.106404
     16          1           0        6.348919   16.993400   12.514117
     17          1           0        9.141217   19.518226   13.466161
     18          1           0       10.566569   19.906061   12.602866
     19          7           0       11.323333   18.129634   10.061664
     20          6           0       12.293800   17.517699   10.975458
     21          6           0       12.498864   18.385246   12.246745
     22          8           0       12.203894   19.602358   12.242838
     23          6           0       13.625014   17.362022   10.199501
     24          6           0       14.752020   16.562071   10.882150
     25          6           0       14.343206   15.116213   11.202829
     26          6           0       15.991282   16.580782    9.973045
     27          1           0       11.695267   18.488773    9.187331
     28          1           0       11.937526   16.523240   11.268642
     29          1           0       13.986928   18.370865    9.958792
     30          1           0       13.383491   16.869699    9.246725
     31          1           0       15.021333   17.063039   11.820448
     32          1           0       14.001580   14.598689   10.296995
     33          1           0       15.196862   14.560794   11.603517
     34          1           0       13.550060   15.047411   11.956101
     35          1           0       15.787556   16.076385    9.020066
     36          1           0       16.312695   17.604844    9.751140
     37          1           0       16.828043   16.062316   10.452079
     38          7           0       12.991509   17.716209   13.279651
     39          6           0       13.674846   18.185327   14.492714
     40          6           0       13.814324   16.904956   15.380192
     41          8           0       14.165370   17.121599   16.573287
     42          6           0       13.057416   19.378719   15.229912
     43          6           0       11.621439   19.247560   15.760026
     44          6           0       11.369104   18.260732   16.921470
     45          7           0       10.941437   16.943208   16.429589
     46          6           0       11.288148   15.734483   16.879548
     47          7           0       12.346155   15.551032   17.669367
     48          7           0       10.484882   14.683100   16.559622
     49          8           0       13.516403   15.811363   14.843088
     50          1           0       13.085585   16.692093   13.258071
     51          1           0       14.689607   18.487918   14.197606
     52          1           0       13.091125   20.246580   14.564541
     53          1           0       13.728463   19.579641   16.070209
     54          1           0       11.320481   20.241414   16.113455
     55          1           0       10.941706   19.001352   14.934428
     56          1           0       10.566706   18.647197   17.562392
     57          1           0       12.266499   18.145903   17.525966
     58          1           0       10.167153   16.981656   15.774481
     59          1           0       13.206893   16.120067   17.423369
     60          1           0       12.523780   14.601200   17.969421
     61          1           0       10.921167   13.779461   16.436703
     62          1           0        9.658991   14.847413   15.998640
 ---------------------------------------------------------------------
 Rotational constants (GHZ):           0.1715138           0.1512178           0.1030005
 Standard basis: 6-31G(d) (6D, 7F)
   501 basis functions,   944 primitive gaussians,   501 cartesian basis functions
   112 alpha electrons      112 beta electrons
       nuclear repulsion energy      3278.5076926244 Hartrees.
 NAtoms=   62 NActive=   62 NUniq=   62 SFac= 1.00D+00 NAtFMM=   60 NAOKFM=T Big=T
 Integral buffers will be    131072 words long.
 Raffenetti 2 integral format.
 Two-electron integral symmetry is turned off.
 Nuclear repulsion after empirical dispersion term =     3278.4184385701 Hartrees.
 One-electron integrals computed using PRISM.
 NBasis=   501 RedAO= T EigKep=  1.59D-03  NBF=   501
 NBsUse=   501 1.00D-06 EigRej= -1.00D+00 NBFU=   501
 Initial guess from the checkpoint file:  "conf-807.chk"
 B after Tr=     0.000000    0.000000    0.000000
         Rot=    1.000000    0.000000    0.000000    0.000000 Ang=   0.00 deg.
 Requested convergence on RMS density matrix=1.00D-08 within 128 cycles.
 Requested convergence on MAX density matrix=1.00D-06.
 Requested convergence on             energy=1.00D-06.
 No special actions if energy rises.
 SCF Done:  E(RB3LYP) =  -1447.48565855     A.U. after    1 cycles
            NFock=  1  Conv=0.95D-08     -V/T= 2.0093

 **********************************************************************

            Population analysis using the SCF Density.

 **********************************************************************

 Alpha  occ. eigenvalues --  -19.37046 -19.31267 -19.24967 -19.23772 -19.17051
 Alpha  occ. eigenvalues --  -19.16868 -14.58388 -14.48898 -14.48153 -14.47650
 Alpha  occ. eigenvalues --  -14.46269 -14.44691 -10.49558 -10.43437 -10.42621
 Alpha  occ. eigenvalues --  -10.40564 -10.40404 -10.37046 -10.36137 -10.35783
 Alpha  occ. eigenvalues --  -10.34961 -10.32177 -10.30980 -10.29731 -10.28911
 Alpha  occ. eigenvalues --  -10.28257 -10.27026 -10.25871 -10.25292  -1.27625
 Alpha  occ. eigenvalues --   -1.19198  -1.17680  -1.14953  -1.12914  -1.12173
 Alpha  occ. eigenvalues --   -1.10460  -1.05473  -1.03415  -1.01843  -1.01324
 Alpha  occ. eigenvalues --   -0.99450  -0.96575  -0.91367  -0.89201  -0.88833
 Alpha  occ. eigenvalues --   -0.85737  -0.83082  -0.80730  -0.78603  -0.77976
 Alpha  occ. eigenvalues --   -0.76731  -0.75051  -0.74298  -0.73483  -0.72055
 Alpha  occ. eigenvalues --   -0.71582  -0.70440  -0.69155  -0.68214  -0.66235
 Alpha  occ. eigenvalues --   -0.65950  -0.65423  -0.64301  -0.64177  -0.63481
 Alpha  occ. eigenvalues --   -0.62229  -0.61534  -0.60939  -0.60228  -0.60130
 Alpha  occ. eigenvalues --   -0.59462  -0.58738  -0.57828  -0.56630  -0.56117
 Alpha  occ. eigenvalues --   -0.55572  -0.54964  -0.54605  -0.53825  -0.53731
 Alpha  occ. eigenvalues --   -0.53448  -0.52416  -0.52049  -0.51815  -0.51457
 Alpha  occ. eigenvalues --   -0.50678  -0.50394  -0.49331  -0.49044  -0.48606
 Alpha  occ. eigenvalues --   -0.48444  -0.47497  -0.47201  -0.46679  -0.46122
 Alpha  occ. eigenvalues --   -0.45275  -0.45046  -0.44404  -0.43453  -0.42691
 Alpha  occ. eigenvalues --   -0.42290  -0.41715  -0.41459  -0.39243  -0.38892
 Alpha  occ. eigenvalues --   -0.38645  -0.37222  -0.36526  -0.36239  -0.32666
 Alpha  occ. eigenvalues --   -0.31612  -0.31248
 Alpha virt. eigenvalues --   -0.16759  -0.12759  -0.10942  -0.10302  -0.08568
 Alpha virt. eigenvalues --   -0.07163  -0.04496  -0.03948  -0.02982  -0.02550
 Alpha virt. eigenvalues --   -0.01975  -0.01288  -0.00988  -0.00420   0.00123
 Alpha virt. eigenvalues --    0.00665   0.00966   0.01307   0.02078   0.02711
 Alpha virt. eigenvalues --    0.02730   0.03406   0.03875   0.04072   0.05225
 Alpha virt. eigenvalues --    0.05316   0.05698   0.06317   0.06665   0.07015
 Alpha virt. eigenvalues --    0.07186   0.07766   0.08181   0.08406   0.08961
 Alpha virt. eigenvalues --    0.09359   0.09603   0.09876   0.10848   0.11414
 Alpha virt. eigenvalues --    0.11730   0.11964   0.12528   0.13391   0.13730
 Alpha virt. eigenvalues --    0.14668   0.15019   0.15718   0.16165   0.16395
 Alpha virt. eigenvalues --    0.17300   0.17624   0.18101   0.18740   0.19679
 Alpha virt. eigenvalues --    0.20562   0.21751   0.22679   0.24376   0.25434
 Alpha virt. eigenvalues --    0.27644   0.28167   0.29392   0.31626   0.33508
 Alpha virt. eigenvalues --    0.33941   0.36483   0.36803   0.37406   0.38496
 Alpha virt. eigenvalues --    0.38883   0.40663   0.41350   0.41675   0.42165
 Alpha virt. eigenvalues --    0.42590   0.43075   0.43540   0.43588   0.44538
 Alpha virt. eigenvalues --    0.45120   0.45798   0.46238   0.46574   0.46991
 Alpha virt. eigenvalues --    0.47616   0.49017   0.49243   0.50097   0.50597
 Alpha virt. eigenvalues --    0.51561   0.51999   0.53036   0.53909   0.54236
 Alpha virt. eigenvalues --    0.54786   0.55113   0.55699   0.55739   0.56650
 Alpha virt. eigenvalues --    0.56817   0.57963   0.58503   0.59094   0.59600
 Alpha virt. eigenvalues --    0.59966   0.60772   0.61100   0.62346   0.62954
 Alpha virt. eigenvalues --    0.63652   0.64054   0.64973   0.65099   0.65744
 Alpha virt. eigenvalues --    0.66360   0.66545   0.67458   0.67522   0.68971
 Alpha virt. eigenvalues --    0.69583   0.70382   0.70674   0.72221   0.72447
 Alpha virt. eigenvalues --    0.73077   0.73398   0.73724   0.73904   0.75031
 Alpha virt. eigenvalues --    0.75568   0.76579   0.76791   0.77353   0.77574
 Alpha virt. eigenvalues --    0.77651   0.78015   0.78443   0.78839   0.79251
 Alpha virt. eigenvalues --    0.79727   0.80368   0.80517   0.81565   0.82126
 Alpha virt. eigenvalues --    0.82780   0.83208   0.83308   0.83610   0.83890
 Alpha virt. eigenvalues --    0.84739   0.85567   0.85671   0.86792   0.87114
 Alpha virt. eigenvalues --    0.87914   0.88105   0.89140   0.89696   0.90157
 Alpha virt. eigenvalues --    0.91051   0.91775   0.92741   0.93176   0.94354
 Alpha virt. eigenvalues --    0.94494   0.96250   0.96782   0.97232   0.97684
 Alpha virt. eigenvalues --    0.99310   1.00618   1.00969   1.01052   1.01936
 Alpha virt. eigenvalues --    1.03171   1.04037   1.04521   1.05730   1.06535
 Alpha virt. eigenvalues --    1.07235   1.09390   1.10467   1.11751   1.12409
 Alpha virt. eigenvalues --    1.13464   1.14251   1.14618   1.16885   1.17975
 Alpha virt. eigenvalues --    1.18973   1.20745   1.21242   1.21783   1.22482
 Alpha virt. eigenvalues --    1.23865   1.24379   1.25484   1.26395   1.26950
 Alpha virt. eigenvalues --    1.27904   1.29117   1.31017   1.31753   1.33294
 Alpha virt. eigenvalues --    1.34376   1.36595   1.37898   1.38736   1.39083
 Alpha virt. eigenvalues --    1.39985   1.40743   1.42564   1.42739   1.43456
 Alpha virt. eigenvalues --    1.47404   1.48082   1.48273   1.50411   1.50484
 Alpha virt. eigenvalues --    1.52106   1.53909   1.54093   1.54836   1.56169
 Alpha virt. eigenvalues --    1.56441   1.58214   1.58857   1.60086   1.60552
 Alpha virt. eigenvalues --    1.61871   1.62494   1.62793   1.63267   1.64357
 Alpha virt. eigenvalues --    1.65226   1.66107   1.66780   1.68980   1.69809
 Alpha virt. eigenvalues --    1.70284   1.70797   1.70956   1.71170   1.72378
 Alpha virt. eigenvalues --    1.72816   1.73780   1.74073   1.74346   1.75302
 Alpha virt. eigenvalues --    1.76875   1.77264   1.77861   1.78486   1.79488
 Alpha virt. eigenvalues --    1.80122   1.80436   1.81589   1.83066   1.84405
 Alpha virt. eigenvalues --    1.84995   1.85148   1.86466   1.87991   1.88062
 Alpha virt. eigenvalues --    1.88620   1.88857   1.89303   1.90312   1.91208
 Alpha virt. eigenvalues --    1.91733   1.92318   1.92899   1.94604   1.96010
 Alpha virt. eigenvalues --    1.96415   1.97566   1.98381   1.98963   1.99762
 Alpha virt. eigenvalues --    2.00541   2.02166   2.02699   2.03489   2.03908
 Alpha virt. eigenvalues --    2.04298   2.05648   2.06308   2.08549   2.09430
 Alpha virt. eigenvalues --    2.10871   2.12552   2.13428   2.15123   2.15956
 Alpha virt. eigenvalues --    2.16366   2.17242   2.17912   2.18348   2.18936
 Alpha virt. eigenvalues --    2.21242   2.21429   2.21907   2.23144   2.23627
 Alpha virt. eigenvalues --    2.25671   2.26403   2.26827   2.28257   2.29051
 Alpha virt. eigenvalues --    2.29674   2.30424   2.33536   2.33647   2.34738
 Alpha virt. eigenvalues --    2.36115   2.36509   2.39115   2.41175   2.42432
 Alpha virt. eigenvalues --    2.42862   2.43481   2.44986   2.46118   2.47834
 Alpha virt. eigenvalues --    2.49067   2.50747   2.51524   2.52098   2.52397
 Alpha virt. eigenvalues --    2.53166   2.54288   2.55651   2.56465   2.57409
 Alpha virt. eigenvalues --    2.59392   2.60150   2.61054   2.62111   2.64580
 Alpha virt. eigenvalues --    2.65856   2.66551   2.67729   2.69312   2.69874
 Alpha virt. eigenvalues --    2.72428   2.77617   2.82736   2.85532   2.86430
 Alpha virt. eigenvalues --    2.87972   2.89077   2.90463   2.91471   2.92235
 Alpha virt. eigenvalues --    2.97840   3.00861   3.02082   3.07117   3.16059
 Alpha virt. eigenvalues --    3.68132   3.70578   3.79878   3.82750   3.84600
 Alpha virt. eigenvalues --    3.90448   3.95885   3.96764   4.00865   4.06021
 Alpha virt. eigenvalues --    4.07766   4.10359   4.15971   4.16499   4.17248
 Alpha virt. eigenvalues --    4.18545   4.20586   4.24860   4.25552   4.28814
 Alpha virt. eigenvalues --    4.32685   4.38363   4.38751   4.40048   4.48653
 Alpha virt. eigenvalues --    4.50745   4.55030   4.62231   4.63194
          Condensed to atoms (all electrons):
 Mulliken charges:
               1
     1  N   -0.771675
     2  C   -0.111720
     3  C    0.620938
     4  O   -0.502708
     5  C   -0.299968
     6  C   -0.397565
     7  C    0.625584
     8  O   -0.473420
     9  O   -0.547297
    10  H    0.446308
    11  H    0.409385
    12  H    0.203350
    13  H    0.195749
    14  H    0.224605
    15  H    0.207706
    16  H    0.194652
    17  H    0.417069
    18  H    0.458438
    19  N   -0.593712
    20  C   -0.041739
    21  C    0.603446
    22  O   -0.599941
    23  C   -0.306401
    24  C   -0.093794
    25  C   -0.460469
    26  C   -0.448399
    27  H    0.363577
    28  H    0.166900
    29  H    0.168981
    30  H    0.161719
    31  H    0.150294
    32  H    0.145267
    33  H    0.175527
    34  H    0.146048
    35  H    0.150749
    36  H    0.153651
    37  H    0.165853
    38  N   -0.611148
    39  C   -0.054659
    40  C    0.622945
    41  O   -0.607297
    42  C   -0.271359
    43  C   -0.292875
    44  C   -0.144889
    45  N   -0.619275
    46  C    0.766979
    47  N   -0.746383
    48  N   -0.770436
    49  O   -0.605616
    50  H    0.383640
    51  H    0.184551
    52  H    0.161179
    53  H    0.184445
    54  H    0.157166
    55  H    0.102285
    56  H    0.166068
    57  H    0.223444
    58  H    0.369859
    59  H    0.425238
    60  H    0.347105
    61  H    0.366118
    62  H    0.355926
 Sum of Mulliken charges =   1.00000
 Mulliken charges with hydrogens summed into heavy atoms:
               1
     1  N    0.513217
     2  C    0.091630
     3  C    0.620938
     4  O   -0.502708
     5  C    0.120386
     6  C    0.004794
     7  C    0.625584
     8  O   -0.473420
     9  O   -0.100989
    19  N   -0.230136
    20  C    0.125161
    21  C    0.603446
    22  O   -0.599941
    23  C    0.024299
    24  C    0.056501
    25  C    0.006373
    26  C    0.021854
    38  N   -0.227508
    39  C    0.129892
    40  C    0.622945
    41  O   -0.607297
    42  C    0.074266
    43  C   -0.033425
    44  C    0.244623
    45  N   -0.249415
    46  C    0.766979
    47  N    0.025960
    48  N   -0.048392
    49  O   -0.605616
 Electronic spatial extent (au):  <R**2>=         506388.7014
 Charge=              1.0000 electrons
 Dipole moment (field-independent basis, Debye):
    X=             42.4774    Y=             81.4325    Z=             62.7825  Tot=            111.2529
 Quadrupole moment (field-independent basis, Debye-Ang):
   XX=            221.3824   YY=           1235.6442   ZZ=            667.4860
   XY=            719.1572   XZ=            538.1534   YZ=           1060.0276
 Traceless Quadrupole moment (field-independent basis, Debye-Ang):
   XX=           -486.7884   YY=            527.4733   ZZ=            -40.6849
   XY=            719.1572   XZ=            538.1534   YZ=           1060.0276
 Octapole moment (field-independent basis, Debye-Ang**2):
  XXX=          -2170.3854  YYY=          15760.9784  ZZZ=           4598.5601  XYY=          10438.4009
  XXY=           3645.0807  XXZ=           2394.9786  XZZ=           5053.4342  YZZ=          11053.6940
  YYZ=          16026.9104  XYZ=           9051.7059
 Hexadecapole moment (field-independent basis, Debye-Ang**3):
 XXXX=        -105808.1668 YYYY=         126093.3257 ZZZZ=         -29530.0540 XXXY=         -39771.3644
 XXXZ=         -38786.8774 YYYX=         114848.4836 YYYZ=         203750.8128 ZZZX=          15757.1521
 ZZZY=          70148.2385 XXYY=          37985.5446 XXZZ=           2442.9788 YYZZ=         157462.2855
 XXYZ=          38540.9062 YYXZ=         129846.4946 ZZXY=          82380.4439
 N-N= 3.278418438570D+03 E-N=-9.906043028408D+03  KE= 1.434088816888D+03
 Unable to Open any file for archive entry.
 1\1\GINC-AMR-153\SP\RB3LYP\6-31G(d)\C17H33N6O6(1+)\KENGMITH\24-May-202
 2\0\\# B3LYP/6-31G* empiricaldispersion=gd3 guess=read geom=check nosy
 mm integral(ultrafinegrid)\\Candidate Structure: Conf:807 Charge calc 
 in gas phase\\1,1\N,0,9.5405467607,19.6461281101,12.5273325858\C,0,9.5
 229695985,18.3457012756,11.7606446344\C,0,10.1549778627,18.7159437715,
 10.3996268736\O,0,9.5400423788,19.5172330697,9.7049348091\C,0,8.114116
 4046,17.7849646467,11.5298459647\C,0,7.212639246,17.6102466384,12.7817
 558202\C,0,7.9874868396,17.0502887279,13.9564366803\O,0,8.7842796637,1
 7.7417242544,14.5701037166\O,0,7.863314791,15.7580427178,14.2927150372
 \H,0,7.177339419,15.3057416799,13.7711931634\H,0,9.0500376868,20.37213
 63851,11.9912450961\H,0,10.1258137732,17.6598755514,12.3545505045\H,0,
 8.2525905155,16.8145618352,11.0395171296\H,0,7.5951346493,18.426132422
 ,10.8114508037\H,0,6.8207598792,18.5796658002,13.1064040213\H,0,6.3489
 185396,16.9933996149,12.5141171661\H,0,9.141216588,19.518225809,13.466
 160771\H,0,10.5665687572,19.9060610488,12.6028664121\N,0,11.3233326031
 ,18.1296338448,10.0616636523\C,0,12.2938003775,17.5176993934,10.975458
 4149\C,0,12.4988637631,18.3852455868,12.2467453789\O,0,12.2038936761,1
 9.6023576891,12.2428380726\C,0,13.6250141293,17.3620222468,10.19950063
 92\C,0,14.7520201233,16.562071295,10.8821500464\C,0,14.3432064191,15.1
 162130479,11.2028294026\C,0,15.9912817724,16.5807816085,9.9730453435\H
 ,0,11.6952668338,18.4887727918,9.1873306683\H,0,11.9375263108,16.52323
 96642,11.268642169\H,0,13.9869275291,18.3708654747,9.9587918074\H,0,13
 .3834911525,16.8696993545,9.2467250926\H,0,15.0213329213,17.0630390546
 ,11.8204477918\H,0,14.0015803438,14.5986892645,10.2969947855\H,0,15.19
 68617995,14.5607943654,11.6035174397\H,0,13.5500596237,15.0474110023,1
 1.9561012499\H,0,15.7875561447,16.0763847077,9.0200656122\H,0,16.31269
 54943,17.604843815,9.7511402744\H,0,16.828042961,16.0623163618,10.4520
 785874\N,0,12.9915086807,17.7162085839,13.2796508723\C,0,13.6748462121
 ,18.1853269754,14.4927138587\C,0,13.8143242898,16.904956273,15.3801923
 551\O,0,14.1653698168,17.1215989063,16.5732869209\C,0,13.057415894,19.
 3787193723,15.2299117089\C,0,11.6214387321,19.2475600127,15.7600256918
 \C,0,11.3691042713,18.2607318024,16.9214697721\N,0,10.9414365831,16.94
 32078848,16.4295888127\C,0,11.2881483439,15.7344834443,16.879547702\N,
 0,12.3461550425,15.5510323908,17.6693674443\N,0,10.4848818912,14.68310
 03564,16.5596216417\O,0,13.5164033828,15.811362856,14.8430883748\H,0,1
 3.0855845982,16.692093424,13.258071285\H,0,14.6896070656,18.4879182149
 ,14.1976058927\H,0,13.0911248987,20.2465798413,14.5645407855\H,0,13.72
 84629725,19.5796414579,16.070209025\H,0,11.3204813076,20.241413946,16.
 1134547702\H,0,10.9417061271,19.0013523034,14.9344279297\H,0,10.566706
 1614,18.6471974634,17.5623918214\H,0,12.2664989574,18.1459029804,17.52
 59662866\H,0,10.1671527486,16.9816557461,15.7744810973\H,0,13.20689271
 03,16.1200667052,17.423368945\H,0,12.5237796242,14.6012003445,17.96942
 06723\H,0,10.921167299,13.7794614855,16.4367028369\H,0,9.6589913173,14
 .8474131516,15.9986399386\\Version=ES64L-G16RevC.01\HF=-1447.4856585\R
 MSD=9.460e-09\Dipole=-5.1153658,-0.9505263,-0.6720773\Quadrupole=-361.
 9152787,392.1635023,-30.2482235,534.6757796,400.1038486,788.1045581\PG
 =C01 [X(C17H33N6O6)]\\@
 The archive entry for this job was punched.


 NOTHING WILL BE ATTEMPTED IF ALL POSSIBLE OBJECTIONS
 MUST FIRST BE OVERCOME.

                               -- THE GOLDEN PRINCIPLE,
                    PAUL DICKSON'S "THE OFFICIAL RULES"
 Job cpu time:       0 days  0 hours  1 minutes  3.8 seconds.
 Elapsed time:       0 days  0 hours  0 minutes 16.5 seconds.
 File lengths (MBytes):  RWF=    248 Int=      0 D2E=      0 Chk=     32 Scr=     16
 Normal termination of Gaussian 16 at Tue May 24 03:31:40 2022.
