 Entering Gaussian System, Link 0=/opt/software/Gaussian/g16-AVX2-C.01/g16/g16
 Input=charge-conf-234.com
 Output=charge-conf-234.log
 Initial command:
 /opt/software/Gaussian/g16-AVX2-C.01/g16/l1.exe "/mnt/gs18/scratch/users/kengmith/Gau-33072.inp" -scrdir="/mnt/gs18/scratch/users/kengmith/"
 Entering Link 1 = /opt/software/Gaussian/g16-AVX2-C.01/g16/l1.exe PID=     33082.
  
 Copyright (c) 1988-2019, Gaussian, Inc.  All Rights Reserved.
  
 This is part of the Gaussian(R) 16 program.  It is based on
 the Gaussian(R) 09 system (copyright 2009, Gaussian, Inc.),
 the Gaussian(R) 03 system (copyright 2003, Gaussian, Inc.),
 the Gaussian(R) 98 system (copyright 1998, Gaussian, Inc.),
 the Gaussian(R) 94 system (copyright 1995, Gaussian, Inc.),
 the Gaussian 92(TM) system (copyright 1992, Gaussian, Inc.),
 the Gaussian 90(TM) system (copyright 1990, Gaussian, Inc.),
 the Gaussian 88(TM) system (copyright 1988, Gaussian, Inc.),
 the Gaussian 86(TM) system (copyright 1986, Carnegie Mellon
 University), and the Gaussian 82(TM) system (copyright 1983,
 Carnegie Mellon University). Gaussian is a federally registered
 trademark of Gaussian, Inc.
  
 This software contains proprietary and confidential information,
 including trade secrets, belonging to Gaussian, Inc.
  
 This software is provided under written license and may be
 used, copied, transmitted, or stored only in accord with that
 written license.
  
 The following legend is applicable only to US Government
 contracts under FAR:
  
                    RESTRICTED RIGHTS LEGEND
  
 Use, reproduction and disclosure by the US Government is
 subject to restrictions as set forth in subparagraphs (a)
 and (c) of the Commercial Computer Software - Restricted
 Rights clause in FAR 52.227-19.
  
 Gaussian, Inc.
 340 Quinnipiac St., Bldg. 40, Wallingford CT 06492
  
  
 ---------------------------------------------------------------
 Warning -- This program may not be used in any manner that
 competes with the business of Gaussian, Inc. or will provide
 assistance to any competitor of Gaussian, Inc.  The licensee
 of this program is prohibited from giving any competitor of
 Gaussian, Inc. access to this program.  By using this program,
 the user acknowledges that Gaussian, Inc. is engaged in the
 business of creating and licensing software in the field of
 computational chemistry and represents and warrants to the
 licensee that it is not a competitor of Gaussian, Inc. and that
 it will not use this program in any manner prohibited above.
 ---------------------------------------------------------------
  

 Cite this work as:
 Gaussian 16, Revision C.01,
 M. J. Frisch, G. W. Trucks, H. B. Schlegel, G. E. Scuseria, 
 M. A. Robb, J. R. Cheeseman, G. Scalmani, V. Barone, 
 G. A. Petersson, H. Nakatsuji, X. Li, M. Caricato, A. V. Marenich, 
 J. Bloino, B. G. Janesko, R. Gomperts, B. Mennucci, H. P. Hratchian, 
 J. V. Ortiz, A. F. Izmaylov, J. L. Sonnenberg, D. Williams-Young, 
 F. Ding, F. Lipparini, F. Egidi, J. Goings, B. Peng, A. Petrone, 
 T. Henderson, D. Ranasinghe, V. G. Zakrzewski, J. Gao, N. Rega, 
 G. Zheng, W. Liang, M. Hada, M. Ehara, K. Toyota, R. Fukuda, 
 J. Hasegawa, M. Ishida, T. Nakajima, Y. Honda, O. Kitao, H. Nakai, 
 T. Vreven, K. Throssell, J. A. Montgomery, Jr., J. E. Peralta, 
 F. Ogliaro, M. J. Bearpark, J. J. Heyd, E. N. Brothers, K. N. Kudin, 
 V. N. Staroverov, T. A. Keith, R. Kobayashi, J. Normand, 
 K. Raghavachari, A. P. Rendell, J. C. Burant, S. S. Iyengar, 
 J. Tomasi, M. Cossi, J. M. Millam, M. Klene, C. Adamo, R. Cammi, 
 J. W. Ochterski, R. L. Martin, K. Morokuma, O. Farkas, 
 J. B. Foresman, and D. J. Fox, Gaussian, Inc., Wallingford CT, 2019.
 
 ******************************************
 Gaussian 16:  ES64L-G16RevC.01  3-Jul-2019
                24-May-2022 
 ******************************************
 %mem=8gb
 %nproc=4
 Will use up to    4 processors via shared memory.
 %chk=conf-234.chk
 ----------------------------------------------------------------------
 # B3LYP/6-31G* empiricaldispersion=gd3 guess=read geom=check nosymm in
 tegral(ultrafinegrid)
 ----------------------------------------------------------------------
 1/29=2,38=1,172=1/1;
 2/12=2,15=1,40=1/2;
 3/5=1,6=6,7=1,11=2,14=-4,25=1,30=1,74=-5,75=-5,116=-2,124=31/1,2,3;
 4/5=1/1;
 5/5=2,38=6/2;
 6/7=2,8=2,9=2,10=2,28=1/1;
 99/5=1,9=1/99;
 ------------------------------------------------------
 Candidate Structure: Conf:234 Charge calc in gas phase
 ------------------------------------------------------
 Structure from the checkpoint file:  "conf-234.chk"
 Charge =  1 Multiplicity = 1
 Redundant internal coordinates found in file.  (old form).
 N,0,14.2716043305,18.9311353322,14.2552662359
 C,0,14.2773964322,17.4301348607,14.1162404137
 C,0,14.5409667837,16.9337291705,15.5522280624
 O,0,15.6283568311,17.2165515461,16.0432295866
 C,0,15.3713954841,16.9690937662,13.1329027246
 C,0,14.8775296211,16.7602809535,11.6929522694
 C,0,14.2851614465,17.9858315593,11.0110259163
 O,0,14.1396705397,19.075377345,11.5351893955
 O,0,13.8680011432,17.8229202475,9.7469907074
 H,0,14.0517439525,16.9257638302,9.4179848892
 H,0,14.249882854,19.3495588672,13.3064198126
 H,0,13.2922953366,17.159925464,13.735907955
 H,0,15.7756180126,16.0173010632,13.4889590824
 H,0,16.2108533637,17.6713476262,13.1562889303
 H,0,15.7073614167,16.3909247604,11.0756797098
 H,0,14.1102990624,15.9725866165,11.6687784487
 H,0,13.4215088014,19.1780296076,14.8171940113
 H,0,15.1142786352,19.2128887231,14.771056321
 N,0,13.5708893731,16.2388528822,16.1920664182
 C,0,12.1549523205,16.1311547764,15.8332941754
 C,0,11.602950055,17.4860935291,15.3324433069
 O,0,12.0704436643,18.5645716026,15.7460350886
 C,0,11.3374767893,15.6729456086,17.0577516149
 C,0,11.7155845858,14.2968496783,17.6442394048
 C,0,10.8331493509,14.0119727754,18.8688919194
 C,0,11.5981946173,13.1703945007,16.6082880703
 H,0,13.8167332836,16.0270050786,17.1532468903
 H,0,12.0410836508,15.3895368033,15.0328085732
 H,0,10.2839807794,15.6494039759,16.7523046497
 H,0,11.4233124453,16.4500182175,17.828711005
 H,0,12.7596307887,14.3306181353,17.991734371
 H,0,10.9251237773,14.8012375123,19.6236433865
 H,0,9.7770495949,13.9438857742,18.5796512391
 H,0,11.1130799,13.0627784184,19.337463036
 H,0,12.3013810999,13.2943955376,15.7762745137
 H,0,11.8105457002,12.2003315562,17.0693883459
 H,0,10.5828376922,13.1262201487,16.1937729351
 N,0,10.6347584244,17.3944442142,14.4219636359
 C,0,9.9866185218,18.5209312344,13.7458777858
 C,0,8.9265328977,17.927847379,12.782665796
 O,0,9.2142215419,16.7583185987,12.3358419617
 C,0,11.0245371113,19.3629616065,12.9403955641
 C,0,10.4780699712,20.0514670987,11.675172029
 C,0,10.398267093,19.0863147403,10.4626576841
 N,0,9.1836801068,19.2912046475,9.661963557
 C,0,8.2198240126,18.3975204775,9.4016102408
 N,0,8.2560031328,17.1431438002,9.8447070624
 N,0,7.2244477546,18.769487783,8.5533159845
 O,0,7.9975733373,18.6664341991,12.4344073392
 H,0,10.3540299019,16.5006083032,14.0172978202
 H,0,9.488880947,19.1579664977,14.4802642816
 H,0,11.844366745,18.6980465554,12.6423449663
 H,0,11.4529950283,20.1136008106,13.6114048864
 H,0,9.4823023333,20.4473535897,11.8905693815
 H,0,11.132012625,20.8925891666,11.4201765576
 H,0,10.4086163229,18.0484189401,10.7911950565
 H,0,11.2673515452,19.2257771843,9.8097564118
 H,0,8.9507708721,20.2569345269,9.4704965375
 H,0,8.6176633064,16.9128003621,10.8137247543
 H,0,7.5349126704,16.5238877723,9.4989283729
 H,0,6.3126885121,18.3482113229,8.6625027924
 H,0,7.2353501992,19.6841342785,8.1249344448
 Recover connectivity data from disk.
                           ----------------------------
                           !    Current Parameters    !
                           ! (Angstroms and Degrees)  !
 --------------------------                            --------------------------
 ! Name  Definition              Value                                          !
 --------------------------------------------------------------------------------
 ! R1    R(1,2)                  1.5074                                         !
 ! R2    R(1,11)                 1.0372                                         !
 ! R3    R(1,17)                 1.0485                                         !
 ! R4    R(1,18)                 1.0274                                         !
 ! R5    R(2,3)                  1.5421                                         !
 ! R6    R(2,5)                  1.5415                                         !
 ! R7    R(2,12)                 1.09                                           !
 ! R8    R(3,4)                  1.2262                                         !
 ! R9    R(3,19)                 1.354                                          !
 ! R10   R(5,6)                  1.5365                                         !
 ! R11   R(5,13)                 1.0937                                         !
 ! R12   R(5,14)                 1.0947                                         !
 ! R13   R(6,7)                  1.5225                                         !
 ! R14   R(6,15)                 1.0982                                         !
 ! R15   R(6,16)                 1.0999                                         !
 ! R16   R(7,8)                  1.2178                                         !
 ! R17   R(7,9)                  1.341                                          !
 ! R18   R(9,10)                 0.9731                                         !
 ! R19   R(19,20)                1.4646                                         !
 ! R20   R(19,27)                1.0145                                         !
 ! R21   R(20,21)                1.5464                                         !
 ! R22   R(20,23)                1.5419                                         !
 ! R23   R(20,28)                1.0972                                         !
 ! R24   R(21,22)                1.2461                                         !
 ! R25   R(21,38)                1.3322                                         !
 ! R26   R(23,24)                1.5429                                         !
 ! R27   R(23,29)                1.0971                                         !
 ! R28   R(23,30)                1.098                                          !
 ! R29   R(24,25)                1.5361                                         !
 ! R30   R(24,26)                1.5349                                         !
 ! R31   R(24,31)                1.1009                                         !
 ! R32   R(25,32)                1.0959                                         !
 ! R33   R(25,33)                1.0971                                         !
 ! R34   R(25,34)                1.0949                                         !
 ! R35   R(26,35)                1.0964                                         !
 ! R36   R(26,36)                1.0949                                         !
 ! R37   R(26,37)                1.0976                                         !
 ! R38   R(38,39)                1.465                                          !
 ! R39   R(38,50)                1.0205                                         !
 ! R40   R(39,40)                1.5503                                         !
 ! R41   R(39,42)                1.5605                                         !
 ! R42   R(39,51)                1.0922                                         !
 ! R43   R(40,41)                1.2846                                         !
 ! R44   R(40,49)                1.2368                                         !
 ! R45   R(42,43)                1.5406                                         !
 ! R46   R(42,52)                1.0968                                         !
 ! R47   R(42,53)                1.0942                                         !
 ! R48   R(43,44)                1.5518                                         !
 ! R49   R(43,54)                1.093                                          !
 ! R50   R(43,55)                1.0955                                         !
 ! R51   R(44,45)                1.4691                                         !
 ! R52   R(44,56)                1.0887                                         !
 ! R53   R(44,57)                1.0959                                         !
 ! R54   R(45,46)                1.34                                           !
 ! R55   R(45,58)                1.0117                                         !
 ! R56   R(46,47)                1.3308                                         !
 ! R57   R(46,48)                1.3597                                         !
 ! R58   R(47,59)                1.0596                                         !
 ! R59   R(47,60)                1.0114                                         !
 ! R60   R(48,61)                1.0103                                         !
 ! R61   R(48,62)                1.0101                                         !
 ! A1    A(2,1,11)             108.5053                                         !
 ! A2    A(2,1,17)             106.6789                                         !
 ! A3    A(2,1,18)             108.4346                                         !
 ! A4    A(11,1,17)            112.2278                                         !
 ! A5    A(11,1,18)            111.4571                                         !
 ! A6    A(17,1,18)            109.3515                                         !
 ! A7    A(1,2,3)              103.6099                                         !
 ! A8    A(1,2,5)              111.0608                                         !
 ! A9    A(1,2,12)             105.9948                                         !
 ! A10   A(3,2,5)              112.1133                                         !
 ! A11   A(3,2,12)             113.5532                                         !
 ! A12   A(5,2,12)             110.1612                                         !
 ! A13   A(2,3,4)              116.7576                                         !
 ! A14   A(2,3,19)             118.8685                                         !
 ! A15   A(4,3,19)             124.3685                                         !
 ! A16   A(2,5,6)              114.226                                          !
 ! A17   A(2,5,13)             108.3554                                         !
 ! A18   A(2,5,14)             109.7988                                         !
 ! A19   A(6,5,13)             107.7958                                         !
 ! A20   A(6,5,14)             110.7118                                         !
 ! A21   A(13,5,14)            105.5396                                         !
 ! A22   A(5,6,7)              115.8117                                         !
 ! A23   A(5,6,15)             109.243                                          !
 ! A24   A(5,6,16)             110.0069                                         !
 ! A25   A(7,6,15)             108.2388                                         !
 ! A26   A(7,6,16)             107.1724                                         !
 ! A27   A(15,6,16)            105.8951                                         !
 ! A28   A(6,7,8)              125.0225                                         !
 ! A29   A(6,7,9)              116.4514                                         !
 ! A30   A(8,7,9)              118.5049                                         !
 ! A31   A(7,9,10)             111.8365                                         !
 ! A32   A(3,19,20)            127.9237                                         !
 ! A33   A(3,19,27)            112.4126                                         !
 ! A34   A(20,19,27)           116.808                                          !
 ! A35   A(19,20,21)           111.0997                                         !
 ! A36   A(19,20,23)           109.8686                                         !
 ! A37   A(19,20,28)           109.1934                                         !
 ! A38   A(21,20,23)           109.1669                                         !
 ! A39   A(21,20,28)           108.5965                                         !
 ! A40   A(23,20,28)           108.8743                                         !
 ! A41   A(20,21,22)           121.1251                                         !
 ! A42   A(20,21,38)           114.8658                                         !
 ! A43   A(22,21,38)           123.9896                                         !
 ! A44   A(20,23,24)           115.9108                                         !
 ! A45   A(20,23,29)           107.1199                                         !
 ! A46   A(20,23,30)           107.8081                                         !
 ! A47   A(24,23,29)           108.7841                                         !
 ! A48   A(24,23,30)           110.1907                                         !
 ! A49   A(29,23,30)           106.6027                                         !
 ! A50   A(23,24,25)           109.1275                                         !
 ! A51   A(23,24,26)           112.2876                                         !
 ! A52   A(23,24,31)           108.9679                                         !
 ! A53   A(25,24,26)           110.9805                                         !
 ! A54   A(25,24,31)           107.3882                                         !
 ! A55   A(26,24,31)           107.9442                                         !
 ! A56   A(24,25,32)           111.5481                                         !
 ! A57   A(24,25,33)           110.7515                                         !
 ! A58   A(24,25,34)           110.7982                                         !
 ! A59   A(32,25,33)           107.8814                                         !
 ! A60   A(32,25,34)           107.9475                                         !
 ! A61   A(33,25,34)           107.7657                                         !
 ! A62   A(24,26,35)           112.3416                                         !
 ! A63   A(24,26,36)           110.5585                                         !
 ! A64   A(24,26,37)           110.8046                                         !
 ! A65   A(35,26,36)           107.1819                                         !
 ! A66   A(35,26,37)           108.1356                                         !
 ! A67   A(36,26,37)           107.6264                                         !
 ! A68   A(21,38,39)           125.7354                                         !
 ! A69   A(21,38,50)           122.0843                                         !
 ! A70   A(39,38,50)           111.6405                                         !
 ! A71   A(38,39,40)           107.1635                                         !
 ! A72   A(38,39,42)           111.0307                                         !
 ! A73   A(38,39,51)           109.8653                                         !
 ! A74   A(40,39,42)           109.91                                           !
 ! A75   A(40,39,51)           109.2255                                         !
 ! A76   A(42,39,51)           109.6007                                         !
 ! A77   A(39,40,41)           114.2848                                         !
 ! A78   A(39,40,49)           117.3928                                         !
 ! A79   A(41,40,49)           127.8742                                         !
 ! A80   A(39,42,43)           115.4126                                         !
 ! A81   A(39,42,52)           108.0774                                         !
 ! A82   A(39,42,53)           108.305                                          !
 ! A83   A(43,42,52)           108.233                                          !
 ! A84   A(43,42,53)           109.6293                                         !
 ! A85   A(52,42,53)           106.8476                                         !
 ! A86   A(42,43,44)           112.4563                                         !
 ! A87   A(42,43,54)           108.8552                                         !
 ! A88   A(42,43,55)           108.8172                                         !
 ! A89   A(44,43,54)           109.4146                                         !
 ! A90   A(44,43,55)           109.0478                                         !
 ! A91   A(54,43,55)           108.1556                                         !
 ! A92   A(43,44,45)           112.4347                                         !
 ! A93   A(43,44,56)           110.8948                                         !
 ! A94   A(43,44,57)           110.2167                                         !
 ! A95   A(45,44,56)           107.7753                                         !
 ! A96   A(45,44,57)           108.2509                                         !
 ! A97   A(56,44,57)           107.0712                                         !
 ! A98   A(44,45,46)           127.4144                                         !
 ! A99   A(44,45,58)           115.2521                                         !
 ! A100  A(46,45,58)           115.7392                                         !
 ! A101  A(45,46,47)           122.983                                          !
 ! A102  A(45,46,48)           117.7332                                         !
 ! A103  A(47,46,48)           119.0438                                         !
 ! A104  A(46,47,59)           121.2411                                         !
 ! A105  A(46,47,60)           116.3513                                         !
 ! A106  A(59,47,60)           115.0156                                         !
 ! A107  A(46,48,61)           118.6308                                         !
 ! A108  A(46,48,62)           120.2935                                         !
 ! A109  A(61,48,62)           115.6691                                         !
 ! D1    D(11,1,2,3)           171.1171                                         !
 ! D2    D(11,1,2,5)            50.5683                                         !
 ! D3    D(11,1,2,12)          -69.0744                                         !
 ! D4    D(17,1,2,3)           -67.7707                                         !
 ! D5    D(17,1,2,5)           171.6805                                         !
 ! D6    D(17,1,2,12)           52.0378                                         !
 ! D7    D(18,1,2,3)            49.9069                                         !
 ! D8    D(18,1,2,5)           -70.6419                                         !
 ! D9    D(18,1,2,12)          169.7153                                         !
 ! D10   D(1,2,3,4)            -64.8274                                         !
 ! D11   D(1,2,3,19)           114.3602                                         !
 ! D12   D(5,2,3,4)             55.0056                                         !
 ! D13   D(5,2,3,19)          -125.8068                                         !
 ! D14   D(12,2,3,4)          -179.3351                                         !
 ! D15   D(12,2,3,19)           -0.1475                                         !
 ! D16   D(1,2,5,6)            -94.9245                                         !
 ! D17   D(1,2,5,13)           144.9166                                         !
 ! D18   D(1,2,5,14)            30.1172                                         !
 ! D19   D(3,2,5,6)            149.6939                                         !
 ! D20   D(3,2,5,13)            29.535                                          !
 ! D21   D(3,2,5,14)           -85.2645                                         !
 ! D22   D(12,2,5,6)            22.2006                                         !
 ! D23   D(12,2,5,13)          -97.9583                                         !
 ! D24   D(12,2,5,14)          147.2422                                         !
 ! D25   D(2,3,19,20)          -15.2728                                         !
 ! D26   D(2,3,19,27)         -175.2891                                         !
 ! D27   D(4,3,19,20)          163.8484                                         !
 ! D28   D(4,3,19,27)            3.8321                                         !
 ! D29   D(2,5,6,7)             60.0524                                         !
 ! D30   D(2,5,6,15)          -177.4627                                         !
 ! D31   D(2,5,6,16)           -61.6254                                         !
 ! D32   D(13,5,6,7)          -179.4764                                         !
 ! D33   D(13,5,6,15)          -56.9915                                         !
 ! D34   D(13,5,6,16)           58.8459                                         !
 ! D35   D(14,5,6,7)           -64.5045                                         !
 ! D36   D(14,5,6,15)           57.9804                                         !
 ! D37   D(14,5,6,16)          173.8177                                         !
 ! D38   D(5,6,7,8)             -2.6509                                         !
 ! D39   D(5,6,7,9)            179.0539                                         !
 ! D40   D(15,6,7,8)          -125.6655                                         !
 ! D41   D(15,6,7,9)            56.0393                                         !
 ! D42   D(16,6,7,8)           120.5277                                         !
 ! D43   D(16,6,7,9)           -57.7675                                         !
 ! D44   D(6,7,9,10)            -3.0711                                         !
 ! D45   D(8,7,9,10)           178.5175                                         !
 ! D46   D(3,19,20,21)         -39.4572                                         !
 ! D47   D(3,19,20,23)        -160.3632                                         !
 ! D48   D(3,19,20,28)          80.2956                                         !
 ! D49   D(27,19,20,21)        119.8116                                         !
 ! D50   D(27,19,20,23)         -1.0943                                         !
 ! D51   D(27,19,20,28)       -120.4356                                         !
 ! D52   D(19,20,21,22)        -29.7014                                         !
 ! D53   D(19,20,21,38)        148.754                                          !
 ! D54   D(23,20,21,22)         91.6166                                         !
 ! D55   D(23,20,21,38)        -89.9279                                         !
 ! D56   D(28,20,21,22)       -149.8091                                         !
 ! D57   D(28,20,21,38)         28.6463                                         !
 ! D58   D(19,20,23,24)        -60.7802                                         !
 ! D59   D(19,20,23,29)        177.6037                                         !
 ! D60   D(19,20,23,30)         63.2121                                         !
 ! D61   D(21,20,23,24)        177.1568                                         !
 ! D62   D(21,20,23,29)         55.5407                                         !
 ! D63   D(21,20,23,30)        -58.8508                                         !
 ! D64   D(28,20,23,24)         58.7562                                         !
 ! D65   D(28,20,23,29)        -62.86                                           !
 ! D66   D(28,20,23,30)       -177.2515                                         !
 ! D67   D(20,21,38,39)       -177.1195                                         !
 ! D68   D(20,21,38,50)         -6.2636                                         !
 ! D69   D(22,21,38,39)          1.2857                                         !
 ! D70   D(22,21,38,50)        172.1417                                         !
 ! D71   D(20,23,24,25)        178.6788                                         !
 ! D72   D(20,23,24,26)        -57.8359                                         !
 ! D73   D(20,23,24,31)         61.6994                                         !
 ! D74   D(29,23,24,25)        -60.5965                                         !
 ! D75   D(29,23,24,26)         62.8889                                         !
 ! D76   D(29,23,24,31)       -177.5758                                         !
 ! D77   D(30,23,24,25)         55.9322                                         !
 ! D78   D(30,23,24,26)        179.4175                                         !
 ! D79   D(30,23,24,31)        -61.0472                                         !
 ! D80   D(23,24,25,32)        -56.867                                          !
 ! D81   D(23,24,25,33)         63.3079                                         !
 ! D82   D(23,24,25,34)       -177.1572                                         !
 ! D83   D(26,24,25,32)        178.8754                                         !
 ! D84   D(26,24,25,33)        -60.9498                                         !
 ! D85   D(26,24,25,34)         58.5851                                         !
 ! D86   D(31,24,25,32)         61.1099                                         !
 ! D87   D(31,24,25,33)       -178.7153                                         !
 ! D88   D(31,24,25,34)        -59.1804                                         !
 ! D89   D(23,24,26,35)         63.9146                                         !
 ! D90   D(23,24,26,36)       -176.3998                                         !
 ! D91   D(23,24,26,37)        -57.1601                                         !
 ! D92   D(25,24,26,35)       -173.6432                                         !
 ! D93   D(25,24,26,36)        -53.9576                                         !
 ! D94   D(25,24,26,37)         65.2822                                         !
 ! D95   D(31,24,26,35)        -56.2165                                         !
 ! D96   D(31,24,26,36)         63.4691                                         !
 ! D97   D(31,24,26,37)       -177.2911                                         !
 ! D98   D(21,38,39,40)       -179.8297                                         !
 ! D99   D(21,38,39,42)         60.1306                                         !
 ! D100  D(21,38,39,51)        -61.2728                                         !
 ! D101  D(50,38,39,40)          8.4992                                         !
 ! D102  D(50,38,39,42)       -111.5405                                         !
 ! D103  D(50,38,39,51)        127.0561                                         !
 ! D104  D(38,39,40,41)        -29.2348                                         !
 ! D105  D(38,39,40,49)        157.8367                                         !
 ! D106  D(42,39,40,41)         91.5181                                         !
 ! D107  D(42,39,40,49)        -81.4104                                         !
 ! D108  D(51,39,40,41)       -148.2055                                         !
 ! D109  D(51,39,40,49)         38.866                                          !
 ! D110  D(38,39,42,43)        149.3887                                         !
 ! D111  D(38,39,42,52)         28.0923                                         !
 ! D112  D(38,39,42,53)        -87.3187                                         !
 ! D113  D(40,39,42,43)         30.9959                                         !
 ! D114  D(40,39,42,52)        -90.3005                                         !
 ! D115  D(40,39,42,53)        154.2885                                         !
 ! D116  D(51,39,42,43)        -89.0529                                         !
 ! D117  D(51,39,42,52)        149.6507                                         !
 ! D118  D(51,39,42,53)         34.2397                                         !
 ! D119  D(39,42,43,44)        -81.012                                          !
 ! D120  D(39,42,43,54)         40.4022                                         !
 ! D121  D(39,42,43,55)        158.0628                                         !
 ! D122  D(52,42,43,44)         40.2004                                         !
 ! D123  D(52,42,43,54)        161.6146                                         !
 ! D124  D(52,42,43,55)        -80.7249                                         !
 ! D125  D(53,42,43,44)        156.3979                                         !
 ! D126  D(53,42,43,54)        -82.1879                                         !
 ! D127  D(53,42,43,55)         35.4727                                         !
 ! D128  D(42,43,44,45)        140.3171                                         !
 ! D129  D(42,43,44,56)         19.5766                                         !
 ! D130  D(42,43,44,57)        -98.8114                                         !
 ! D131  D(54,43,44,45)         19.2227                                         !
 ! D132  D(54,43,44,56)       -101.5178                                         !
 ! D133  D(54,43,44,57)        140.0942                                         !
 ! D134  D(55,43,44,45)        -98.89                                           !
 ! D135  D(55,43,44,56)        140.3695                                         !
 ! D136  D(55,43,44,57)         21.9815                                         !
 ! D137  D(43,44,45,46)       -120.4229                                         !
 ! D138  D(43,44,45,58)         44.4494                                         !
 ! D139  D(56,44,45,46)          2.095                                          !
 ! D140  D(56,44,45,58)        166.9673                                         !
 ! D141  D(57,44,45,46)        117.5834                                         !
 ! D142  D(57,44,45,58)        -77.5443                                         !
 ! D143  D(44,45,46,47)         -1.0098                                         !
 ! D144  D(44,45,46,48)       -175.3205                                         !
 ! D145  D(58,45,46,47)       -165.8191                                         !
 ! D146  D(58,45,46,48)         19.8701                                         !
 ! D147  D(45,46,47,59)         38.5938                                         !
 ! D148  D(45,46,47,60)       -172.9311                                         !
 ! D149  D(48,46,47,59)       -147.1665                                         !
 ! D150  D(48,46,47,60)          1.3086                                         !
 ! D151  D(45,46,48,61)       -151.5837                                         !
 ! D152  D(45,46,48,62)          1.3509                                         !
 ! D153  D(47,46,48,61)         33.8744                                         !
 ! D154  D(47,46,48,62)       -173.191                                          !
 --------------------------------------------------------------------------------
 Symmetry turned off by external request.
 Stoichiometry    C17H33N6O6(1+)
 Framework group  C1[X(C17H33N6O6)]
 Deg. of freedom   180
 Full point group                 C1      NOp   1
                          Input orientation:                          
 ---------------------------------------------------------------------
 Center     Atomic      Atomic             Coordinates (Angstroms)
 Number     Number       Type             X           Y           Z
 ---------------------------------------------------------------------
      1          7           0       14.271604   18.931135   14.255266
      2          6           0       14.277396   17.430135   14.116240
      3          6           0       14.540967   16.933729   15.552228
      4          8           0       15.628357   17.216552   16.043230
      5          6           0       15.371395   16.969094   13.132903
      6          6           0       14.877530   16.760281   11.692952
      7          6           0       14.285161   17.985832   11.011026
      8          8           0       14.139671   19.075377   11.535189
      9          8           0       13.868001   17.822920    9.746991
     10          1           0       14.051744   16.925764    9.417985
     11          1           0       14.249883   19.349559   13.306420
     12          1           0       13.292295   17.159925   13.735908
     13          1           0       15.775618   16.017301   13.488959
     14          1           0       16.210853   17.671348   13.156289
     15          1           0       15.707361   16.390925   11.075680
     16          1           0       14.110299   15.972587   11.668778
     17          1           0       13.421509   19.178030   14.817194
     18          1           0       15.114279   19.212889   14.771056
     19          7           0       13.570889   16.238853   16.192066
     20          6           0       12.154952   16.131155   15.833294
     21          6           0       11.602950   17.486094   15.332443
     22          8           0       12.070444   18.564572   15.746035
     23          6           0       11.337477   15.672946   17.057752
     24          6           0       11.715585   14.296850   17.644239
     25          6           0       10.833149   14.011973   18.868892
     26          6           0       11.598195   13.170395   16.608288
     27          1           0       13.816733   16.027005   17.153247
     28          1           0       12.041084   15.389537   15.032809
     29          1           0       10.283981   15.649404   16.752305
     30          1           0       11.423312   16.450018   17.828711
     31          1           0       12.759631   14.330618   17.991734
     32          1           0       10.925124   14.801238   19.623643
     33          1           0        9.777050   13.943886   18.579651
     34          1           0       11.113080   13.062778   19.337463
     35          1           0       12.301381   13.294396   15.776275
     36          1           0       11.810546   12.200332   17.069388
     37          1           0       10.582838   13.126220   16.193773
     38          7           0       10.634758   17.394444   14.421964
     39          6           0        9.986619   18.520931   13.745878
     40          6           0        8.926533   17.927847   12.782666
     41          8           0        9.214222   16.758319   12.335842
     42          6           0       11.024537   19.362962   12.940396
     43          6           0       10.478070   20.051467   11.675172
     44          6           0       10.398267   19.086315   10.462658
     45          7           0        9.183680   19.291205    9.661964
     46          6           0        8.219824   18.397520    9.401610
     47          7           0        8.256003   17.143144    9.844707
     48          7           0        7.224448   18.769488    8.553316
     49          8           0        7.997573   18.666434   12.434407
     50          1           0       10.354030   16.500608   14.017298
     51          1           0        9.488881   19.157966   14.480264
     52          1           0       11.844367   18.698047   12.642345
     53          1           0       11.452995   20.113601   13.611405
     54          1           0        9.482302   20.447354   11.890569
     55          1           0       11.132013   20.892589   11.420177
     56          1           0       10.408616   18.048419   10.791195
     57          1           0       11.267352   19.225777    9.809756
     58          1           0        8.950771   20.256935    9.470497
     59          1           0        8.617663   16.912800   10.813725
     60          1           0        7.534913   16.523888    9.498928
     61          1           0        6.312689   18.348211    8.662503
     62          1           0        7.235350   19.684134    8.124934
 ---------------------------------------------------------------------
 Rotational constants (GHZ):           0.2023472           0.1043997           0.0804252
 Standard basis: 6-31G(d) (6D, 7F)
   501 basis functions,   944 primitive gaussians,   501 cartesian basis functions
   112 alpha electrons      112 beta electrons
       nuclear repulsion energy      3160.3667782162 Hartrees.
 NAtoms=   62 NActive=   62 NUniq=   62 SFac= 1.00D+00 NAtFMM=   60 NAOKFM=T Big=T
 Integral buffers will be    131072 words long.
 Raffenetti 2 integral format.
 Two-electron integral symmetry is turned off.
 Nuclear repulsion after empirical dispersion term =     3160.2824801173 Hartrees.
 One-electron integrals computed using PRISM.
 NBasis=   501 RedAO= T EigKep=  1.61D-03  NBF=   501
 NBsUse=   501 1.00D-06 EigRej= -1.00D+00 NBFU=   501
 Initial guess from the checkpoint file:  "conf-234.chk"
 B after Tr=     0.000000    0.000000    0.000000
         Rot=    1.000000    0.000000    0.000000    0.000000 Ang=   0.00 deg.
 Requested convergence on RMS density matrix=1.00D-08 within 128 cycles.
 Requested convergence on MAX density matrix=1.00D-06.
 Requested convergence on             energy=1.00D-06.
 No special actions if energy rises.
 SCF Done:  E(RB3LYP) =  -1447.48217366     A.U. after    1 cycles
            NFock=  1  Conv=0.56D-08     -V/T= 2.0093

 **********************************************************************

            Population analysis using the SCF Density.

 **********************************************************************

 Alpha  occ. eigenvalues --  -19.33444 -19.28408 -19.23736 -19.23066 -19.17803
 Alpha  occ. eigenvalues --  -19.16385 -14.55820 -14.48746 -14.48503 -14.48034
 Alpha  occ. eigenvalues --  -14.46466 -14.45502 -10.46695 -10.44203 -10.41479
 Alpha  occ. eigenvalues --  -10.40004 -10.38722 -10.35119 -10.34974 -10.34938
 Alpha  occ. eigenvalues --  -10.33987 -10.32531 -10.31055 -10.29152 -10.28827
 Alpha  occ. eigenvalues --  -10.28442 -10.28143 -10.26012 -10.25284  -1.24404
 Alpha  occ. eigenvalues --   -1.16541  -1.16071  -1.14578  -1.12636  -1.10934
 Alpha  occ. eigenvalues --   -1.10583  -1.04477  -1.03159  -1.02485  -1.01405
 Alpha  occ. eigenvalues --   -0.99870  -0.94533  -0.91059  -0.89298  -0.86873
 Alpha  occ. eigenvalues --   -0.85749  -0.82842  -0.79295  -0.77939  -0.76779
 Alpha  occ. eigenvalues --   -0.75379  -0.74705  -0.74065  -0.72413  -0.71341
 Alpha  occ. eigenvalues --   -0.70183  -0.69830  -0.68919  -0.67075  -0.66550
 Alpha  occ. eigenvalues --   -0.65877  -0.65017  -0.64070  -0.63363  -0.61582
 Alpha  occ. eigenvalues --   -0.61387  -0.60965  -0.59999  -0.59678  -0.58886
 Alpha  occ. eigenvalues --   -0.58474  -0.57880  -0.56811  -0.56086  -0.55218
 Alpha  occ. eigenvalues --   -0.54838  -0.54600  -0.53803  -0.53286  -0.52836
 Alpha  occ. eigenvalues --   -0.52801  -0.51836  -0.51115  -0.50770  -0.50606
 Alpha  occ. eigenvalues --   -0.50157  -0.49301  -0.48826  -0.48745  -0.48143
 Alpha  occ. eigenvalues --   -0.47908  -0.46728  -0.46552  -0.46276  -0.45773
 Alpha  occ. eigenvalues --   -0.45460  -0.45192  -0.43770  -0.43022  -0.42146
 Alpha  occ. eigenvalues --   -0.41928  -0.41788  -0.41552  -0.39187  -0.38074
 Alpha  occ. eigenvalues --   -0.37770  -0.36956  -0.36351  -0.36300  -0.33185
 Alpha  occ. eigenvalues --   -0.32488  -0.30428
 Alpha virt. eigenvalues --   -0.13455  -0.11300  -0.09992  -0.08866  -0.07183
 Alpha virt. eigenvalues --   -0.05335  -0.04912  -0.04107  -0.03039  -0.02128
 Alpha virt. eigenvalues --   -0.01648  -0.01144  -0.00813  -0.00065   0.00027
 Alpha virt. eigenvalues --    0.01521   0.01620   0.02584   0.02982   0.03122
 Alpha virt. eigenvalues --    0.03441   0.04004   0.04275   0.04553   0.05062
 Alpha virt. eigenvalues --    0.05159   0.05725   0.06342   0.06796   0.07207
 Alpha virt. eigenvalues --    0.07692   0.08032   0.08224   0.08815   0.09254
 Alpha virt. eigenvalues --    0.10538   0.10726   0.11175   0.11524   0.11886
 Alpha virt. eigenvalues --    0.12166   0.12713   0.13098   0.13579   0.13856
 Alpha virt. eigenvalues --    0.14526   0.14581   0.15646   0.16096   0.16575
 Alpha virt. eigenvalues --    0.17796   0.18078   0.18706   0.19360   0.19633
 Alpha virt. eigenvalues --    0.20192   0.21749   0.23674   0.24994   0.26887
 Alpha virt. eigenvalues --    0.27434   0.28953   0.29297   0.31475   0.32360
 Alpha virt. eigenvalues --    0.36221   0.36760   0.38071   0.39052   0.39562
 Alpha virt. eigenvalues --    0.40686   0.41131   0.41518   0.42592   0.43036
 Alpha virt. eigenvalues --    0.43565   0.44016   0.44289   0.44972   0.45644
 Alpha virt. eigenvalues --    0.46777   0.47041   0.47138   0.47745   0.47949
 Alpha virt. eigenvalues --    0.49093   0.49421   0.50358   0.50709   0.51733
 Alpha virt. eigenvalues --    0.51896   0.52412   0.53221   0.53405   0.53905
 Alpha virt. eigenvalues --    0.54679   0.55418   0.55954   0.56095   0.56689
 Alpha virt. eigenvalues --    0.57197   0.57973   0.58754   0.59216   0.59590
 Alpha virt. eigenvalues --    0.60724   0.60970   0.61843   0.62120   0.63355
 Alpha virt. eigenvalues --    0.63641   0.64421   0.64643   0.65155   0.65756
 Alpha virt. eigenvalues --    0.66891   0.68148   0.68595   0.69409   0.70387
 Alpha virt. eigenvalues --    0.70453   0.70914   0.72161   0.72213   0.73279
 Alpha virt. eigenvalues --    0.74041   0.74243   0.75094   0.75430   0.75748
 Alpha virt. eigenvalues --    0.75873   0.76222   0.76380   0.76851   0.77033
 Alpha virt. eigenvalues --    0.77941   0.78139   0.78810   0.79142   0.79527
 Alpha virt. eigenvalues --    0.79811   0.80704   0.81034   0.81491   0.81867
 Alpha virt. eigenvalues --    0.82138   0.82614   0.83111   0.83333   0.83993
 Alpha virt. eigenvalues --    0.84533   0.85121   0.85507   0.85757   0.86789
 Alpha virt. eigenvalues --    0.87066   0.87268   0.87925   0.89488   0.90062
 Alpha virt. eigenvalues --    0.90663   0.91397   0.91528   0.92243   0.92680
 Alpha virt. eigenvalues --    0.93765   0.94882   0.95188   0.95739   0.97166
 Alpha virt. eigenvalues --    0.98555   0.99350   1.00025   1.00303   1.00976
 Alpha virt. eigenvalues --    1.02687   1.03209   1.05121   1.05656   1.06930
 Alpha virt. eigenvalues --    1.07723   1.08965   1.09554   1.11254   1.11974
 Alpha virt. eigenvalues --    1.13087   1.14370   1.15847   1.16410   1.18096
 Alpha virt. eigenvalues --    1.18838   1.19186   1.19984   1.21083   1.22789
 Alpha virt. eigenvalues --    1.23257   1.24151   1.24401   1.26914   1.27888
 Alpha virt. eigenvalues --    1.29295   1.30707   1.31400   1.33393   1.34338
 Alpha virt. eigenvalues --    1.35436   1.36408   1.37318   1.38053   1.38642
 Alpha virt. eigenvalues --    1.39739   1.40492   1.42059   1.45093   1.45184
 Alpha virt. eigenvalues --    1.46111   1.47508   1.49217   1.50394   1.52078
 Alpha virt. eigenvalues --    1.52660   1.53425   1.56633   1.57023   1.57812
 Alpha virt. eigenvalues --    1.58244   1.59226   1.60284   1.61108   1.61487
 Alpha virt. eigenvalues --    1.61987   1.63371   1.63838   1.64775   1.65594
 Alpha virt. eigenvalues --    1.66253   1.67232   1.67913   1.68593   1.70028
 Alpha virt. eigenvalues --    1.70285   1.71124   1.72211   1.72734   1.73803
 Alpha virt. eigenvalues --    1.74161   1.75243   1.75264   1.76018   1.76634
 Alpha virt. eigenvalues --    1.77075   1.77651   1.78284   1.78826   1.79718
 Alpha virt. eigenvalues --    1.79989   1.80911   1.81442   1.81654   1.82947
 Alpha virt. eigenvalues --    1.84267   1.84433   1.85315   1.86490   1.87519
 Alpha virt. eigenvalues --    1.88211   1.89708   1.89897   1.90299   1.90729
 Alpha virt. eigenvalues --    1.91708   1.92407   1.92771   1.93824   1.94675
 Alpha virt. eigenvalues --    1.95510   1.97440   1.97877   1.99586   2.00260
 Alpha virt. eigenvalues --    2.00602   2.01710   2.02370   2.03449   2.04215
 Alpha virt. eigenvalues --    2.06328   2.07319   2.08190   2.10023   2.10819
 Alpha virt. eigenvalues --    2.11184   2.13002   2.14550   2.15594   2.15854
 Alpha virt. eigenvalues --    2.17407   2.18453   2.19413   2.20074   2.21029
 Alpha virt. eigenvalues --    2.22235   2.22518   2.23756   2.24074   2.25406
 Alpha virt. eigenvalues --    2.26150   2.27339   2.28903   2.30701   2.31737
 Alpha virt. eigenvalues --    2.32522   2.32919   2.33440   2.34322   2.35208
 Alpha virt. eigenvalues --    2.36428   2.36876   2.39379   2.39805   2.42590
 Alpha virt. eigenvalues --    2.42862   2.43684   2.43864   2.46303   2.47195
 Alpha virt. eigenvalues --    2.47386   2.48660   2.49637   2.52167   2.52994
 Alpha virt. eigenvalues --    2.54122   2.55112   2.56200   2.57893   2.59073
 Alpha virt. eigenvalues --    2.59495   2.62026   2.63105   2.63952   2.64891
 Alpha virt. eigenvalues --    2.65350   2.67455   2.70315   2.71851   2.71942
 Alpha virt. eigenvalues --    2.74488   2.79943   2.83087   2.86102   2.87234
 Alpha virt. eigenvalues --    2.88824   2.89322   2.90662   2.94288   2.94755
 Alpha virt. eigenvalues --    2.97575   2.99898   3.02948   3.07170   3.13939
 Alpha virt. eigenvalues --    3.68026   3.72314   3.73794   3.82545   3.84319
 Alpha virt. eigenvalues --    3.86528   3.94571   3.98629   4.01172   4.05223
 Alpha virt. eigenvalues --    4.06967   4.09610   4.14108   4.18375   4.19880
 Alpha virt. eigenvalues --    4.20538   4.20793   4.27110   4.27912   4.29245
 Alpha virt. eigenvalues --    4.30875   4.35319   4.38921   4.42184   4.45943
 Alpha virt. eigenvalues --    4.49799   4.54632   4.62364   4.67588
          Condensed to atoms (all electrons):
 Mulliken charges:
               1
     1  N   -0.778840
     2  C   -0.108783
     3  C    0.614821
     4  O   -0.501495
     5  C   -0.283057
     6  C   -0.431045
     7  C    0.647107
     8  O   -0.479357
     9  O   -0.537852
    10  H    0.437450
    11  H    0.438912
    12  H    0.195888
    13  H    0.208369
    14  H    0.193956
    15  H    0.211901
    16  H    0.200267
    17  H    0.450937
    18  H    0.404886
    19  N   -0.598686
    20  C   -0.031548
    21  C    0.602660
    22  O   -0.592449
    23  C   -0.302210
    24  C   -0.086269
    25  C   -0.446111
    26  C   -0.453113
    27  H    0.361836
    28  H    0.161632
    29  H    0.168407
    30  H    0.172235
    31  H    0.128680
    32  H    0.155024
    33  H    0.154693
    34  H    0.163288
    35  H    0.137712
    36  H    0.168909
    37  H    0.152753
    38  N   -0.603484
    39  C    0.010383
    40  C    0.572848
    41  O   -0.643411
    42  C   -0.309974
    43  C   -0.292844
    44  C   -0.163038
    45  N   -0.587799
    46  C    0.798819
    47  N   -0.770549
    48  N   -0.762523
    49  O   -0.561497
    50  H    0.361896
    51  H    0.186269
    52  H    0.119972
    53  H    0.157823
    54  H    0.197817
    55  H    0.152057
    56  H    0.189178
    57  H    0.181081
    58  H    0.346786
    59  H    0.435288
    60  H    0.349078
    61  H    0.372225
    62  H    0.362087
 Sum of Mulliken charges =   1.00000
 Mulliken charges with hydrogens summed into heavy atoms:
               1
     1  N    0.515895
     2  C    0.087105
     3  C    0.614821
     4  O   -0.501495
     5  C    0.119268
     6  C   -0.018877
     7  C    0.647107
     8  O   -0.479357
     9  O   -0.100402
    19  N   -0.236849
    20  C    0.130084
    21  C    0.602660
    22  O   -0.592449
    23  C    0.038433
    24  C    0.042411
    25  C    0.026895
    26  C    0.006261
    38  N   -0.241588
    39  C    0.196652
    40  C    0.572848
    41  O   -0.643411
    42  C   -0.032179
    43  C    0.057030
    44  C    0.207222
    45  N   -0.241013
    46  C    0.798819
    47  N    0.013818
    48  N   -0.028212
    49  O   -0.561497
 Electronic spatial extent (au):  <R**2>=         508528.5098
 Charge=              1.0000 electrons
 Dipole moment (field-independent basis, Debye):
    X=             57.8513    Y=             83.5270    Z=             55.2597  Tot=            115.6597
 Quadrupole moment (field-independent basis, Debye-Ang):
   XX=            573.6568   YY=           1307.4935   ZZ=            516.9207
   XY=            995.9081   XZ=            696.2902   YZ=            938.8463
 Traceless Quadrupole moment (field-independent basis, Debye-Ang):
   XX=           -225.7002   YY=            508.1364   ZZ=           -282.4363
   XY=            995.9081   XZ=            696.2902   YZ=            938.8463
 Octapole moment (field-independent basis, Debye-Ang**2):
  XXX=           3989.8415  YYY=          17717.6737  ZZZ=           2363.6768  XYY=          15436.9701
  XXY=           9777.1163  XXZ=           6800.5673  XZZ=           6892.6526  YZZ=           8400.1235
  YYZ=          13970.4163  XYZ=          11813.1377
 Hexadecapole moment (field-independent basis, Debye-Ang**3):
 XXXX=          -8891.8992 YYYY=         174790.4089 ZZZZ=         -59966.6271 XXXY=          66825.7044
 XXXZ=          39854.3639 YYYX=         206608.1216 YYYZ=         169428.2846 ZZZX=          38479.7924
 ZZZY=          30435.3554 XXYY=         145156.3101 XXZZ=          59588.7477 YYZZ=         107582.7325
 XXYZ=         115272.4759 YYXZ=         176985.9454 ZZXY=         113494.5554
 N-N= 3.160282480117D+03 E-N=-9.671162585828D+03  KE= 1.434087535646D+03
 Unable to Open any file for archive entry.
 1\1\GINC-AMR-177\SP\RB3LYP\6-31G(d)\C17H33N6O6(1+)\KENGMITH\24-May-202
 2\0\\# B3LYP/6-31G* empiricaldispersion=gd3 guess=read geom=check nosy
 mm integral(ultrafinegrid)\\Candidate Structure: Conf:234 Charge calc 
 in gas phase\\1,1\N,0,14.2716043305,18.9311353322,14.2552662359\C,0,14
 .2773964322,17.4301348607,14.1162404137\C,0,14.5409667837,16.933729170
 5,15.5522280624\O,0,15.6283568311,17.2165515461,16.0432295866\C,0,15.3
 713954841,16.9690937662,13.1329027246\C,0,14.8775296211,16.7602809535,
 11.6929522694\C,0,14.2851614465,17.9858315593,11.0110259163\O,0,14.139
 6705397,19.075377345,11.5351893955\O,0,13.8680011432,17.8229202475,9.7
 469907074\H,0,14.0517439525,16.9257638302,9.4179848892\H,0,14.24988285
 4,19.3495588672,13.3064198126\H,0,13.2922953366,17.159925464,13.735907
 955\H,0,15.7756180126,16.0173010632,13.4889590824\H,0,16.2108533637,17
 .6713476262,13.1562889303\H,0,15.7073614167,16.3909247604,11.075679709
 8\H,0,14.1102990624,15.9725866165,11.6687784487\H,0,13.4215088014,19.1
 780296076,14.8171940113\H,0,15.1142786352,19.2128887231,14.771056321\N
 ,0,13.5708893731,16.2388528822,16.1920664182\C,0,12.1549523205,16.1311
 547764,15.8332941754\C,0,11.602950055,17.4860935291,15.3324433069\O,0,
 12.0704436643,18.5645716026,15.7460350886\C,0,11.3374767893,15.6729456
 086,17.0577516149\C,0,11.7155845858,14.2968496783,17.6442394048\C,0,10
 .8331493509,14.0119727754,18.8688919194\C,0,11.5981946173,13.170394500
 7,16.6082880703\H,0,13.8167332836,16.0270050786,17.1532468903\H,0,12.0
 410836508,15.3895368033,15.0328085732\H,0,10.2839807794,15.6494039759,
 16.7523046497\H,0,11.4233124453,16.4500182175,17.828711005\H,0,12.7596
 307887,14.3306181353,17.991734371\H,0,10.9251237773,14.8012375123,19.6
 236433865\H,0,9.7770495949,13.9438857742,18.5796512391\H,0,11.1130799,
 13.0627784184,19.337463036\H,0,12.3013810999,13.2943955376,15.77627451
 37\H,0,11.8105457002,12.2003315562,17.0693883459\H,0,10.5828376922,13.
 1262201487,16.1937729351\N,0,10.6347584244,17.3944442142,14.4219636359
 \C,0,9.9866185218,18.5209312344,13.7458777858\C,0,8.9265328977,17.9278
 47379,12.782665796\O,0,9.2142215419,16.7583185987,12.3358419617\C,0,11
 .0245371113,19.3629616065,12.9403955641\C,0,10.4780699712,20.051467098
 7,11.675172029\C,0,10.398267093,19.0863147403,10.4626576841\N,0,9.1836
 801068,19.2912046475,9.661963557\C,0,8.2198240126,18.3975204775,9.4016
 102408\N,0,8.2560031328,17.1431438002,9.8447070624\N,0,7.2244477546,18
 .769487783,8.5533159845\O,0,7.9975733373,18.6664341991,12.4344073392\H
 ,0,10.3540299019,16.5006083032,14.0172978202\H,0,9.488880947,19.157966
 4977,14.4802642816\H,0,11.844366745,18.6980465554,12.6423449663\H,0,11
 .4529950283,20.1136008106,13.6114048864\H,0,9.4823023333,20.4473535897
 ,11.8905693815\H,0,11.132012625,20.8925891666,11.4201765576\H,0,10.408
 6163229,18.0484189401,10.7911950565\H,0,11.2673515452,19.2257771843,9.
 8097564118\H,0,8.9507708721,20.2569345269,9.4704965375\H,0,8.617663306
 4,16.9128003621,10.8137247543\H,0,7.5349126704,16.5238877723,9.4989283
 729\H,0,6.3126885121,18.3482113229,8.6625027924\H,0,7.2353501992,19.68
 41342785,8.1249344448\\Version=ES64L-G16RevC.01\HF=-1447.4821737\RMSD=
 5.639e-09\Dipole=0.7728104,-0.0724971,-3.559654\Quadrupole=-167.802550
 7,377.786995,-209.9844443,740.4332657,517.6746909,698.0092107\PG=C01 [
 X(C17H33N6O6)]\\@
 The archive entry for this job was punched.


 NEVER TEACH A PIG TO SING.
 IT WASTES YOUR TIME AND ANNOYS THE PIG.
     -- SEEN ON A GREETING CARD
 Job cpu time:       0 days  0 hours  1 minutes  4.5 seconds.
 Elapsed time:       0 days  0 hours  0 minutes 16.5 seconds.
 File lengths (MBytes):  RWF=    248 Int=      0 D2E=      0 Chk=     32 Scr=     16
 Normal termination of Gaussian 16 at Tue May 24 03:31:54 2022.
