 Entering Gaussian System, Link 0=/opt/software/Gaussian/g16-AVX2-C.01/g16/g16
 Input=charge-conf-156.com
 Output=charge-conf-156.log
 Initial command:
 /opt/software/Gaussian/g16-AVX2-C.01/g16/l1.exe "/mnt/gs18/scratch/users/kengmith/Gau-90388.inp" -scrdir="/mnt/gs18/scratch/users/kengmith/"
 Entering Link 1 = /opt/software/Gaussian/g16-AVX2-C.01/g16/l1.exe PID=     90398.
  
 Copyright (c) 1988-2019, Gaussian, Inc.  All Rights Reserved.
  
 This is part of the Gaussian(R) 16 program.  It is based on
 the Gaussian(R) 09 system (copyright 2009, Gaussian, Inc.),
 the Gaussian(R) 03 system (copyright 2003, Gaussian, Inc.),
 the Gaussian(R) 98 system (copyright 1998, Gaussian, Inc.),
 the Gaussian(R) 94 system (copyright 1995, Gaussian, Inc.),
 the Gaussian 92(TM) system (copyright 1992, Gaussian, Inc.),
 the Gaussian 90(TM) system (copyright 1990, Gaussian, Inc.),
 the Gaussian 88(TM) system (copyright 1988, Gaussian, Inc.),
 the Gaussian 86(TM) system (copyright 1986, Carnegie Mellon
 University), and the Gaussian 82(TM) system (copyright 1983,
 Carnegie Mellon University). Gaussian is a federally registered
 trademark of Gaussian, Inc.
  
 This software contains proprietary and confidential information,
 including trade secrets, belonging to Gaussian, Inc.
  
 This software is provided under written license and may be
 used, copied, transmitted, or stored only in accord with that
 written license.
  
 The following legend is applicable only to US Government
 contracts under FAR:
  
                    RESTRICTED RIGHTS LEGEND
  
 Use, reproduction and disclosure by the US Government is
 subject to restrictions as set forth in subparagraphs (a)
 and (c) of the Commercial Computer Software - Restricted
 Rights clause in FAR 52.227-19.
  
 Gaussian, Inc.
 340 Quinnipiac St., Bldg. 40, Wallingford CT 06492
  
  
 ---------------------------------------------------------------
 Warning -- This program may not be used in any manner that
 competes with the business of Gaussian, Inc. or will provide
 assistance to any competitor of Gaussian, Inc.  The licensee
 of this program is prohibited from giving any competitor of
 Gaussian, Inc. access to this program.  By using this program,
 the user acknowledges that Gaussian, Inc. is engaged in the
 business of creating and licensing software in the field of
 computational chemistry and represents and warrants to the
 licensee that it is not a competitor of Gaussian, Inc. and that
 it will not use this program in any manner prohibited above.
 ---------------------------------------------------------------
  

 Cite this work as:
 Gaussian 16, Revision C.01,
 M. J. Frisch, G. W. Trucks, H. B. Schlegel, G. E. Scuseria, 
 M. A. Robb, J. R. Cheeseman, G. Scalmani, V. Barone, 
 G. A. Petersson, H. Nakatsuji, X. Li, M. Caricato, A. V. Marenich, 
 J. Bloino, B. G. Janesko, R. Gomperts, B. Mennucci, H. P. Hratchian, 
 J. V. Ortiz, A. F. Izmaylov, J. L. Sonnenberg, D. Williams-Young, 
 F. Ding, F. Lipparini, F. Egidi, J. Goings, B. Peng, A. Petrone, 
 T. Henderson, D. Ranasinghe, V. G. Zakrzewski, J. Gao, N. Rega, 
 G. Zheng, W. Liang, M. Hada, M. Ehara, K. Toyota, R. Fukuda, 
 J. Hasegawa, M. Ishida, T. Nakajima, Y. Honda, O. Kitao, H. Nakai, 
 T. Vreven, K. Throssell, J. A. Montgomery, Jr., J. E. Peralta, 
 F. Ogliaro, M. J. Bearpark, J. J. Heyd, E. N. Brothers, K. N. Kudin, 
 V. N. Staroverov, T. A. Keith, R. Kobayashi, J. Normand, 
 K. Raghavachari, A. P. Rendell, J. C. Burant, S. S. Iyengar, 
 J. Tomasi, M. Cossi, J. M. Millam, M. Klene, C. Adamo, R. Cammi, 
 J. W. Ochterski, R. L. Martin, K. Morokuma, O. Farkas, 
 J. B. Foresman, and D. J. Fox, Gaussian, Inc., Wallingford CT, 2019.
 
 ******************************************
 Gaussian 16:  ES64L-G16RevC.01  3-Jul-2019
                24-May-2022 
 ******************************************
 %mem=8gb
 %nproc=4
 Will use up to    4 processors via shared memory.
 %chk=conf-156.chk
 ----------------------------------------------------------------------
 # B3LYP/6-31G* empiricaldispersion=gd3 guess=read geom=check nosymm in
 tegral(ultrafinegrid)
 ----------------------------------------------------------------------
 1/29=2,38=1,172=1/1;
 2/12=2,15=1,40=1/2;
 3/5=1,6=6,7=1,11=2,14=-4,25=1,30=1,74=-5,75=-5,116=-2,124=31/1,2,3;
 4/5=1/1;
 5/5=2,38=6/2;
 6/7=2,8=2,9=2,10=2,28=1/1;
 99/5=1,9=1/99;
 ------------------------------------------------------
 Candidate Structure: Conf:156 Charge calc in gas phase
 ------------------------------------------------------
 Structure from the checkpoint file:  "conf-156.chk"
 Charge =  1 Multiplicity = 1
 Redundant internal coordinates found in file.  (old form).
 N,0,11.6434919391,17.6649147373,10.168395382
 C,0,11.2343388006,16.4490580265,10.968870824
 C,0,12.459488618,15.5205379301,10.8334008012
 O,0,12.7877520781,15.2090260851,9.6934796893
 C,0,9.9753469153,15.7515817457,10.4386253826
 C,0,8.7320458714,16.6595206689,10.2245108544
 C,0,8.6958153611,17.7759527792,11.2390446487
 O,0,9.1981040983,18.8759376941,11.0209102526
 O,0,8.1887009649,17.4282897836,12.4191651699
 H,0,8.3313388027,18.1697283582,13.0626157351
 H,0,10.8798228897,18.3604937039,10.1172064143
 H,0,11.0697479937,16.8143837217,11.9816719573
 H,0,9.7374799393,14.9747981109,11.1730523214
 H,0,10.2177261013,15.243188326,9.5009893448
 H,0,8.7621243856,17.1265603793,9.2366569121
 H,0,7.8282355696,16.0486937609,10.2877912054
 H,0,12.4651520779,18.0548983355,10.6848719546
 H,0,11.9510834542,17.3580095728,9.2363550146
 N,0,13.0774015025,15.0942898911,11.9561456684
 C,0,13.0109077041,15.7105031343,13.2768779173
 C,0,13.3240365686,17.2422393072,13.2051856328
 O,0,13.5676088207,17.7963501771,12.1152671609
 C,0,13.9715145711,14.9625015234,14.2245548699
 C,0,13.6921245891,13.454777514,14.3942529595
 C,0,14.7351349204,12.8525315172,15.3474840322
 C,0,12.267257851,13.1837506517,14.8968916652
 H,0,13.9094163706,14.5483743659,11.7545279192
 H,0,11.9909565046,15.6055107081,13.6685756901
 H,0,13.9228278533,15.4365968557,15.2108125415
 H,0,14.9981002507,15.1169051477,13.8642364048
 H,0,13.8062037063,12.9610660368,13.4183655943
 H,0,14.6488515148,13.2922144172,16.3489832341
 H,0,14.5942484122,11.7710892495,15.4444755458
 H,0,15.7561981461,13.0282465317,14.9900188867
 H,0,11.504999256,13.4951722855,14.1724344014
 H,0,12.1209669498,12.1141416143,15.0788784592
 H,0,12.0781007675,13.7102343144,15.841439231
 N,0,13.2536982144,17.8473105187,14.3897978245
 C,0,13.480569709,19.2487945594,14.7891770913
 C,0,12.7385415966,19.4622561584,16.1502291616
 O,0,12.930023369,20.516959776,16.7398030274
 C,0,12.9585914666,20.3191166604,13.800060383
 C,0,11.4556294019,20.6267517353,13.9271296829
 C,0,10.5644396603,19.3907009258,13.7842260501
 N,0,9.1385687264,19.6643507314,14.0971234027
 C,0,8.7382693841,19.8299316652,15.4097864599
 N,0,9.4578165099,19.4058432671,16.4223975871
 N,0,7.5354447489,20.4176088194,15.5958172675
 O,0,11.8794655272,18.5273204514,16.4317098148
 H,0,12.8643365871,17.3278080048,15.1764965043
 H,0,14.5555904724,19.3962151435,14.928948106
 H,0,13.2228781444,20.0308131966,12.7804538344
 H,0,13.498470673,21.2409320015,14.0323356591
 H,0,11.2802782168,21.0910706086,14.9029922491
 H,0,11.1705122857,21.3642633939,13.1645321201
 H,0,10.8866771499,18.5848125086,14.4391834948
 H,0,10.5824856681,19.0313133791,12.7573695061
 H,0,8.7547566577,20.3792773009,13.4818432501
 H,0,10.5091485425,19.0517916312,16.42311539
 H,0,9.0605583195,19.4980464299,17.3503335058
 H,0,7.1620220508,20.553194728,16.5243705614
 H,0,6.9020132875,20.5766156625,14.8258495072
 Recover connectivity data from disk.
                           ----------------------------
                           !    Current Parameters    !
                           ! (Angstroms and Degrees)  !
 --------------------------                            --------------------------
 ! Name  Definition              Value                                          !
 --------------------------------------------------------------------------------
 ! R1    R(1,2)                  1.5121                                         !
 ! R2    R(1,11)                 1.0342                                         !
 ! R3    R(1,17)                 1.0459                                         !
 ! R4    R(1,18)                 1.0283                                         !
 ! R5    R(2,3)                  1.5432                                         !
 ! R6    R(2,5)                  1.5338                                         !
 ! R7    R(2,12)                 1.0892                                         !
 ! R8    R(3,4)                  1.2265                                         !
 ! R9    R(3,19)                 1.3506                                         !
 ! R10   R(5,6)                  1.5543                                         !
 ! R11   R(5,13)                 1.0952                                         !
 ! R12   R(5,14)                 1.0938                                         !
 ! R13   R(6,7)                  1.509                                          !
 ! R14   R(6,15)                 1.0931                                         !
 ! R15   R(6,16)                 1.0927                                         !
 ! R16   R(7,8)                  1.2288                                         !
 ! R17   R(7,9)                  1.3307                                         !
 ! R18   R(9,10)                 0.992                                          !
 ! R19   R(19,20)                1.4589                                         !
 ! R20   R(19,27)                1.0153                                         !
 ! R21   R(20,21)                1.5651                                         !
 ! R22   R(20,23)                1.5428                                         !
 ! R23   R(20,28)                1.0976                                         !
 ! R24   R(21,22)                1.2467                                         !
 ! R25   R(21,38)                1.3321                                         !
 ! R26   R(23,24)                1.5428                                         !
 ! R27   R(23,29)                1.0954                                         !
 ! R28   R(23,30)                1.0989                                         !
 ! R29   R(24,25)                1.536                                          !
 ! R30   R(24,26)                1.535                                          !
 ! R31   R(24,31)                1.0996                                         !
 ! R32   R(25,32)                1.0972                                         !
 ! R33   R(25,33)                1.0949                                         !
 ! R34   R(25,34)                1.096                                          !
 ! R35   R(26,35)                1.0967                                         !
 ! R36   R(26,36)                1.0948                                         !
 ! R37   R(26,37)                1.0978                                         !
 ! R38   R(38,39)                1.4748                                         !
 ! R39   R(38,50)                1.02                                           !
 ! R40   R(39,40)                1.5648                                         !
 ! R41   R(39,42)                1.548                                          !
 ! R42   R(39,51)                1.094                                          !
 ! R43   R(40,41)                1.2234                                         !
 ! R44   R(40,49)                1.3005                                         !
 ! R45   R(42,43)                1.5394                                         !
 ! R46   R(42,52)                1.092                                          !
 ! R47   R(42,53)                1.0932                                         !
 ! R48   R(43,44)                1.5305                                         !
 ! R49   R(43,54)                1.0948                                         !
 ! R50   R(43,55)                1.0985                                         !
 ! R51   R(44,45)                1.4852                                         !
 ! R52   R(44,56)                1.0873                                         !
 ! R53   R(44,57)                1.0881                                         !
 ! R54   R(45,46)                1.3823                                         !
 ! R55   R(45,58)                1.0183                                         !
 ! R56   R(46,47)                1.3126                                         !
 ! R57   R(46,48)                1.3516                                         !
 ! R58   R(47,59)                1.1093                                         !
 ! R59   R(47,60)                1.0136                                         !
 ! R60   R(48,61)                1.01                                           !
 ! R61   R(48,62)                1.0096                                         !
 ! A1    A(2,1,11)             111.5425                                         !
 ! A2    A(2,1,17)             104.5349                                         !
 ! A3    A(2,1,18)             108.7089                                         !
 ! A4    A(11,1,17)            110.7161                                         !
 ! A5    A(11,1,18)            112.1308                                         !
 ! A6    A(17,1,18)            108.8961                                         !
 ! A7    A(1,2,3)              102.8566                                         !
 ! A8    A(1,2,5)              113.874                                          !
 ! A9    A(1,2,12)             105.2745                                         !
 ! A10   A(3,2,5)              110.3461                                         !
 ! A11   A(3,2,12)             113.7915                                         !
 ! A12   A(5,2,12)             110.4835                                         !
 ! A13   A(2,3,4)              116.5449                                         !
 ! A14   A(2,3,19)             118.6945                                         !
 ! A15   A(4,3,19)             124.7524                                         !
 ! A16   A(2,5,6)              116.0117                                         !
 ! A17   A(2,5,13)             105.6037                                         !
 ! A18   A(2,5,14)             109.0147                                         !
 ! A19   A(6,5,13)             109.4487                                         !
 ! A20   A(6,5,14)             109.3094                                         !
 ! A21   A(13,5,14)            107.0573                                         !
 ! A22   A(5,6,7)              111.0243                                         !
 ! A23   A(5,6,15)             110.6129                                         !
 ! A24   A(5,6,16)             109.0932                                         !
 ! A25   A(7,6,15)             106.9863                                         !
 ! A26   A(7,6,16)             110.7807                                         !
 ! A27   A(15,6,16)            108.2966                                         !
 ! A28   A(6,7,8)              122.2188                                         !
 ! A29   A(6,7,9)              114.3374                                         !
 ! A30   A(8,7,9)              123.1687                                         !
 ! A31   A(7,9,10)             108.9758                                         !
 ! A32   A(3,19,20)            126.7559                                         !
 ! A33   A(3,19,27)            112.3043                                         !
 ! A34   A(20,19,27)           116.3725                                         !
 ! A35   A(19,20,21)           111.2718                                         !
 ! A36   A(19,20,23)           108.8387                                         !
 ! A37   A(19,20,28)           108.9662                                         !
 ! A38   A(21,20,23)           112.2138                                         !
 ! A39   A(21,20,28)           107.2106                                         !
 ! A40   A(23,20,28)           108.2397                                         !
 ! A41   A(20,21,22)           120.9394                                         !
 ! A42   A(20,21,38)           113.1579                                         !
 ! A43   A(22,21,38)           125.8662                                         !
 ! A44   A(20,23,24)           115.3801                                         !
 ! A45   A(20,23,29)           108.3935                                         !
 ! A46   A(20,23,30)           108.1876                                         !
 ! A47   A(24,23,29)           108.4152                                         !
 ! A48   A(24,23,30)           110.0335                                         !
 ! A49   A(29,23,30)           106.018                                          !
 ! A50   A(23,24,25)           109.1765                                         !
 ! A51   A(23,24,26)           112.1275                                         !
 ! A52   A(23,24,31)           108.8074                                         !
 ! A53   A(25,24,26)           110.9698                                         !
 ! A54   A(25,24,31)           107.7151                                         !
 ! A55   A(26,24,31)           107.9164                                         !
 ! A56   A(24,25,32)           110.8523                                         !
 ! A57   A(24,25,33)           110.7859                                         !
 ! A58   A(24,25,34)           111.5522                                         !
 ! A59   A(32,25,33)           107.7487                                         !
 ! A60   A(32,25,34)           107.8623                                         !
 ! A61   A(33,25,34)           107.8861                                         !
 ! A62   A(24,26,35)           112.2536                                         !
 ! A63   A(24,26,36)           110.5461                                         !
 ! A64   A(24,26,37)           110.9161                                         !
 ! A65   A(35,26,36)           107.1184                                         !
 ! A66   A(35,26,37)           108.2045                                         !
 ! A67   A(36,26,37)           107.608                                          !
 ! A68   A(21,38,39)           131.6324                                         !
 ! A69   A(21,38,50)           118.3407                                         !
 ! A70   A(39,38,50)           109.5027                                         !
 ! A71   A(38,39,40)           106.9909                                         !
 ! A72   A(38,39,42)           115.6026                                         !
 ! A73   A(38,39,51)           108.2881                                         !
 ! A74   A(40,39,42)           107.5501                                         !
 ! A75   A(40,39,51)           109.6606                                         !
 ! A76   A(42,39,51)           108.6501                                         !
 ! A77   A(39,40,41)           117.552                                          !
 ! A78   A(39,40,49)           113.7924                                         !
 ! A79   A(41,40,49)           128.2329                                         !
 ! A80   A(39,42,43)           114.4968                                         !
 ! A81   A(39,42,52)           109.4163                                         !
 ! A82   A(39,42,53)           106.3034                                         !
 ! A83   A(43,42,52)           111.4763                                         !
 ! A84   A(43,42,53)           107.224                                          !
 ! A85   A(52,42,53)           107.5457                                         !
 ! A86   A(42,43,44)           113.541                                          !
 ! A87   A(42,43,54)           108.343                                          !
 ! A88   A(42,43,55)           109.2851                                         !
 ! A89   A(44,43,54)           109.4189                                         !
 ! A90   A(44,43,55)           109.0414                                         !
 ! A91   A(54,43,55)           107.0059                                         !
 ! A92   A(43,44,45)           112.9882                                         !
 ! A93   A(43,44,56)           111.7012                                         !
 ! A94   A(43,44,57)           110.1945                                         !
 ! A95   A(45,44,56)           107.108                                          !
 ! A96   A(45,44,57)           105.9976                                         !
 ! A97   A(56,44,57)           108.5871                                         !
 ! A98   A(44,45,46)           120.0098                                         !
 ! A99   A(44,45,58)           111.3401                                         !
 ! A100  A(46,45,58)           112.3661                                         !
 ! A101  A(45,46,47)           122.3529                                         !
 ! A102  A(45,46,48)           116.1364                                         !
 ! A103  A(47,46,48)           121.4761                                         !
 ! A104  A(46,47,59)           128.5443                                         !
 ! A105  A(46,47,60)           117.5168                                         !
 ! A106  A(59,47,60)           113.5702                                         !
 ! A107  A(46,48,61)           120.928                                          !
 ! A108  A(46,48,62)           121.4562                                         !
 ! A109  A(61,48,62)           116.6174                                         !
 ! D1    D(11,1,2,3)           176.1884                                         !
 ! D2    D(11,1,2,5)            56.781                                          !
 ! D3    D(11,1,2,12)          -64.388                                          !
 ! D4    D(17,1,2,3)           -64.1268                                         !
 ! D5    D(17,1,2,5)           176.4658                                         !
 ! D6    D(17,1,2,12)           55.2969                                         !
 ! D7    D(18,1,2,3)            52.0427                                         !
 ! D8    D(18,1,2,5)           -67.3648                                         !
 ! D9    D(18,1,2,12)          171.4663                                         !
 ! D10   D(1,2,3,4)            -58.1948                                         !
 ! D11   D(1,2,3,19)           122.7954                                         !
 ! D12   D(5,2,3,4)             63.6347                                         !
 ! D13   D(5,2,3,19)          -115.3751                                         !
 ! D14   D(12,2,3,4)          -171.5192                                         !
 ! D15   D(12,2,3,19)            9.471                                          !
 ! D16   D(1,2,5,6)            -52.2022                                         !
 ! D17   D(1,2,5,13)          -173.5982                                         !
 ! D18   D(1,2,5,14)            71.6699                                         !
 ! D19   D(3,2,5,6)           -167.2676                                         !
 ! D20   D(3,2,5,13)            71.3365                                         !
 ! D21   D(3,2,5,14)           -43.3954                                         !
 ! D22   D(12,2,5,6)            66.0187                                         !
 ! D23   D(12,2,5,13)          -55.3773                                         !
 ! D24   D(12,2,5,14)         -170.1091                                         !
 ! D25   D(2,3,19,20)          -20.7747                                         !
 ! D26   D(2,3,19,27)         -175.6863                                         !
 ! D27   D(4,3,19,20)          160.3035                                         !
 ! D28   D(4,3,19,27)            5.3919                                         !
 ! D29   D(2,5,6,7)            -32.6291                                         !
 ! D30   D(2,5,6,15)            85.9879                                         !
 ! D31   D(2,5,6,16)          -154.991                                          !
 ! D32   D(13,5,6,7)            86.6933                                         !
 ! D33   D(13,5,6,15)         -154.6897                                         !
 ! D34   D(13,5,6,16)          -35.6686                                         !
 ! D35   D(14,5,6,7)          -156.3483                                         !
 ! D36   D(14,5,6,15)          -37.7314                                         !
 ! D37   D(14,5,6,16)           81.2898                                         !
 ! D38   D(5,6,7,8)             92.1129                                         !
 ! D39   D(5,6,7,9)            -82.0385                                         !
 ! D40   D(15,6,7,8)           -28.669                                          !
 ! D41   D(15,6,7,9)           157.1796                                         !
 ! D42   D(16,6,7,8)          -146.5098                                         !
 ! D43   D(16,6,7,9)            39.3388                                         !
 ! D44   D(6,7,9,10)           171.257                                          !
 ! D45   D(8,7,9,10)            -2.8316                                         !
 ! D46   D(3,19,20,21)         -50.7358                                         !
 ! D47   D(3,19,20,23)        -174.8951                                         !
 ! D48   D(3,19,20,28)          67.2687                                         !
 ! D49   D(27,19,20,21)        103.2967                                         !
 ! D50   D(27,19,20,23)        -20.8626                                         !
 ! D51   D(27,19,20,28)       -138.6988                                         !
 ! D52   D(19,20,21,22)          1.1161                                         !
 ! D53   D(19,20,21,38)        179.043                                          !
 ! D54   D(23,20,21,22)        123.3435                                         !
 ! D55   D(23,20,21,38)        -58.7296                                         !
 ! D56   D(28,20,21,22)       -117.9431                                         !
 ! D57   D(28,20,21,38)         59.9838                                         !
 ! D58   D(19,20,23,24)        -58.7688                                         !
 ! D59   D(19,20,23,29)        179.4804                                         !
 ! D60   D(19,20,23,30)         64.9397                                         !
 ! D61   D(21,20,23,24)        177.6314                                         !
 ! D62   D(21,20,23,29)         55.8806                                         !
 ! D63   D(21,20,23,30)        -58.6601                                         !
 ! D64   D(28,20,23,24)         59.526                                          !
 ! D65   D(28,20,23,29)        -62.2248                                         !
 ! D66   D(28,20,23,30)       -176.7655                                         !
 ! D67   D(20,21,38,39)        179.2568                                         !
 ! D68   D(20,21,38,50)        -10.0235                                         !
 ! D69   D(22,21,38,39)         -2.9374                                         !
 ! D70   D(22,21,38,50)        167.7823                                         !
 ! D71   D(20,23,24,25)        179.3439                                         !
 ! D72   D(20,23,24,26)        -57.2589                                         !
 ! D73   D(20,23,24,31)         62.0358                                         !
 ! D74   D(29,23,24,25)        -58.9169                                         !
 ! D75   D(29,23,24,26)         64.4802                                         !
 ! D76   D(29,23,24,31)       -176.225                                          !
 ! D77   D(30,23,24,25)         56.6121                                         !
 ! D78   D(30,23,24,26)       -179.9907                                         !
 ! D79   D(30,23,24,31)        -60.696                                          !
 ! D80   D(23,24,25,32)         63.4936                                         !
 ! D81   D(23,24,25,33)       -176.9351                                         !
 ! D82   D(23,24,25,34)        -56.7282                                         !
 ! D83   D(26,24,25,32)        -60.5881                                         !
 ! D84   D(26,24,25,33)         58.9832                                         !
 ! D85   D(26,24,25,34)        179.1901                                         !
 ! D86   D(31,24,25,32)       -178.5104                                         !
 ! D87   D(31,24,25,33)        -58.9391                                         !
 ! D88   D(31,24,25,34)         61.2678                                         !
 ! D89   D(23,24,26,35)         64.6596                                         !
 ! D90   D(23,24,26,36)       -175.8022                                         !
 ! D91   D(23,24,26,37)        -56.5216                                         !
 ! D92   D(25,24,26,35)       -172.9566                                         !
 ! D93   D(25,24,26,36)        -53.4184                                         !
 ! D94   D(25,24,26,37)         65.8622                                         !
 ! D95   D(31,24,26,35)        -55.1566                                         !
 ! D96   D(31,24,26,36)         64.3816                                         !
 ! D97   D(31,24,26,37)       -176.3379                                         !
 ! D98   D(21,38,39,40)        158.7906                                         !
 ! D99   D(21,38,39,42)         39.0517                                         !
 ! D100  D(21,38,39,51)        -83.0776                                         !
 ! D101  D(50,38,39,40)        -12.5492                                         !
 ! D102  D(50,38,39,42)       -132.2881                                         !
 ! D103  D(50,38,39,51)        105.5826                                         !
 ! D104  D(38,39,40,41)        171.5358                                         !
 ! D105  D(38,39,40,49)        -15.3064                                         !
 ! D106  D(42,39,40,41)        -63.676                                          !
 ! D107  D(42,39,40,49)        109.4818                                         !
 ! D108  D(51,39,40,41)         54.3036                                         !
 ! D109  D(51,39,40,49)       -132.5386                                         !
 ! D110  D(38,39,42,43)         81.7955                                         !
 ! D111  D(38,39,42,52)        -44.1632                                         !
 ! D112  D(38,39,42,53)       -160.0205                                         !
 ! D113  D(40,39,42,43)        -37.6371                                         !
 ! D114  D(40,39,42,52)       -163.5958                                         !
 ! D115  D(40,39,42,53)         80.5469                                         !
 ! D116  D(51,39,42,43)       -156.2684                                         !
 ! D117  D(51,39,42,52)         77.7729                                         !
 ! D118  D(51,39,42,53)        -38.0844                                         !
 ! D119  D(39,42,43,44)        -55.8763                                         !
 ! D120  D(39,42,43,54)         65.8938                                         !
 ! D121  D(39,42,43,55)       -177.8456                                         !
 ! D122  D(52,42,43,44)         69.0025                                         !
 ! D123  D(52,42,43,54)       -169.2274                                         !
 ! D124  D(52,42,43,55)        -52.9668                                         !
 ! D125  D(53,42,43,44)       -173.5371                                         !
 ! D126  D(53,42,43,54)        -51.767                                          !
 ! D127  D(53,42,43,55)         64.4936                                         !
 ! D128  D(42,43,44,45)        171.9016                                         !
 ! D129  D(42,43,44,56)         51.0538                                         !
 ! D130  D(42,43,44,57)        -69.7376                                         !
 ! D131  D(54,43,44,45)         50.7327                                         !
 ! D132  D(54,43,44,56)        -70.1152                                         !
 ! D133  D(54,43,44,57)        169.0935                                         !
 ! D134  D(55,43,44,45)        -65.9937                                         !
 ! D135  D(55,43,44,56)        173.1584                                         !
 ! D136  D(55,43,44,57)         52.367                                          !
 ! D137  D(43,44,45,46)        -74.5688                                         !
 ! D138  D(43,44,45,58)         59.6527                                         !
 ! D139  D(56,44,45,46)         48.8557                                         !
 ! D140  D(56,44,45,58)       -176.9228                                         !
 ! D141  D(57,44,45,46)        164.6527                                         !
 ! D142  D(57,44,45,58)        -61.1259                                         !
 ! D143  D(44,45,46,47)        -19.1785                                         !
 ! D144  D(44,45,46,48)        162.9343                                         !
 ! D145  D(58,45,46,47)       -152.974                                          !
 ! D146  D(58,45,46,48)         29.1388                                         !
 ! D147  D(45,46,47,59)         12.3149                                         !
 ! D148  D(45,46,47,60)       -175.1572                                         !
 ! D149  D(48,46,47,59)       -169.9092                                         !
 ! D150  D(48,46,47,60)          2.6187                                         !
 ! D151  D(45,46,48,61)        178.4589                                         !
 ! D152  D(45,46,48,62)         10.2762                                         !
 ! D153  D(47,46,48,61)          0.5517                                         !
 ! D154  D(47,46,48,62)       -167.631                                          !
 --------------------------------------------------------------------------------
 Symmetry turned off by external request.
 Stoichiometry    C17H33N6O6(1+)
 Framework group  C1[X(C17H33N6O6)]
 Deg. of freedom   180
 Full point group                 C1      NOp   1
                          Input orientation:                          
 ---------------------------------------------------------------------
 Center     Atomic      Atomic             Coordinates (Angstroms)
 Number     Number       Type             X           Y           Z
 ---------------------------------------------------------------------
      1          7           0       11.643492   17.664915   10.168395
      2          6           0       11.234339   16.449058   10.968871
      3          6           0       12.459489   15.520538   10.833401
      4          8           0       12.787752   15.209026    9.693480
      5          6           0        9.975347   15.751582   10.438625
      6          6           0        8.732046   16.659521   10.224511
      7          6           0        8.695815   17.775953   11.239045
      8          8           0        9.198104   18.875938   11.020910
      9          8           0        8.188701   17.428290   12.419165
     10          1           0        8.331339   18.169728   13.062616
     11          1           0       10.879823   18.360494   10.117206
     12          1           0       11.069748   16.814384   11.981672
     13          1           0        9.737480   14.974798   11.173052
     14          1           0       10.217726   15.243188    9.500989
     15          1           0        8.762124   17.126560    9.236657
     16          1           0        7.828236   16.048694   10.287791
     17          1           0       12.465152   18.054898   10.684872
     18          1           0       11.951083   17.358010    9.236355
     19          7           0       13.077402   15.094290   11.956146
     20          6           0       13.010908   15.710503   13.276878
     21          6           0       13.324037   17.242239   13.205186
     22          8           0       13.567609   17.796350   12.115267
     23          6           0       13.971515   14.962502   14.224555
     24          6           0       13.692125   13.454778   14.394253
     25          6           0       14.735135   12.852532   15.347484
     26          6           0       12.267258   13.183751   14.896892
     27          1           0       13.909416   14.548374   11.754528
     28          1           0       11.990957   15.605511   13.668576
     29          1           0       13.922828   15.436597   15.210813
     30          1           0       14.998100   15.116905   13.864236
     31          1           0       13.806204   12.961066   13.418366
     32          1           0       14.648852   13.292214   16.348983
     33          1           0       14.594248   11.771089   15.444476
     34          1           0       15.756198   13.028247   14.990019
     35          1           0       11.504999   13.495172   14.172434
     36          1           0       12.120967   12.114142   15.078878
     37          1           0       12.078101   13.710234   15.841439
     38          7           0       13.253698   17.847311   14.389798
     39          6           0       13.480570   19.248795   14.789177
     40          6           0       12.738542   19.462256   16.150229
     41          8           0       12.930023   20.516960   16.739803
     42          6           0       12.958591   20.319117   13.800060
     43          6           0       11.455629   20.626752   13.927130
     44          6           0       10.564440   19.390701   13.784226
     45          7           0        9.138569   19.664351   14.097123
     46          6           0        8.738269   19.829932   15.409786
     47          7           0        9.457817   19.405843   16.422398
     48          7           0        7.535445   20.417609   15.595817
     49          8           0       11.879466   18.527320   16.431710
     50          1           0       12.864337   17.327808   15.176497
     51          1           0       14.555590   19.396215   14.928948
     52          1           0       13.222878   20.030813   12.780454
     53          1           0       13.498471   21.240932   14.032336
     54          1           0       11.280278   21.091071   14.902992
     55          1           0       11.170512   21.364263   13.164532
     56          1           0       10.886677   18.584813   14.439183
     57          1           0       10.582486   19.031313   12.757370
     58          1           0        8.754757   20.379277   13.481843
     59          1           0       10.509149   19.051792   16.423115
     60          1           0        9.060558   19.498046   17.350334
     61          1           0        7.162022   20.553195   16.524371
     62          1           0        6.902013   20.576616   14.825850
 ---------------------------------------------------------------------
 Rotational constants (GHZ):           0.1747455           0.1346344           0.0994106
 Standard basis: 6-31G(d) (6D, 7F)
   501 basis functions,   944 primitive gaussians,   501 cartesian basis functions
   112 alpha electrons      112 beta electrons
       nuclear repulsion energy      3245.2031654760 Hartrees.
 NAtoms=   62 NActive=   62 NUniq=   62 SFac= 1.00D+00 NAtFMM=   60 NAOKFM=T Big=T
 Integral buffers will be    131072 words long.
 Raffenetti 2 integral format.
 Two-electron integral symmetry is turned off.
 Nuclear repulsion after empirical dispersion term =     3245.1143949116 Hartrees.
 One-electron integrals computed using PRISM.
 NBasis=   501 RedAO= T EigKep=  1.69D-03  NBF=   501
 NBsUse=   501 1.00D-06 EigRej= -1.00D+00 NBFU=   501
 Initial guess from the checkpoint file:  "conf-156.chk"
 B after Tr=     0.000000    0.000000    0.000000
         Rot=    1.000000    0.000000    0.000000    0.000000 Ang=   0.00 deg.
 Requested convergence on RMS density matrix=1.00D-08 within 128 cycles.
 Requested convergence on MAX density matrix=1.00D-06.
 Requested convergence on             energy=1.00D-06.
 No special actions if energy rises.
 SCF Done:  E(RB3LYP) =  -1447.48173531     A.U. after    2 cycles
            NFock=  2  Conv=0.10D-07     -V/T= 2.0093

 **********************************************************************

            Population analysis using the SCF Density.

 **********************************************************************

 Alpha  occ. eigenvalues --  -19.33356 -19.28680 -19.24632 -19.24048 -19.18643
 Alpha  occ. eigenvalues --  -19.16818 -14.57870 -14.51960 -14.51924 -14.48894
 Alpha  occ. eigenvalues --  -14.48735 -14.46671 -10.47529 -10.46705 -10.42289
 Alpha  occ. eigenvalues --  -10.40798 -10.39726 -10.35879 -10.35610 -10.34460
 Alpha  occ. eigenvalues --  -10.34109 -10.33998 -10.31483 -10.29838 -10.29077
 Alpha  occ. eigenvalues --  -10.28790 -10.28002 -10.26576 -10.25664  -1.24794
 Alpha  occ. eigenvalues --   -1.17439  -1.15798  -1.15628  -1.15029  -1.12412
 Alpha  occ. eigenvalues --   -1.11177  -1.05439  -1.05414  -1.03881  -1.03321
 Alpha  occ. eigenvalues --   -1.01732  -0.94948  -0.91618  -0.90157  -0.87879
 Alpha  occ. eigenvalues --   -0.86322  -0.83769  -0.79962  -0.79009  -0.77411
 Alpha  occ. eigenvalues --   -0.76796  -0.75326  -0.74085  -0.73649  -0.72796
 Alpha  occ. eigenvalues --   -0.71808  -0.71305  -0.70521  -0.69863  -0.66622
 Alpha  occ. eigenvalues --   -0.66433  -0.64934  -0.64538  -0.64125  -0.62983
 Alpha  occ. eigenvalues --   -0.62620  -0.61922  -0.61284  -0.60709  -0.59791
 Alpha  occ. eigenvalues --   -0.59294  -0.58839  -0.57912  -0.57771  -0.56634
 Alpha  occ. eigenvalues --   -0.56200  -0.55371  -0.54710  -0.54164  -0.53749
 Alpha  occ. eigenvalues --   -0.53201  -0.52371  -0.51919  -0.51751  -0.51132
 Alpha  occ. eigenvalues --   -0.50709  -0.49968  -0.49591  -0.49304  -0.48916
 Alpha  occ. eigenvalues --   -0.48417  -0.47607  -0.47023  -0.46626  -0.46211
 Alpha  occ. eigenvalues --   -0.45881  -0.45749  -0.44706  -0.44026  -0.42662
 Alpha  occ. eigenvalues --   -0.42227  -0.42056  -0.41976  -0.41660  -0.40579
 Alpha  occ. eigenvalues --   -0.39261  -0.38604  -0.36896  -0.36425  -0.34235
 Alpha  occ. eigenvalues --   -0.33233  -0.30630
 Alpha virt. eigenvalues --   -0.14337  -0.12409  -0.11882  -0.10304  -0.08424
 Alpha virt. eigenvalues --   -0.07211  -0.04961  -0.04095  -0.03696  -0.02894
 Alpha virt. eigenvalues --   -0.02574  -0.01886  -0.00949  -0.00630  -0.00281
 Alpha virt. eigenvalues --    0.00252   0.01074   0.01611   0.01973   0.02603
 Alpha virt. eigenvalues --    0.02976   0.03184   0.04066   0.04303   0.04905
 Alpha virt. eigenvalues --    0.05486   0.05857   0.06011   0.06641   0.06755
 Alpha virt. eigenvalues --    0.07364   0.07532   0.07994   0.08324   0.08944
 Alpha virt. eigenvalues --    0.09452   0.09708   0.10183   0.10327   0.10916
 Alpha virt. eigenvalues --    0.11802   0.12119   0.12186   0.12612   0.12712
 Alpha virt. eigenvalues --    0.13474   0.13655   0.14647   0.14967   0.15291
 Alpha virt. eigenvalues --    0.15741   0.16516   0.18004   0.18364   0.19276
 Alpha virt. eigenvalues --    0.19601   0.20728   0.23565   0.23954   0.24620
 Alpha virt. eigenvalues --    0.26236   0.27270   0.28015   0.30732   0.32861
 Alpha virt. eigenvalues --    0.35470   0.35690   0.36596   0.37310   0.38365
 Alpha virt. eigenvalues --    0.39645   0.40146   0.40241   0.40947   0.41754
 Alpha virt. eigenvalues --    0.41953   0.42575   0.42836   0.43183   0.44231
 Alpha virt. eigenvalues --    0.44698   0.44985   0.46185   0.46421   0.47494
 Alpha virt. eigenvalues --    0.47848   0.48664   0.49230   0.49409   0.50497
 Alpha virt. eigenvalues --    0.51019   0.51349   0.51773   0.52082   0.53115
 Alpha virt. eigenvalues --    0.53925   0.54484   0.55179   0.55460   0.55660
 Alpha virt. eigenvalues --    0.56699   0.57501   0.57854   0.58164   0.59019
 Alpha virt. eigenvalues --    0.60315   0.61100   0.61628   0.62540   0.63258
 Alpha virt. eigenvalues --    0.63529   0.63933   0.64104   0.65211   0.65702
 Alpha virt. eigenvalues --    0.66722   0.67029   0.67626   0.68227   0.69188
 Alpha virt. eigenvalues --    0.69753   0.70435   0.70777   0.71600   0.72155
 Alpha virt. eigenvalues --    0.72775   0.72944   0.73291   0.73983   0.74799
 Alpha virt. eigenvalues --    0.75349   0.75705   0.76126   0.76219   0.76772
 Alpha virt. eigenvalues --    0.77690   0.77879   0.78531   0.79134   0.80060
 Alpha virt. eigenvalues --    0.80192   0.80732   0.80932   0.81693   0.82113
 Alpha virt. eigenvalues --    0.82554   0.83110   0.83460   0.84300   0.84496
 Alpha virt. eigenvalues --    0.84861   0.85063   0.85579   0.86205   0.87157
 Alpha virt. eigenvalues --    0.87446   0.87772   0.88275   0.89073   0.89467
 Alpha virt. eigenvalues --    0.90141   0.91110   0.91757   0.92626   0.93027
 Alpha virt. eigenvalues --    0.93821   0.94423   0.95235   0.96148   0.97071
 Alpha virt. eigenvalues --    0.97748   0.99381   0.99970   1.01227   1.01958
 Alpha virt. eigenvalues --    1.03382   1.04188   1.05580   1.06350   1.06665
 Alpha virt. eigenvalues --    1.08349   1.08799   1.09639   1.10288   1.12579
 Alpha virt. eigenvalues --    1.13566   1.14145   1.15238   1.17350   1.17812
 Alpha virt. eigenvalues --    1.18923   1.20216   1.20553   1.21207   1.22615
 Alpha virt. eigenvalues --    1.23683   1.24837   1.26188   1.26667   1.28225
 Alpha virt. eigenvalues --    1.29382   1.30081   1.32205   1.33264   1.34066
 Alpha virt. eigenvalues --    1.34777   1.37057   1.37249   1.38256   1.39263
 Alpha virt. eigenvalues --    1.40302   1.42796   1.43601   1.43899   1.45195
 Alpha virt. eigenvalues --    1.46578   1.47964   1.48305   1.49898   1.50428
 Alpha virt. eigenvalues --    1.51530   1.51807   1.53412   1.54622   1.55312
 Alpha virt. eigenvalues --    1.56640   1.58024   1.58444   1.58785   1.59677
 Alpha virt. eigenvalues --    1.61103   1.62187   1.62601   1.63405   1.63790
 Alpha virt. eigenvalues --    1.65158   1.65849   1.66372   1.68590   1.68912
 Alpha virt. eigenvalues --    1.69623   1.70412   1.71209   1.71799   1.71939
 Alpha virt. eigenvalues --    1.73421   1.74327   1.74942   1.75800   1.75901
 Alpha virt. eigenvalues --    1.76430   1.77143   1.77758   1.78161   1.79302
 Alpha virt. eigenvalues --    1.80278   1.80343   1.80824   1.81018   1.81382
 Alpha virt. eigenvalues --    1.83204   1.83829   1.84883   1.85702   1.86976
 Alpha virt. eigenvalues --    1.87468   1.88239   1.88807   1.89721   1.90396
 Alpha virt. eigenvalues --    1.91747   1.92827   1.93394   1.93823   1.94475
 Alpha virt. eigenvalues --    1.95949   1.96394   1.96889   1.97819   1.99232
 Alpha virt. eigenvalues --    1.99906   2.00318   2.00795   2.01979   2.03064
 Alpha virt. eigenvalues --    2.03806   2.06562   2.07337   2.07886   2.08598
 Alpha virt. eigenvalues --    2.09756   2.10635   2.14239   2.15246   2.15828
 Alpha virt. eigenvalues --    2.16046   2.16706   2.17560   2.18137   2.19041
 Alpha virt. eigenvalues --    2.19885   2.20559   2.21624   2.22419   2.23412
 Alpha virt. eigenvalues --    2.24316   2.26157   2.28069   2.28533   2.29284
 Alpha virt. eigenvalues --    2.30201   2.31105   2.32448   2.33084   2.34244
 Alpha virt. eigenvalues --    2.35015   2.36899   2.38169   2.40401   2.41000
 Alpha virt. eigenvalues --    2.41988   2.42599   2.43725   2.44257   2.46187
 Alpha virt. eigenvalues --    2.47366   2.50483   2.51186   2.51787   2.52970
 Alpha virt. eigenvalues --    2.53465   2.54763   2.55687   2.58139   2.58546
 Alpha virt. eigenvalues --    2.58610   2.60734   2.62080   2.62626   2.64886
 Alpha virt. eigenvalues --    2.65396   2.66356   2.69537   2.70338   2.73130
 Alpha virt. eigenvalues --    2.73942   2.77916   2.82413   2.84609   2.85818
 Alpha virt. eigenvalues --    2.86952   2.88650   2.92362   2.92714   2.93502
 Alpha virt. eigenvalues --    2.94721   2.96881   3.03072   3.05871   3.14835
 Alpha virt. eigenvalues --    3.65368   3.69795   3.78998   3.83651   3.86908
 Alpha virt. eigenvalues --    3.93701   3.96811   3.99383   4.02223   4.03117
 Alpha virt. eigenvalues --    4.05205   4.08610   4.11470   4.15168   4.18607
 Alpha virt. eigenvalues --    4.20230   4.22134   4.25277   4.25505   4.30864
 Alpha virt. eigenvalues --    4.31376   4.32249   4.37312   4.40735   4.45173
 Alpha virt. eigenvalues --    4.49531   4.54512   4.59610   4.63130
          Condensed to atoms (all electrons):
 Mulliken charges:
               1
     1  N   -0.769152
     2  C   -0.122524
     3  C    0.628040
     4  O   -0.506191
     5  C   -0.293723
     6  C   -0.359231
     7  C    0.577135
     8  O   -0.501509
     9  O   -0.558377
    10  H    0.450726
    11  H    0.421957
    12  H    0.193243
    13  H    0.201681
    14  H    0.215141
    15  H    0.193211
    16  H    0.215447
    17  H    0.448333
    18  H    0.411528
    19  N   -0.583732
    20  C   -0.079574
    21  C    0.633579
    22  O   -0.592810
    23  C   -0.305216
    24  C   -0.077914
    25  C   -0.448217
    26  C   -0.453967
    27  H    0.362253
    28  H    0.173105
    29  H    0.168185
    30  H    0.164313
    31  H    0.133269
    32  H    0.155416
    33  H    0.164274
    34  H    0.154874
    35  H    0.131750
    36  H    0.170277
    37  H    0.152184
    38  N   -0.607551
    39  C   -0.040355
    40  C    0.582123
    41  O   -0.507891
    42  C   -0.285543
    43  C   -0.302217
    44  C   -0.192290
    45  N   -0.661413
    46  C    0.797731
    47  N   -0.771891
    48  N   -0.765261
    49  O   -0.657529
    50  H    0.366467
    51  H    0.191604
    52  H    0.162948
    53  H    0.188250
    54  H    0.190499
    55  H    0.144577
    56  H    0.197403
    57  H    0.152772
    58  H    0.357685
    59  H    0.476098
    60  H    0.362013
    61  H    0.380823
    62  H    0.373165
 Sum of Mulliken charges =   1.00000
 Mulliken charges with hydrogens summed into heavy atoms:
               1
     1  N    0.512666
     2  C    0.070719
     3  C    0.628040
     4  O   -0.506191
     5  C    0.123099
     6  C    0.049427
     7  C    0.577135
     8  O   -0.501509
     9  O   -0.107651
    19  N   -0.221480
    20  C    0.093530
    21  C    0.633579
    22  O   -0.592810
    23  C    0.027282
    24  C    0.055355
    25  C    0.026346
    26  C    0.000244
    38  N   -0.241084
    39  C    0.151249
    40  C    0.582123
    41  O   -0.507891
    42  C    0.065655
    43  C    0.032860
    44  C    0.157885
    45  N   -0.303729
    46  C    0.797731
    47  N    0.066220
    48  N   -0.011273
    49  O   -0.657529
 Electronic spatial extent (au):  <R**2>=         505582.5150
 Charge=              1.0000 electrons
 Dipole moment (field-independent basis, Debye):
    X=             44.1373    Y=             84.8144    Z=             60.1467  Tot=            112.9566
 Quadrupole moment (field-independent basis, Debye-Ang):
   XX=            259.6063   YY=           1352.0803   ZZ=            600.7112
   XY=            743.7525   XZ=            528.5273   YZ=           1059.8244
 Traceless Quadrupole moment (field-independent basis, Debye-Ang):
   XX=           -477.8596   YY=            614.6144   ZZ=           -136.7548
   XY=            743.7525   XZ=            528.5273   YZ=           1059.8244
 Octapole moment (field-independent basis, Debye-Ang**2):
  XXX=          -1438.9958  YYY=          18818.2667  ZZZ=           3227.4826  XYY=          10764.9804
  XXY=           3882.6753  XXZ=           2668.4445  XZZ=           4376.5351  YZZ=          10595.6792
  YYZ=          16743.5332  XYZ=           8714.2383
 Hexadecapole moment (field-independent basis, Debye-Ang**3):
 XXXX=         -91283.8091 YYYY=         194995.7641 ZZZZ=         -54568.4845 XXXY=         -34968.1191
 XXXZ=         -29325.3349 YYYX=         119243.6531 YYYZ=         227044.5134 ZZZX=          -4062.1285
 ZZZY=          56933.6304 XXYY=          34116.7864 XXZZ=            515.3763 YYZZ=         159396.2589
 XXYZ=          34803.6885 YYXZ=         119599.4227 ZZXY=          67846.2803
 N-N= 3.245114394912D+03 E-N=-9.838721173562D+03  KE= 1.434079711348D+03
 Unable to Open any file for archive entry.
 1\1\GINC-AMR-155\SP\RB3LYP\6-31G(d)\C17H33N6O6(1+)\KENGMITH\24-May-202
 2\0\\# B3LYP/6-31G* empiricaldispersion=gd3 guess=read geom=check nosy
 mm integral(ultrafinegrid)\\Candidate Structure: Conf:156 Charge calc 
 in gas phase\\1,1\N,0,11.6434919391,17.6649147373,10.168395382\C,0,11.
 2343388006,16.4490580265,10.968870824\C,0,12.459488618,15.5205379301,1
 0.8334008012\O,0,12.7877520781,15.2090260851,9.6934796893\C,0,9.975346
 9153,15.7515817457,10.4386253826\C,0,8.7320458714,16.6595206689,10.224
 5108544\C,0,8.6958153611,17.7759527792,11.2390446487\O,0,9.1981040983,
 18.8759376941,11.0209102526\O,0,8.1887009649,17.4282897836,12.41916516
 99\H,0,8.3313388027,18.1697283582,13.0626157351\H,0,10.8798228897,18.3
 604937039,10.1172064143\H,0,11.0697479937,16.8143837217,11.9816719573\
 H,0,9.7374799393,14.9747981109,11.1730523214\H,0,10.2177261013,15.2431
 88326,9.5009893448\H,0,8.7621243856,17.1265603793,9.2366569121\H,0,7.8
 282355696,16.0486937609,10.2877912054\H,0,12.4651520779,18.0548983355,
 10.6848719546\H,0,11.9510834542,17.3580095728,9.2363550146\N,0,13.0774
 015025,15.0942898911,11.9561456684\C,0,13.0109077041,15.7105031343,13.
 2768779173\C,0,13.3240365686,17.2422393072,13.2051856328\O,0,13.567608
 8207,17.7963501771,12.1152671609\C,0,13.9715145711,14.9625015234,14.22
 45548699\C,0,13.6921245891,13.454777514,14.3942529595\C,0,14.735134920
 4,12.8525315172,15.3474840322\C,0,12.267257851,13.1837506517,14.896891
 6652\H,0,13.9094163706,14.5483743659,11.7545279192\H,0,11.9909565046,1
 5.6055107081,13.6685756901\H,0,13.9228278533,15.4365968557,15.21081254
 15\H,0,14.9981002507,15.1169051477,13.8642364048\H,0,13.8062037063,12.
 9610660368,13.4183655943\H,0,14.6488515148,13.2922144172,16.3489832341
 \H,0,14.5942484122,11.7710892495,15.4444755458\H,0,15.7561981461,13.02
 82465317,14.9900188867\H,0,11.504999256,13.4951722855,14.1724344014\H,
 0,12.1209669498,12.1141416143,15.0788784592\H,0,12.0781007675,13.71023
 43144,15.841439231\N,0,13.2536982144,17.8473105187,14.3897978245\C,0,1
 3.480569709,19.2487945594,14.7891770913\C,0,12.7385415966,19.462256158
 4,16.1502291616\O,0,12.930023369,20.516959776,16.7398030274\C,0,12.958
 5914666,20.3191166604,13.800060383\C,0,11.4556294019,20.6267517353,13.
 9271296829\C,0,10.5644396603,19.3907009258,13.7842260501\N,0,9.1385687
 264,19.6643507314,14.0971234027\C,0,8.7382693841,19.8299316652,15.4097
 864599\N,0,9.4578165099,19.4058432671,16.4223975871\N,0,7.5354447489,2
 0.4176088194,15.5958172675\O,0,11.8794655272,18.5273204514,16.43170981
 48\H,0,12.8643365871,17.3278080048,15.1764965043\H,0,14.5555904724,19.
 3962151435,14.928948106\H,0,13.2228781444,20.0308131966,12.7804538344\
 H,0,13.498470673,21.2409320015,14.0323356591\H,0,11.2802782168,21.0910
 706086,14.9029922491\H,0,11.1705122857,21.3642633939,13.1645321201\H,0
 ,10.8866771499,18.5848125086,14.4391834948\H,0,10.5824856681,19.031313
 3791,12.7573695061\H,0,8.7547566577,20.3792773009,13.4818432501\H,0,10
 .5091485425,19.0517916312,16.42311539\H,0,9.0605583195,19.4980464299,1
 7.3503335058\H,0,7.1620220508,20.553194728,16.5243705614\H,0,6.9020132
 875,20.5766156625,14.8258495072\\Version=ES64L-G16RevC.01\HF=-1447.481
 7353\RMSD=9.969e-09\Dipole=-4.3911403,0.3655973,-1.6428023\Quadrupole=
 -355.2769152,456.9507315,-101.6738163,552.9617496,392.9471006,787.9535
 02\PG=C01 [X(C17H33N6O6)]\\@
 The archive entry for this job was punched.


 MATERIAL COPIED FROM ONE SCHOLARLY BOOK WITHOUT CREDIT COMPRISES PLAGIARISM.
 MATERIAL COPIED FROM TWO SCHOLARLY BOOKS COMPRISES AN ESSAY.
 MATERIAL COPIED FROM THREE SCHOLARLY BOOKS COMPRISES A DISSERTATION.
 MATERIAL COPIED FROM FOUR SCHOLARLY BOOKS COMPRISES A FIFTH SCHOLARLY BOOK.

                               -- C&EN, 25 FEB 1980
 Job cpu time:       0 days  0 hours  1 minutes 47.2 seconds.
 Elapsed time:       0 days  0 hours  0 minutes 27.2 seconds.
 File lengths (MBytes):  RWF=    248 Int=      0 D2E=      0 Chk=     32 Scr=     16
 Normal termination of Gaussian 16 at Tue May 24 03:31:32 2022.
