 Entering Gaussian System, Link 0=/opt/software/Gaussian/g16-AVX2-C.01/g16/g16
 Input=charge-conf-34.com
 Output=charge-conf-34.log
 Initial command:
 /opt/software/Gaussian/g16-AVX2-C.01/g16/l1.exe "/mnt/gs18/scratch/users/kengmith/Gau-10590.inp" -scrdir="/mnt/gs18/scratch/users/kengmith/"
 Entering Link 1 = /opt/software/Gaussian/g16-AVX2-C.01/g16/l1.exe PID=     10600.
  
 Copyright (c) 1988-2019, Gaussian, Inc.  All Rights Reserved.
  
 This is part of the Gaussian(R) 16 program.  It is based on
 the Gaussian(R) 09 system (copyright 2009, Gaussian, Inc.),
 the Gaussian(R) 03 system (copyright 2003, Gaussian, Inc.),
 the Gaussian(R) 98 system (copyright 1998, Gaussian, Inc.),
 the Gaussian(R) 94 system (copyright 1995, Gaussian, Inc.),
 the Gaussian 92(TM) system (copyright 1992, Gaussian, Inc.),
 the Gaussian 90(TM) system (copyright 1990, Gaussian, Inc.),
 the Gaussian 88(TM) system (copyright 1988, Gaussian, Inc.),
 the Gaussian 86(TM) system (copyright 1986, Carnegie Mellon
 University), and the Gaussian 82(TM) system (copyright 1983,
 Carnegie Mellon University). Gaussian is a federally registered
 trademark of Gaussian, Inc.
  
 This software contains proprietary and confidential information,
 including trade secrets, belonging to Gaussian, Inc.
  
 This software is provided under written license and may be
 used, copied, transmitted, or stored only in accord with that
 written license.
  
 The following legend is applicable only to US Government
 contracts under FAR:
  
                    RESTRICTED RIGHTS LEGEND
  
 Use, reproduction and disclosure by the US Government is
 subject to restrictions as set forth in subparagraphs (a)
 and (c) of the Commercial Computer Software - Restricted
 Rights clause in FAR 52.227-19.
  
 Gaussian, Inc.
 340 Quinnipiac St., Bldg. 40, Wallingford CT 06492
  
  
 ---------------------------------------------------------------
 Warning -- This program may not be used in any manner that
 competes with the business of Gaussian, Inc. or will provide
 assistance to any competitor of Gaussian, Inc.  The licensee
 of this program is prohibited from giving any competitor of
 Gaussian, Inc. access to this program.  By using this program,
 the user acknowledges that Gaussian, Inc. is engaged in the
 business of creating and licensing software in the field of
 computational chemistry and represents and warrants to the
 licensee that it is not a competitor of Gaussian, Inc. and that
 it will not use this program in any manner prohibited above.
 ---------------------------------------------------------------
  

 Cite this work as:
 Gaussian 16, Revision C.01,
 M. J. Frisch, G. W. Trucks, H. B. Schlegel, G. E. Scuseria, 
 M. A. Robb, J. R. Cheeseman, G. Scalmani, V. Barone, 
 G. A. Petersson, H. Nakatsuji, X. Li, M. Caricato, A. V. Marenich, 
 J. Bloino, B. G. Janesko, R. Gomperts, B. Mennucci, H. P. Hratchian, 
 J. V. Ortiz, A. F. Izmaylov, J. L. Sonnenberg, D. Williams-Young, 
 F. Ding, F. Lipparini, F. Egidi, J. Goings, B. Peng, A. Petrone, 
 T. Henderson, D. Ranasinghe, V. G. Zakrzewski, J. Gao, N. Rega, 
 G. Zheng, W. Liang, M. Hada, M. Ehara, K. Toyota, R. Fukuda, 
 J. Hasegawa, M. Ishida, T. Nakajima, Y. Honda, O. Kitao, H. Nakai, 
 T. Vreven, K. Throssell, J. A. Montgomery, Jr., J. E. Peralta, 
 F. Ogliaro, M. J. Bearpark, J. J. Heyd, E. N. Brothers, K. N. Kudin, 
 V. N. Staroverov, T. A. Keith, R. Kobayashi, J. Normand, 
 K. Raghavachari, A. P. Rendell, J. C. Burant, S. S. Iyengar, 
 J. Tomasi, M. Cossi, J. M. Millam, M. Klene, C. Adamo, R. Cammi, 
 J. W. Ochterski, R. L. Martin, K. Morokuma, O. Farkas, 
 J. B. Foresman, and D. J. Fox, Gaussian, Inc., Wallingford CT, 2019.
 
 ******************************************
 Gaussian 16:  ES64L-G16RevC.01  3-Jul-2019
                24-May-2022 
 ******************************************
 %mem=8gb
 %nproc=4
 Will use up to    4 processors via shared memory.
 %chk=conf-34.chk
 ----------------------------------------------------------------------
 # B3LYP/6-31G* empiricaldispersion=gd3 guess=read geom=check nosymm in
 tegral(ultrafinegrid)
 ----------------------------------------------------------------------
 1/29=2,38=1,172=1/1;
 2/12=2,15=1,40=1/2;
 3/5=1,6=6,7=1,11=2,14=-4,25=1,30=1,74=-5,75=-5,116=-2,124=31/1,2,3;
 4/5=1/1;
 5/5=2,38=6/2;
 6/7=2,8=2,9=2,10=2,28=1/1;
 99/5=1,9=1/99;
 -----------------------------------------------------
 Candidate Structure: Conf:34 Charge calc in gas phase
 -----------------------------------------------------
 Structure from the checkpoint file:  "conf-34.chk"
 Charge =  1 Multiplicity = 1
 Redundant internal coordinates found in file.  (old form).
 N,0,14.5196359828,17.8958343231,12.5384094403
 C,0,13.8965494301,18.9351272954,13.4355326596
 C,0,13.8979408935,20.2098485584,12.5674147652
 O,0,14.9927839548,20.6698378302,12.2621537376
 C,0,14.713699911,19.1112632166,14.7304753672
 C,0,14.2005914818,18.2775771787,15.9147493738
 C,0,14.1903860427,16.7695369887,15.7075223179
 O,0,14.51675742,16.203063265,14.6797272127
 O,0,13.7567178707,16.0273708315,16.7361176212
 H,0,13.5388243278,16.5736981616,17.511317761
 H,0,14.7001356156,17.042196616,13.0994280137
 H,0,12.8971871059,18.5687669929,13.6698798491
 H,0,14.6755022998,20.1648587322,15.0212255266
 H,0,15.7697575234,18.8987096373,14.5357137154
 H,0,14.8072156212,18.4977823141,16.8033042959
 H,0,13.1735164128,18.577961446,16.1687927949
 H,0,13.8405302212,17.7198002733,11.7601255143
 H,0,15.3896423915,18.2810081941,12.1506037535
 N,0,12.7124003126,20.7308927178,12.1725218385
 C,0,11.3905451492,20.1031142208,12.227061703
 C,0,11.4630800419,18.6114392136,11.8248309288
 O,0,12.3131507511,18.2045070593,11.0105868267
 C,0,10.4222648583,20.8354303358,11.2767569921
 C,0,10.1919337047,22.3325003962,11.5700145171
 C,0,9.2072131105,22.9011249747,10.5373203421
 C,0,9.6922047815,22.5764104885,13.000460368
 H,0,12.8237475112,21.5168782689,11.5410097647
 H,0,11.0016439632,20.1715807938,13.2508213802
 H,0,9.4598366572,20.3117821143,11.3334810017
 H,0,10.7919584657,20.7035676489,10.2513790536
 H,0,11.1438934402,22.8715390424,11.4468167336
 H,0,9.0668290796,23.9768728448,10.6853008018
 H,0,9.5636193819,22.7449024566,9.51282484
 H,0,8.2258635295,22.4194916078,10.6298306329
 H,0,9.4717304627,23.6376258035,13.1550074672
 H,0,8.7696658693,22.0137983727,13.193094599
 H,0,10.4330622328,22.2862537549,13.7548362368
 N,0,10.5802877605,17.8246284401,12.440592473
 C,0,10.4652936457,16.3718559273,12.2870744386
 C,0,9.3490029236,15.8973943849,13.2529423314
 O,0,8.7931095099,14.8223744204,12.997557771
 C,0,11.8059434455,15.6568922983,12.639758671
 C,0,11.6656378306,14.23407285,13.2161435419
 C,0,11.3468229553,14.2378778995,14.7353573988
 N,0,10.3725501966,13.2025988252,15.1070339075
 C,0,9.168053554,13.3815461352,15.6647719838
 N,0,8.6944381059,14.5794891853,16.0006147171
 N,0,8.4551775773,12.2738252312,16.0047411814
 O,0,9.2195425971,16.6201379506,14.3072625419
 H,0,9.9942857058,18.1708837158,13.2002272206
 H,0,10.1790115826,16.1286491554,11.2613195443
 H,0,12.3329655972,16.2731703012,13.3774287998
 H,0,12.4290031904,15.6324782087,11.74069649
 H,0,10.8684986713,13.712442334,12.6803706272
 H,0,12.6017965126,13.6902730816,13.048510608
 H,0,10.9416221384,15.1996891139,15.0454504551
 H,0,12.2608238718,14.0732490992,15.3167920765
 H,0,10.5377653332,12.2907481989,14.7009563461
 H,0,8.8584014838,15.4275673857,15.3860342747
 H,0,7.8242703918,14.5857010281,16.5161974542
 H,0,7.4463609097,12.3290364519,15.9980825075
 H,0,8.8441972598,11.3534978969,15.8567893506
 Recover connectivity data from disk.
                           ----------------------------
                           !    Current Parameters    !
                           ! (Angstroms and Degrees)  !
 --------------------------                            --------------------------
 ! Name  Definition              Value                                          !
 --------------------------------------------------------------------------------
 ! R1    R(1,2)                  1.5077                                         !
 ! R2    R(1,11)                 1.0373                                         !
 ! R3    R(1,17)                 1.0478                                         !
 ! R4    R(1,18)                 1.0275                                         !
 ! R5    R(2,3)                  1.5423                                         !
 ! R6    R(2,5)                  1.5413                                         !
 ! R7    R(2,12)                 1.0899                                         !
 ! R8    R(3,4)                  1.2262                                         !
 ! R9    R(3,19)                 1.3539                                         !
 ! R10   R(5,6)                  1.5365                                         !
 ! R11   R(5,13)                 1.0936                                         !
 ! R12   R(5,14)                 1.0947                                         !
 ! R13   R(6,7)                  1.5222                                         !
 ! R14   R(6,15)                 1.0982                                         !
 ! R15   R(6,16)                 1.0998                                         !
 ! R16   R(7,8)                  1.2181                                         !
 ! R17   R(7,9)                  1.3405                                         !
 ! R18   R(9,10)                 0.9731                                         !
 ! R19   R(19,20)                1.4644                                         !
 ! R20   R(19,27)                1.0144                                         !
 ! R21   R(20,21)                1.5467                                         !
 ! R22   R(20,23)                1.5417                                         !
 ! R23   R(20,28)                1.0973                                         !
 ! R24   R(21,22)                1.2455                                         !
 ! R25   R(21,38)                1.3333                                         !
 ! R26   R(23,24)                1.5428                                         !
 ! R27   R(23,29)                1.0971                                         !
 ! R28   R(23,30)                1.0979                                         !
 ! R29   R(24,25)                1.5361                                         !
 ! R30   R(24,26)                1.5347                                         !
 ! R31   R(24,31)                1.1009                                         !
 ! R32   R(25,32)                1.0949                                         !
 ! R33   R(25,33)                1.0959                                         !
 ! R34   R(25,34)                1.0971                                         !
 ! R35   R(26,35)                1.0948                                         !
 ! R36   R(26,36)                1.0976                                         !
 ! R37   R(26,37)                1.0964                                         !
 ! R38   R(38,39)                1.4654                                         !
 ! R39   R(38,50)                1.02                                           !
 ! R40   R(39,40)                1.5505                                         !
 ! R41   R(39,42)                1.5598                                         !
 ! R42   R(39,51)                1.0924                                         !
 ! R43   R(40,41)                1.2369                                         !
 ! R44   R(40,49)                1.2848                                         !
 ! R45   R(42,43)                1.5415                                         !
 ! R46   R(42,52)                1.0962                                         !
 ! R47   R(42,53)                1.0941                                         !
 ! R48   R(43,44)                1.5523                                         !
 ! R49   R(43,54)                1.093                                          !
 ! R50   R(43,55)                1.0955                                         !
 ! R51   R(44,45)                1.4694                                         !
 ! R52   R(44,56)                1.0888                                         !
 ! R53   R(44,57)                1.0957                                         !
 ! R54   R(45,46)                1.3394                                         !
 ! R55   R(45,58)                1.0118                                         !
 ! R56   R(46,47)                1.3312                                         !
 ! R57   R(46,48)                1.3604                                         !
 ! R58   R(47,59)                1.0601                                         !
 ! R59   R(47,60)                1.0115                                         !
 ! R60   R(48,61)                1.0103                                         !
 ! R61   R(48,62)                1.0101                                         !
 ! A1    A(2,1,11)             108.5034                                         !
 ! A2    A(2,1,17)             106.8537                                         !
 ! A3    A(2,1,18)             108.4279                                         !
 ! A4    A(11,1,17)            112.1012                                         !
 ! A5    A(11,1,18)            111.4258                                         !
 ! A6    A(17,1,18)            109.3555                                         !
 ! A7    A(1,2,3)              103.5585                                         !
 ! A8    A(1,2,5)              111.0748                                         !
 ! A9    A(1,2,12)             105.9722                                         !
 ! A10   A(3,2,5)              112.2089                                         !
 ! A11   A(3,2,12)             113.559                                          !
 ! A12   A(5,2,12)             110.1142                                         !
 ! A13   A(2,3,4)              116.8087                                         !
 ! A14   A(2,3,19)             118.7828                                         !
 ! A15   A(4,3,19)             124.3955                                         !
 ! A16   A(2,5,6)              114.1112                                         !
 ! A17   A(2,5,13)             108.3569                                         !
 ! A18   A(2,5,14)             109.8639                                         !
 ! A19   A(6,5,13)             107.8271                                         !
 ! A20   A(6,5,14)             110.7282                                         !
 ! A21   A(13,5,14)            105.5482                                         !
 ! A22   A(5,6,7)              115.775                                          !
 ! A23   A(5,6,15)             109.291                                          !
 ! A24   A(5,6,16)             109.9802                                         !
 ! A25   A(7,6,15)             108.2097                                         !
 ! A26   A(7,6,16)             107.2026                                         !
 ! A27   A(15,6,16)            105.9135                                         !
 ! A28   A(6,7,8)              125.0138                                         !
 ! A29   A(6,7,9)              116.5001                                         !
 ! A30   A(8,7,9)              118.4672                                         !
 ! A31   A(7,9,10)             111.8939                                         !
 ! A32   A(3,19,20)            127.9228                                         !
 ! A33   A(3,19,27)            112.5611                                         !
 ! A34   A(20,19,27)           117.0294                                         !
 ! A35   A(19,20,21)           111.1888                                         !
 ! A36   A(19,20,23)           109.8973                                         !
 ! A37   A(19,20,28)           109.1432                                         !
 ! A38   A(21,20,23)           109.1028                                         !
 ! A39   A(21,20,28)           108.6291                                         !
 ! A40   A(23,20,28)           108.8358                                         !
 ! A41   A(20,21,22)           121.1408                                         !
 ! A42   A(20,21,38)           114.7085                                         !
 ! A43   A(22,21,38)           124.1283                                         !
 ! A44   A(20,23,24)           115.9453                                         !
 ! A45   A(20,23,29)           106.9993                                         !
 ! A46   A(20,23,30)           107.8865                                         !
 ! A47   A(24,23,29)           108.8049                                         !
 ! A48   A(24,23,30)           110.1408                                         !
 ! A49   A(29,23,30)           106.6389                                         !
 ! A50   A(23,24,25)           109.0944                                         !
 ! A51   A(23,24,26)           112.3331                                         !
 ! A52   A(23,24,31)           108.9506                                         !
 ! A53   A(25,24,26)           111.0416                                         !
 ! A54   A(25,24,31)           107.3286                                         !
 ! A55   A(26,24,31)           107.9417                                         !
 ! A56   A(24,25,32)           110.7956                                         !
 ! A57   A(24,25,33)           111.5453                                         !
 ! A58   A(24,25,34)           110.7468                                         !
 ! A59   A(32,25,33)           107.9446                                         !
 ! A60   A(32,25,34)           107.7728                                         !
 ! A61   A(33,25,34)           107.8879                                         !
 ! A62   A(24,26,35)           110.5598                                         !
 ! A63   A(24,26,36)           110.8423                                         !
 ! A64   A(24,26,37)           112.2845                                         !
 ! A65   A(35,26,36)           107.6265                                         !
 ! A66   A(35,26,37)           107.1851                                         !
 ! A67   A(36,26,37)           108.1515                                         !
 ! A68   A(21,38,39)           126.0608                                         !
 ! A69   A(21,38,50)           121.604                                          !
 ! A70   A(39,38,50)           111.6844                                         !
 ! A71   A(38,39,40)           107.1339                                         !
 ! A72   A(38,39,42)           111.3027                                         !
 ! A73   A(38,39,51)           109.8565                                         !
 ! A74   A(40,39,42)           109.736                                          !
 ! A75   A(40,39,51)           109.1556                                         !
 ! A76   A(42,39,51)           109.6045                                         !
 ! A77   A(39,40,41)           117.4451                                         !
 ! A78   A(39,40,49)           114.3048                                         !
 ! A79   A(41,40,49)           127.8113                                         !
 ! A80   A(39,42,43)           115.4289                                         !
 ! A81   A(39,42,52)           107.9198                                         !
 ! A82   A(39,42,53)           108.2936                                         !
 ! A83   A(43,42,52)           108.1219                                         !
 ! A84   A(43,42,53)           109.7842                                         !
 ! A85   A(52,42,53)           106.9609                                         !
 ! A86   A(42,43,44)           112.4801                                         !
 ! A87   A(42,43,54)           108.8808                                         !
 ! A88   A(42,43,55)           108.8542                                         !
 ! A89   A(44,43,54)           109.3372                                         !
 ! A90   A(44,43,55)           109.0546                                         !
 ! A91   A(54,43,55)           108.1388                                         !
 ! A92   A(43,44,45)           112.4575                                         !
 ! A93   A(43,44,56)           110.9368                                         !
 ! A94   A(43,44,57)           110.3434                                         !
 ! A95   A(45,44,56)           107.6739                                         !
 ! A96   A(45,44,57)           108.2402                                         !
 ! A97   A(56,44,57)           106.9802                                         !
 ! A98   A(44,45,46)           127.4068                                         !
 ! A99   A(44,45,58)           115.1627                                         !
 ! A100  A(46,45,58)           115.7468                                         !
 ! A101  A(45,46,47)           123.0404                                         !
 ! A102  A(45,46,48)           117.808                                          !
 ! A103  A(47,46,48)           118.8973                                         !
 ! A104  A(46,47,59)           121.2393                                         !
 ! A105  A(46,47,60)           116.1165                                         !
 ! A106  A(59,47,60)           115.0659                                         !
 ! A107  A(46,48,61)           118.4939                                         !
 ! A108  A(46,48,62)           120.2302                                         !
 ! A109  A(61,48,62)           115.6826                                         !
 ! D1    D(11,1,2,3)           170.8134                                         !
 ! D2    D(11,1,2,5)            50.1746                                         !
 ! D3    D(11,1,2,12)          -69.4056                                         !
 ! D4    D(17,1,2,3)           -68.1261                                         !
 ! D5    D(17,1,2,5)           171.235                                          !
 ! D6    D(17,1,2,12)           51.6548                                         !
 ! D7    D(18,1,2,3)            49.6462                                         !
 ! D8    D(18,1,2,5)           -70.9927                                         !
 ! D9    D(18,1,2,12)          169.4271                                         !
 ! D10   D(1,2,3,4)            -65.1747                                         !
 ! D11   D(1,2,3,19)           113.5731                                         !
 ! D12   D(5,2,3,4)             54.6927                                         !
 ! D13   D(5,2,3,19)          -126.5595                                         !
 ! D14   D(12,2,3,4)          -179.628                                          !
 ! D15   D(12,2,3,19)           -0.8802                                         !
 ! D16   D(1,2,5,6)            -95.1006                                         !
 ! D17   D(1,2,5,13)           144.7737                                         !
 ! D18   D(1,2,5,14)            29.9285                                         !
 ! D19   D(3,2,5,6)            149.5138                                         !
 ! D20   D(3,2,5,13)            29.388                                          !
 ! D21   D(3,2,5,14)           -85.4571                                         !
 ! D22   D(12,2,5,6)            21.976                                          !
 ! D23   D(12,2,5,13)          -98.1498                                         !
 ! D24   D(12,2,5,14)          147.0051                                         !
 ! D25   D(2,3,19,20)          -13.5839                                         !
 ! D26   D(2,3,19,27)         -174.9418                                         !
 ! D27   D(4,3,19,20)          165.0616                                         !
 ! D28   D(4,3,19,27)            3.7038                                         !
 ! D29   D(2,5,6,7)             60.1768                                         !
 ! D30   D(2,5,6,15)          -177.3651                                         !
 ! D31   D(2,5,6,16)           -61.4932                                         !
 ! D32   D(13,5,6,7)          -179.401                                          !
 ! D33   D(13,5,6,15)          -56.9429                                         !
 ! D34   D(13,5,6,16)           58.929                                          !
 ! D35   D(14,5,6,7)           -64.3924                                         !
 ! D36   D(14,5,6,15)           58.0657                                         !
 ! D37   D(14,5,6,16)          173.9376                                         !
 ! D38   D(5,6,7,8)             -2.1876                                         !
 ! D39   D(5,6,7,9)            179.4189                                         !
 ! D40   D(15,6,7,8)          -125.2166                                         !
 ! D41   D(15,6,7,9)            56.39                                           !
 ! D42   D(16,6,7,8)           120.9545                                         !
 ! D43   D(16,6,7,9)           -57.439                                          !
 ! D44   D(6,7,9,10)            -2.5991                                         !
 ! D45   D(8,7,9,10)           178.8977                                         !
 ! D46   D(3,19,20,21)         -40.5904                                         !
 ! D47   D(3,19,20,23)        -161.4932                                         !
 ! D48   D(3,19,20,28)          79.2259                                         !
 ! D49   D(27,19,20,21)        120.0565                                         !
 ! D50   D(27,19,20,23)         -0.8463                                         !
 ! D51   D(27,19,20,28)       -120.1272                                         !
 ! D52   D(19,20,21,22)        -30.5439                                         !
 ! D53   D(19,20,21,38)        147.8074                                         !
 ! D54   D(23,20,21,22)         90.8247                                         !
 ! D55   D(23,20,21,38)        -90.824                                          !
 ! D56   D(28,20,21,22)       -150.6651                                         !
 ! D57   D(28,20,21,38)         27.6861                                         !
 ! D58   D(19,20,23,24)        -59.9778                                         !
 ! D59   D(19,20,23,29)        178.448                                          !
 ! D60   D(19,20,23,30)         64.0362                                         !
 ! D61   D(21,20,23,24)        177.8718                                         !
 ! D62   D(21,20,23,29)         56.2976                                         !
 ! D63   D(21,20,23,30)        -58.1142                                         !
 ! D64   D(28,20,23,24)         59.491                                          !
 ! D65   D(28,20,23,29)        -62.0832                                         !
 ! D66   D(28,20,23,30)       -176.495                                          !
 ! D67   D(20,21,38,39)       -177.468                                          !
 ! D68   D(20,21,38,50)         -7.5024                                         !
 ! D69   D(22,21,38,39)          0.8273                                         !
 ! D70   D(22,21,38,50)        170.7929                                         !
 ! D71   D(20,23,24,25)       -179.9318                                         !
 ! D72   D(20,23,24,26)        -56.3607                                         !
 ! D73   D(20,23,24,31)         63.1885                                         !
 ! D74   D(29,23,24,25)        -59.3249                                         !
 ! D75   D(29,23,24,26)         64.2462                                         !
 ! D76   D(29,23,24,31)       -176.2047                                         !
 ! D77   D(30,23,24,25)         57.2313                                         !
 ! D78   D(30,23,24,26)       -179.1976                                         !
 ! D79   D(30,23,24,31)        -59.6484                                         !
 ! D80   D(23,24,25,32)       -176.8161                                         !
 ! D81   D(23,24,25,33)        -56.5332                                         !
 ! D82   D(23,24,25,34)         63.6448                                         !
 ! D83   D(26,24,25,32)         58.8499                                         !
 ! D84   D(26,24,25,33)        179.1328                                         !
 ! D85   D(26,24,25,34)        -60.6891                                         !
 ! D86   D(31,24,25,32)        -58.9109                                         !
 ! D87   D(31,24,25,33)         61.372                                          !
 ! D88   D(31,24,25,34)       -178.4499                                         !
 ! D89   D(23,24,26,35)       -176.0335                                         !
 ! D90   D(23,24,26,36)        -56.7685                                         !
 ! D91   D(23,24,26,37)         64.3139                                         !
 ! D92   D(25,24,26,35)        -53.5569                                         !
 ! D93   D(25,24,26,36)         65.7082                                         !
 ! D94   D(25,24,26,37)       -173.2095                                         !
 ! D95   D(31,24,26,35)         63.8308                                         !
 ! D96   D(31,24,26,36)       -176.9042                                         !
 ! D97   D(31,24,26,37)        -55.8219                                         !
 ! D98   D(21,38,39,40)        177.1636                                         !
 ! D99   D(21,38,39,42)         57.1968                                         !
 ! D100  D(21,38,39,51)        -64.3851                                         !
 ! D101  D(50,38,39,40)          6.3531                                         !
 ! D102  D(50,38,39,42)       -113.6137                                         !
 ! D103  D(50,38,39,51)        124.8044                                         !
 ! D104  D(38,39,40,41)        157.3689                                         !
 ! D105  D(38,39,40,49)        -29.633                                          !
 ! D106  D(42,39,40,41)        -81.6675                                         !
 ! D107  D(42,39,40,49)         91.3306                                         !
 ! D108  D(51,39,40,41)         38.4636                                         !
 ! D109  D(51,39,40,49)       -148.5383                                         !
 ! D110  D(38,39,42,43)        149.7748                                         !
 ! D111  D(38,39,42,52)         28.7296                                         !
 ! D112  D(38,39,42,53)        -86.7264                                         !
 ! D113  D(40,39,42,43)         31.3608                                         !
 ! D114  D(40,39,42,52)        -89.6844                                         !
 ! D115  D(40,39,42,53)        154.8596                                         !
 ! D116  D(51,39,42,43)        -88.4968                                         !
 ! D117  D(51,39,42,52)        150.458                                          !
 ! D118  D(51,39,42,53)         35.002                                          !
 ! D119  D(39,42,43,44)        -81.6945                                         !
 ! D120  D(39,42,43,54)         39.6551                                         !
 ! D121  D(39,42,43,55)        157.3309                                         !
 ! D122  D(52,42,43,44)         39.2412                                         !
 ! D123  D(52,42,43,54)        160.5908                                         !
 ! D124  D(52,42,43,55)        -81.7334                                         !
 ! D125  D(53,42,43,44)        155.5956                                         !
 ! D126  D(53,42,43,54)        -83.0547                                         !
 ! D127  D(53,42,43,55)         34.621                                          !
 ! D128  D(42,43,44,45)        140.5255                                         !
 ! D129  D(42,43,44,56)         19.8696                                         !
 ! D130  D(42,43,44,57)        -98.5122                                         !
 ! D131  D(54,43,44,45)         19.4367                                         !
 ! D132  D(54,43,44,56)       -101.2192                                         !
 ! D133  D(54,43,44,57)        140.3991                                         !
 ! D134  D(55,43,44,45)        -98.6148                                         !
 ! D135  D(55,43,44,56)        140.7293                                         !
 ! D136  D(55,43,44,57)         22.3475                                         !
 ! D137  D(43,44,45,46)       -119.4127                                         !
 ! D138  D(43,44,45,58)         45.0486                                         !
 ! D139  D(56,44,45,46)          3.1026                                         !
 ! D140  D(56,44,45,58)        167.5638                                         !
 ! D141  D(57,44,45,46)        118.4265                                         !
 ! D142  D(57,44,45,58)        -77.1122                                         !
 ! D143  D(44,45,46,47)         -1.896                                          !
 ! D144  D(44,45,46,48)       -176.0318                                         !
 ! D145  D(58,45,46,47)       -166.2798                                         !
 ! D146  D(58,45,46,48)         19.5845                                         !
 ! D147  D(45,46,47,59)         39.0798                                         !
 ! D148  D(45,46,47,60)       -172.7938                                         !
 ! D149  D(48,46,47,59)       -146.8452                                         !
 ! D150  D(48,46,47,60)          1.2812                                         !
 ! D151  D(45,46,48,61)       -151.0052                                         !
 ! D152  D(45,46,48,62)          1.4986                                         !
 ! D153  D(47,46,48,61)         34.609                                          !
 ! D154  D(47,46,48,62)       -172.8871                                         !
 --------------------------------------------------------------------------------
 Symmetry turned off by external request.
 Stoichiometry    C17H33N6O6(1+)
 Framework group  C1[X(C17H33N6O6)]
 Deg. of freedom   180
 Full point group                 C1      NOp   1
                          Input orientation:                          
 ---------------------------------------------------------------------
 Center     Atomic      Atomic             Coordinates (Angstroms)
 Number     Number       Type             X           Y           Z
 ---------------------------------------------------------------------
      1          7           0       14.519636   17.895834   12.538409
      2          6           0       13.896549   18.935127   13.435533
      3          6           0       13.897941   20.209849   12.567415
      4          8           0       14.992784   20.669838   12.262154
      5          6           0       14.713700   19.111263   14.730475
      6          6           0       14.200591   18.277577   15.914749
      7          6           0       14.190386   16.769537   15.707522
      8          8           0       14.516757   16.203063   14.679727
      9          8           0       13.756718   16.027371   16.736118
     10          1           0       13.538824   16.573698   17.511318
     11          1           0       14.700136   17.042197   13.099428
     12          1           0       12.897187   18.568767   13.669880
     13          1           0       14.675502   20.164859   15.021226
     14          1           0       15.769758   18.898710   14.535714
     15          1           0       14.807216   18.497782   16.803304
     16          1           0       13.173516   18.577961   16.168793
     17          1           0       13.840530   17.719800   11.760126
     18          1           0       15.389642   18.281008   12.150604
     19          7           0       12.712400   20.730893   12.172522
     20          6           0       11.390545   20.103114   12.227062
     21          6           0       11.463080   18.611439   11.824831
     22          8           0       12.313151   18.204507   11.010587
     23          6           0       10.422265   20.835430   11.276757
     24          6           0       10.191934   22.332500   11.570015
     25          6           0        9.207213   22.901125   10.537320
     26          6           0        9.692205   22.576410   13.000460
     27          1           0       12.823748   21.516878   11.541010
     28          1           0       11.001644   20.171581   13.250821
     29          1           0        9.459837   20.311782   11.333481
     30          1           0       10.791958   20.703568   10.251379
     31          1           0       11.143893   22.871539   11.446817
     32          1           0        9.066829   23.976873   10.685301
     33          1           0        9.563619   22.744902    9.512825
     34          1           0        8.225864   22.419492   10.629831
     35          1           0        9.471730   23.637626   13.155007
     36          1           0        8.769666   22.013798   13.193095
     37          1           0       10.433062   22.286254   13.754836
     38          7           0       10.580288   17.824628   12.440592
     39          6           0       10.465294   16.371856   12.287074
     40          6           0        9.349003   15.897394   13.252942
     41          8           0        8.793110   14.822374   12.997558
     42          6           0       11.805943   15.656892   12.639759
     43          6           0       11.665638   14.234073   13.216144
     44          6           0       11.346823   14.237878   14.735357
     45          7           0       10.372550   13.202599   15.107034
     46          6           0        9.168054   13.381546   15.664772
     47          7           0        8.694438   14.579489   16.000615
     48          7           0        8.455178   12.273825   16.004741
     49          8           0        9.219543   16.620138   14.307263
     50          1           0        9.994286   18.170884   13.200227
     51          1           0       10.179012   16.128649   11.261320
     52          1           0       12.332966   16.273170   13.377429
     53          1           0       12.429003   15.632478   11.740696
     54          1           0       10.868499   13.712442   12.680371
     55          1           0       12.601797   13.690273   13.048511
     56          1           0       10.941622   15.199689   15.045450
     57          1           0       12.260824   14.073249   15.316792
     58          1           0       10.537765   12.290748   14.700956
     59          1           0        8.858401   15.427567   15.386034
     60          1           0        7.824270   14.585701   16.516197
     61          1           0        7.446361   12.329036   15.998083
     62          1           0        8.844197   11.353498   15.856789
 ---------------------------------------------------------------------
 Rotational constants (GHZ):           0.2082346           0.1040699           0.0813514
 Standard basis: 6-31G(d) (6D, 7F)
   501 basis functions,   944 primitive gaussians,   501 cartesian basis functions
   112 alpha electrons      112 beta electrons
       nuclear repulsion energy      3169.1366643295 Hartrees.
 NAtoms=   62 NActive=   62 NUniq=   62 SFac= 1.00D+00 NAtFMM=   60 NAOKFM=T Big=T
 Integral buffers will be    131072 words long.
 Raffenetti 2 integral format.
 Two-electron integral symmetry is turned off.
 Nuclear repulsion after empirical dispersion term =     3169.0517986074 Hartrees.
 One-electron integrals computed using PRISM.
 NBasis=   501 RedAO= T EigKep=  1.61D-03  NBF=   501
 NBsUse=   501 1.00D-06 EigRej= -1.00D+00 NBFU=   501
 Initial guess from the checkpoint file:  "conf-34.chk"
 B after Tr=     0.000000    0.000000    0.000000
         Rot=    1.000000    0.000000    0.000000    0.000000 Ang=   0.00 deg.
 Requested convergence on RMS density matrix=1.00D-08 within 128 cycles.
 Requested convergence on MAX density matrix=1.00D-06.
 Requested convergence on             energy=1.00D-06.
 No special actions if energy rises.
 SCF Done:  E(RB3LYP) =  -1447.48208789     A.U. after    2 cycles
            NFock=  2  Conv=0.69D-08     -V/T= 2.0093

 **********************************************************************

            Population analysis using the SCF Density.

 **********************************************************************

 Alpha  occ. eigenvalues --  -19.33516 -19.28476 -19.23783 -19.23037 -19.17799
 Alpha  occ. eigenvalues --  -19.16395 -14.55983 -14.48800 -14.48521 -14.48092
 Alpha  occ. eigenvalues --  -14.46482 -14.45569 -10.46755 -10.44242 -10.41526
 Alpha  occ. eigenvalues --  -10.39999 -10.38774 -10.35126 -10.34978 -10.34966
 Alpha  occ. eigenvalues --  -10.34026 -10.32500 -10.31066 -10.29149 -10.28759
 Alpha  occ. eigenvalues --  -10.28457 -10.28122 -10.26029 -10.25294  -1.24485
 Alpha  occ. eigenvalues --   -1.16583  -1.16124  -1.14563  -1.12670  -1.11045
 Alpha  occ. eigenvalues --   -1.10584  -1.04525  -1.03151  -1.02524  -1.01390
 Alpha  occ. eigenvalues --   -0.99900  -0.94590  -0.91074  -0.89271  -0.86926
 Alpha  occ. eigenvalues --   -0.85760  -0.82848  -0.79354  -0.77946  -0.76806
 Alpha  occ. eigenvalues --   -0.75452  -0.74708  -0.74066  -0.72504  -0.71355
 Alpha  occ. eigenvalues --   -0.70246  -0.69864  -0.68967  -0.67027  -0.66547
 Alpha  occ. eigenvalues --   -0.65876  -0.65061  -0.64101  -0.63435  -0.61634
 Alpha  occ. eigenvalues --   -0.61436  -0.60978  -0.60045  -0.59718  -0.58948
 Alpha  occ. eigenvalues --   -0.58535  -0.57851  -0.56815  -0.56105  -0.55223
 Alpha  occ. eigenvalues --   -0.54839  -0.54661  -0.53785  -0.53283  -0.52850
 Alpha  occ. eigenvalues --   -0.52822  -0.51885  -0.51139  -0.50754  -0.50622
 Alpha  occ. eigenvalues --   -0.50183  -0.49360  -0.48849  -0.48744  -0.48182
 Alpha  occ. eigenvalues --   -0.47911  -0.46735  -0.46549  -0.46233  -0.45841
 Alpha  occ. eigenvalues --   -0.45461  -0.45193  -0.43732  -0.43064  -0.42222
 Alpha  occ. eigenvalues --   -0.41919  -0.41790  -0.41559  -0.39235  -0.38101
 Alpha  occ. eigenvalues --   -0.37794  -0.36999  -0.36310  -0.36281  -0.33192
 Alpha  occ. eigenvalues --   -0.32477  -0.30441
 Alpha virt. eigenvalues --   -0.13519  -0.11372  -0.10005  -0.08939  -0.07200
 Alpha virt. eigenvalues --   -0.05371  -0.04970  -0.04106  -0.03049  -0.02167
 Alpha virt. eigenvalues --   -0.01677  -0.01162  -0.00853  -0.00087   0.00006
 Alpha virt. eigenvalues --    0.01520   0.01647   0.02593   0.02999   0.03164
 Alpha virt. eigenvalues --    0.03489   0.03941   0.04240   0.04607   0.05074
 Alpha virt. eigenvalues --    0.05141   0.05771   0.06302   0.06746   0.07212
 Alpha virt. eigenvalues --    0.07671   0.08018   0.08180   0.08880   0.09220
 Alpha virt. eigenvalues --    0.10532   0.10697   0.11132   0.11400   0.11798
 Alpha virt. eigenvalues --    0.12109   0.12701   0.13138   0.13497   0.13834
 Alpha virt. eigenvalues --    0.14473   0.14574   0.15611   0.16164   0.16562
 Alpha virt. eigenvalues --    0.17720   0.18077   0.18685   0.19254   0.19640
 Alpha virt. eigenvalues --    0.20259   0.21703   0.23564   0.24975   0.26848
 Alpha virt. eigenvalues --    0.27215   0.28931   0.29315   0.31475   0.32333
 Alpha virt. eigenvalues --    0.36296   0.36610   0.38122   0.39143   0.39405
 Alpha virt. eigenvalues --    0.40550   0.41142   0.41446   0.42514   0.43010
 Alpha virt. eigenvalues --    0.43639   0.44080   0.44209   0.45016   0.45686
 Alpha virt. eigenvalues --    0.46693   0.46933   0.47180   0.47649   0.48085
 Alpha virt. eigenvalues --    0.49062   0.49464   0.50355   0.50745   0.51707
 Alpha virt. eigenvalues --    0.51820   0.52472   0.53305   0.53580   0.53950
 Alpha virt. eigenvalues --    0.54690   0.55383   0.55930   0.56098   0.56693
 Alpha virt. eigenvalues --    0.57201   0.58025   0.58663   0.59149   0.59972
 Alpha virt. eigenvalues --    0.60629   0.61116   0.61899   0.62052   0.63426
 Alpha virt. eigenvalues --    0.63748   0.64485   0.64573   0.65228   0.65751
 Alpha virt. eigenvalues --    0.67016   0.68112   0.68532   0.69405   0.70312
 Alpha virt. eigenvalues --    0.70584   0.70983   0.72208   0.72343   0.73144
 Alpha virt. eigenvalues --    0.74099   0.74223   0.74965   0.75417   0.75671
 Alpha virt. eigenvalues --    0.75901   0.76309   0.76316   0.76927   0.77120
 Alpha virt. eigenvalues --    0.77885   0.78231   0.78818   0.79050   0.79630
 Alpha virt. eigenvalues --    0.80052   0.80690   0.80986   0.81451   0.81790
 Alpha virt. eigenvalues --    0.82244   0.82572   0.83061   0.83380   0.84064
 Alpha virt. eigenvalues --    0.84425   0.85116   0.85441   0.85812   0.86663
 Alpha virt. eigenvalues --    0.87133   0.87426   0.87856   0.89367   0.89792
 Alpha virt. eigenvalues --    0.90561   0.91429   0.91607   0.92267   0.92715
 Alpha virt. eigenvalues --    0.93768   0.95058   0.95177   0.95819   0.97152
 Alpha virt. eigenvalues --    0.98845   0.99276   0.99867   1.00260   1.01150
 Alpha virt. eigenvalues --    1.02648   1.03362   1.05333   1.05632   1.06697
 Alpha virt. eigenvalues --    1.07390   1.08760   1.09647   1.11397   1.11688
 Alpha virt. eigenvalues --    1.12758   1.14570   1.15918   1.16369   1.18004
 Alpha virt. eigenvalues --    1.18477   1.19580   1.20009   1.21028   1.22670
 Alpha virt. eigenvalues --    1.23416   1.23991   1.24324   1.27118   1.27871
 Alpha virt. eigenvalues --    1.29270   1.30531   1.31322   1.33178   1.34236
 Alpha virt. eigenvalues --    1.35624   1.36343   1.37267   1.38130   1.38732
 Alpha virt. eigenvalues --    1.40262   1.40429   1.42192   1.44879   1.45020
 Alpha virt. eigenvalues --    1.46126   1.47763   1.49242   1.50222   1.52056
 Alpha virt. eigenvalues --    1.52624   1.53609   1.56429   1.56959   1.57959
 Alpha virt. eigenvalues --    1.58167   1.59321   1.60106   1.61018   1.61548
 Alpha virt. eigenvalues --    1.61898   1.63356   1.63901   1.64748   1.65590
 Alpha virt. eigenvalues --    1.66364   1.67218   1.68035   1.68924   1.70087
 Alpha virt. eigenvalues --    1.70292   1.71099   1.72144   1.72740   1.73730
 Alpha virt. eigenvalues --    1.74133   1.75154   1.75279   1.75920   1.76753
 Alpha virt. eigenvalues --    1.77071   1.77769   1.78384   1.78773   1.79877
 Alpha virt. eigenvalues --    1.80109   1.80741   1.81559   1.81705   1.83021
 Alpha virt. eigenvalues --    1.84297   1.84436   1.85273   1.86510   1.87652
 Alpha virt. eigenvalues --    1.88137   1.89654   1.90029   1.90257   1.90713
 Alpha virt. eigenvalues --    1.91791   1.92466   1.92756   1.93805   1.94604
 Alpha virt. eigenvalues --    1.95506   1.97381   1.97886   1.99629   2.00192
 Alpha virt. eigenvalues --    2.00669   2.01451   2.02515   2.03609   2.04261
 Alpha virt. eigenvalues --    2.06376   2.07348   2.08188   2.09997   2.10759
 Alpha virt. eigenvalues --    2.11131   2.13030   2.14526   2.15627   2.15871
 Alpha virt. eigenvalues --    2.17434   2.18487   2.19249   2.20086   2.21024
 Alpha virt. eigenvalues --    2.22210   2.22403   2.23560   2.24069   2.25437
 Alpha virt. eigenvalues --    2.26259   2.27375   2.28914   2.30662   2.31679
 Alpha virt. eigenvalues --    2.32392   2.32995   2.33372   2.34168   2.35091
 Alpha virt. eigenvalues --    2.36420   2.36833   2.39485   2.39901   2.42559
 Alpha virt. eigenvalues --    2.42868   2.43686   2.43859   2.46133   2.47200
 Alpha virt. eigenvalues --    2.47302   2.48656   2.49545   2.52183   2.52953
 Alpha virt. eigenvalues --    2.54058   2.55094   2.56135   2.57817   2.58939
 Alpha virt. eigenvalues --    2.59347   2.62053   2.63045   2.63835   2.64903
 Alpha virt. eigenvalues --    2.65355   2.67508   2.70205   2.71858   2.71989
 Alpha virt. eigenvalues --    2.74474   2.79718   2.83136   2.86115   2.87102
 Alpha virt. eigenvalues --    2.88682   2.89262   2.90459   2.94240   2.94794
 Alpha virt. eigenvalues --    2.97478   2.99919   3.03015   3.07079   3.13913
 Alpha virt. eigenvalues --    3.67963   3.72528   3.73509   3.82466   3.84383
 Alpha virt. eigenvalues --    3.86719   3.94386   3.98648   4.00902   4.05109
 Alpha virt. eigenvalues --    4.06946   4.09485   4.13915   4.18301   4.19917
 Alpha virt. eigenvalues --    4.20573   4.21039   4.27091   4.28228   4.29476
 Alpha virt. eigenvalues --    4.30781   4.35290   4.38831   4.42033   4.45777
 Alpha virt. eigenvalues --    4.50182   4.54696   4.62475   4.67831
          Condensed to atoms (all electrons):
 Mulliken charges:
               1
     1  N   -0.778835
     2  C   -0.109119
     3  C    0.614026
     4  O   -0.501125
     5  C   -0.283468
     6  C   -0.430753
     7  C    0.649781
     8  O   -0.481194
     9  O   -0.538428
    10  H    0.437893
    11  H    0.439094
    12  H    0.197299
    13  H    0.208667
    14  H    0.193956
    15  H    0.212343
    16  H    0.201285
    17  H    0.450097
    18  H    0.405413
    19  N   -0.598547
    20  C   -0.031753
    21  C    0.599711
    22  O   -0.590074
    23  C   -0.302145
    24  C   -0.086396
    25  C   -0.446127
    26  C   -0.453145
    27  H    0.362208
    28  H    0.161574
    29  H    0.168066
    30  H    0.172800
    31  H    0.128590
    32  H    0.163342
    33  H    0.155271
    34  H    0.154611
    35  H    0.169030
    36  H    0.152289
    37  H    0.137915
    38  N   -0.603659
    39  C    0.013876
    40  C    0.570857
    41  O   -0.561574
    42  C   -0.311349
    43  C   -0.292634
    44  C   -0.163878
    45  N   -0.587424
    46  C    0.797491
    47  N   -0.770655
    48  N   -0.762522
    49  O   -0.644213
    50  H    0.361124
    51  H    0.185630
    52  H    0.117996
    53  H    0.161956
    54  H    0.198026
    55  H    0.150900
    56  H    0.186637
    57  H    0.184528
    58  H    0.346821
    59  H    0.434487
    60  H    0.349037
    61  H    0.372427
    62  H    0.361967
 Sum of Mulliken charges =   1.00000
 Mulliken charges with hydrogens summed into heavy atoms:
               1
     1  N    0.515769
     2  C    0.088180
     3  C    0.614026
     4  O   -0.501125
     5  C    0.119155
     6  C   -0.017126
     7  C    0.649781
     8  O   -0.481194
     9  O   -0.100535
    19  N   -0.236339
    20  C    0.129820
    21  C    0.599711
    22  O   -0.590074
    23  C    0.038722
    24  C    0.042193
    25  C    0.027096
    26  C    0.006089
    38  N   -0.242535
    39  C    0.199506
    40  C    0.570857
    41  O   -0.561574
    42  C   -0.031397
    43  C    0.056292
    44  C    0.207287
    45  N   -0.240603
    46  C    0.797491
    47  N    0.012869
    48  N   -0.028129
    49  O   -0.644213
 Electronic spatial extent (au):  <R**2>=         513415.5372
 Charge=              1.0000 electrons
 Dipole moment (field-independent basis, Debye):
    X=             57.7282    Y=             80.1772    Z=             72.7173  Tot=            122.6733
 Quadrupole moment (field-independent basis, Debye-Ang):
   XX=            554.5110   YY=           1240.9793   ZZ=            949.0894
   XY=            983.0937   XZ=            865.8626   YZ=           1192.9875
 Traceless Quadrupole moment (field-independent basis, Debye-Ang):
   XX=           -360.3488   YY=            326.1194   ZZ=             34.2295
   XY=            983.0937   XZ=            865.8626   YZ=           1192.9875
 Octapole moment (field-independent basis, Debye-Ang**2):
  XXX=           3490.8135  YYY=          16880.1543  ZZZ=          10618.8620  XYY=          15426.9630
  XXY=           9476.5664  XXZ=           8535.4920  XZZ=          11254.8779  YZZ=          15125.7685
  YYZ=          18307.0411  XYZ=          14598.7634
 Hexadecapole moment (field-independent basis, Debye-Ang**3):
 XXXX=         -16466.4678 YYYY=         163027.5333 ZZZZ=          88807.0708 XXXY=          57753.4866
 XXXZ=          60577.0215 YYYX=         212070.3242 YYYZ=         250831.2830 ZZZX=         125808.9116
 ZZZY=         161297.9178 XXYY=         142427.1207 XXZZ=         109896.8914 YYZZ=         222324.7762
 XXYZ=         145902.0255 YYXZ=         228899.7587 ZZXY=         186416.3192
 N-N= 3.169051798607D+03 E-N=-9.688645030917D+03  KE= 1.434082624173D+03
 Unable to Open any file for archive entry.
 1\1\GINC-NVL-004\SP\RB3LYP\6-31G(d)\C17H33N6O6(1+)\KENGMITH\24-May-202
 2\0\\# B3LYP/6-31G* empiricaldispersion=gd3 guess=read geom=check nosy
 mm integral(ultrafinegrid)\\Candidate Structure: Conf:34 Charge calc i
 n gas phase\\1,1\N,0,14.5196359828,17.8958343231,12.5384094403\C,0,13.
 8965494301,18.9351272954,13.4355326596\C,0,13.8979408935,20.2098485584
 ,12.5674147652\O,0,14.9927839548,20.6698378302,12.2621537376\C,0,14.71
 3699911,19.1112632166,14.7304753672\C,0,14.2005914818,18.2775771787,15
 .9147493738\C,0,14.1903860427,16.7695369887,15.7075223179\O,0,14.51675
 742,16.203063265,14.6797272127\O,0,13.7567178707,16.0273708315,16.7361
 176212\H,0,13.5388243278,16.5736981616,17.511317761\H,0,14.7001356156,
 17.042196616,13.0994280137\H,0,12.8971871059,18.5687669929,13.66987984
 91\H,0,14.6755022998,20.1648587322,15.0212255266\H,0,15.7697575234,18.
 8987096373,14.5357137154\H,0,14.8072156212,18.4977823141,16.8033042959
 \H,0,13.1735164128,18.577961446,16.1687927949\H,0,13.8405302212,17.719
 8002733,11.7601255143\H,0,15.3896423915,18.2810081941,12.1506037535\N,
 0,12.7124003126,20.7308927178,12.1725218385\C,0,11.3905451492,20.10311
 42208,12.227061703\C,0,11.4630800419,18.6114392136,11.8248309288\O,0,1
 2.3131507511,18.2045070593,11.0105868267\C,0,10.4222648583,20.83543033
 58,11.2767569921\C,0,10.1919337047,22.3325003962,11.5700145171\C,0,9.2
 072131105,22.9011249747,10.5373203421\C,0,9.6922047815,22.5764104885,1
 3.000460368\H,0,12.8237475112,21.5168782689,11.5410097647\H,0,11.00164
 39632,20.1715807938,13.2508213802\H,0,9.4598366572,20.3117821143,11.33
 34810017\H,0,10.7919584657,20.7035676489,10.2513790536\H,0,11.14389344
 02,22.8715390424,11.4468167336\H,0,9.0668290796,23.9768728448,10.68530
 08018\H,0,9.5636193819,22.7449024566,9.51282484\H,0,8.2258635295,22.41
 94916078,10.6298306329\H,0,9.4717304627,23.6376258035,13.1550074672\H,
 0,8.7696658693,22.0137983727,13.193094599\H,0,10.4330622328,22.2862537
 549,13.7548362368\N,0,10.5802877605,17.8246284401,12.440592473\C,0,10.
 4652936457,16.3718559273,12.2870744386\C,0,9.3490029236,15.8973943849,
 13.2529423314\O,0,8.7931095099,14.8223744204,12.997557771\C,0,11.80594
 34455,15.6568922983,12.639758671\C,0,11.6656378306,14.23407285,13.2161
 435419\C,0,11.3468229553,14.2378778995,14.7353573988\N,0,10.3725501966
 ,13.2025988252,15.1070339075\C,0,9.168053554,13.3815461352,15.66477198
 38\N,0,8.6944381059,14.5794891853,16.0006147171\N,0,8.4551775773,12.27
 38252312,16.0047411814\O,0,9.2195425971,16.6201379506,14.3072625419\H,
 0,9.9942857058,18.1708837158,13.2002272206\H,0,10.1790115826,16.128649
 1554,11.2613195443\H,0,12.3329655972,16.2731703012,13.3774287998\H,0,1
 2.4290031904,15.6324782087,11.74069649\H,0,10.8684986713,13.712442334,
 12.6803706272\H,0,12.6017965126,13.6902730816,13.048510608\H,0,10.9416
 221384,15.1996891139,15.0454504551\H,0,12.2608238718,14.0732490992,15.
 3167920765\H,0,10.5377653332,12.2907481989,14.7009563461\H,0,8.8584014
 838,15.4275673857,15.3860342747\H,0,7.8242703918,14.5857010281,16.5161
 974542\H,0,7.4463609097,12.3290364519,15.9980825075\H,0,8.8441972598,1
 1.3534978969,15.8567893506\\Version=ES64L-G16RevC.01\HF=-1447.4820879\
 RMSD=6.922e-09\Dipole=0.8487885,-1.6683101,3.1026968\Quadrupole=-267.9
 105294,242.4617548,25.4487746,730.9060991,643.7475898,886.9569551\PG=C
 01 [X(C17H33N6O6)]\\@
 The archive entry for this job was punched.


 WHEN A MATHEMATICIAN ENGAGED IN INVESTIGATING
 PHYSICAL ACTIONS AND RESULTS HAS ARRIVED AT HIS
 CONCLUSIONS, MAY THEY NOT BE EXPRESSED IN COMMON
 LANGUAGE AS FULLY, CLEARLY, AND DEFINITELY AS IN
 MATHEMATICAL FORMULAE?
           - LETTER FROM M. FARADAY TO J.C. MAXWELL, 1857.
 Job cpu time:       0 days  0 hours  1 minutes 58.3 seconds.
 Elapsed time:       0 days  0 hours  0 minutes 30.0 seconds.
 File lengths (MBytes):  RWF=    248 Int=      0 D2E=      0 Chk=     32 Scr=     16
 Normal termination of Gaussian 16 at Tue May 24 03:31:22 2022.
