 Entering Gaussian System, Link 0=/opt/software/Gaussian/g16-AVX2-C.01/g16/g16
 Input=charge-conf-472.com
 Output=charge-conf-472.log
 Initial command:
 /opt/software/Gaussian/g16-AVX2-C.01/g16/l1.exe "/mnt/gs18/scratch/users/kengmith/Gau-91199.inp" -scrdir="/mnt/gs18/scratch/users/kengmith/"
 Entering Link 1 = /opt/software/Gaussian/g16-AVX2-C.01/g16/l1.exe PID=     91210.
  
 Copyright (c) 1988-2019, Gaussian, Inc.  All Rights Reserved.
  
 This is part of the Gaussian(R) 16 program.  It is based on
 the Gaussian(R) 09 system (copyright 2009, Gaussian, Inc.),
 the Gaussian(R) 03 system (copyright 2003, Gaussian, Inc.),
 the Gaussian(R) 98 system (copyright 1998, Gaussian, Inc.),
 the Gaussian(R) 94 system (copyright 1995, Gaussian, Inc.),
 the Gaussian 92(TM) system (copyright 1992, Gaussian, Inc.),
 the Gaussian 90(TM) system (copyright 1990, Gaussian, Inc.),
 the Gaussian 88(TM) system (copyright 1988, Gaussian, Inc.),
 the Gaussian 86(TM) system (copyright 1986, Carnegie Mellon
 University), and the Gaussian 82(TM) system (copyright 1983,
 Carnegie Mellon University). Gaussian is a federally registered
 trademark of Gaussian, Inc.
  
 This software contains proprietary and confidential information,
 including trade secrets, belonging to Gaussian, Inc.
  
 This software is provided under written license and may be
 used, copied, transmitted, or stored only in accord with that
 written license.
  
 The following legend is applicable only to US Government
 contracts under FAR:
  
                    RESTRICTED RIGHTS LEGEND
  
 Use, reproduction and disclosure by the US Government is
 subject to restrictions as set forth in subparagraphs (a)
 and (c) of the Commercial Computer Software - Restricted
 Rights clause in FAR 52.227-19.
  
 Gaussian, Inc.
 340 Quinnipiac St., Bldg. 40, Wallingford CT 06492
  
  
 ---------------------------------------------------------------
 Warning -- This program may not be used in any manner that
 competes with the business of Gaussian, Inc. or will provide
 assistance to any competitor of Gaussian, Inc.  The licensee
 of this program is prohibited from giving any competitor of
 Gaussian, Inc. access to this program.  By using this program,
 the user acknowledges that Gaussian, Inc. is engaged in the
 business of creating and licensing software in the field of
 computational chemistry and represents and warrants to the
 licensee that it is not a competitor of Gaussian, Inc. and that
 it will not use this program in any manner prohibited above.
 ---------------------------------------------------------------
  

 Cite this work as:
 Gaussian 16, Revision C.01,
 M. J. Frisch, G. W. Trucks, H. B. Schlegel, G. E. Scuseria, 
 M. A. Robb, J. R. Cheeseman, G. Scalmani, V. Barone, 
 G. A. Petersson, H. Nakatsuji, X. Li, M. Caricato, A. V. Marenich, 
 J. Bloino, B. G. Janesko, R. Gomperts, B. Mennucci, H. P. Hratchian, 
 J. V. Ortiz, A. F. Izmaylov, J. L. Sonnenberg, D. Williams-Young, 
 F. Ding, F. Lipparini, F. Egidi, J. Goings, B. Peng, A. Petrone, 
 T. Henderson, D. Ranasinghe, V. G. Zakrzewski, J. Gao, N. Rega, 
 G. Zheng, W. Liang, M. Hada, M. Ehara, K. Toyota, R. Fukuda, 
 J. Hasegawa, M. Ishida, T. Nakajima, Y. Honda, O. Kitao, H. Nakai, 
 T. Vreven, K. Throssell, J. A. Montgomery, Jr., J. E. Peralta, 
 F. Ogliaro, M. J. Bearpark, J. J. Heyd, E. N. Brothers, K. N. Kudin, 
 V. N. Staroverov, T. A. Keith, R. Kobayashi, J. Normand, 
 K. Raghavachari, A. P. Rendell, J. C. Burant, S. S. Iyengar, 
 J. Tomasi, M. Cossi, J. M. Millam, M. Klene, C. Adamo, R. Cammi, 
 J. W. Ochterski, R. L. Martin, K. Morokuma, O. Farkas, 
 J. B. Foresman, and D. J. Fox, Gaussian, Inc., Wallingford CT, 2019.
 
 ******************************************
 Gaussian 16:  ES64L-G16RevC.01  3-Jul-2019
                24-May-2022 
 ******************************************
 %mem=8gb
 %nproc=4
 Will use up to    4 processors via shared memory.
 %chk=conf-472.chk
 ----------------------------------------------------------------------
 # B3LYP/6-31G* empiricaldispersion=gd3 guess=read geom=check nosymm in
 tegral(ultrafinegrid)
 ----------------------------------------------------------------------
 1/29=2,38=1,172=1/1;
 2/12=2,15=1,40=1/2;
 3/5=1,6=6,7=1,11=2,14=-4,25=1,30=1,74=-5,75=-5,116=-2,124=31/1,2,3;
 4/5=1/1;
 5/5=2,38=6/2;
 6/7=2,8=2,9=2,10=2,28=1/1;
 99/5=1,9=1/99;
 ------------------------------------------------------
 Candidate Structure: Conf:472 Charge calc in gas phase
 ------------------------------------------------------
 Structure from the checkpoint file:  "conf-472.chk"
 Charge =  1 Multiplicity = 1
 Redundant internal coordinates found in file.  (old form).
 N,0,13.9319175334,17.1548992606,10.545833692
 C,0,13.5825915361,15.9860093415,11.4325776373
 C,0,14.9168334037,15.66277418,12.1357648186
 O,0,15.8388299609,15.2899198532,11.4170118069
 C,0,13.0660319524,14.7936820942,10.6076667858
 C,0,11.5445996536,14.7736969783,10.3984489057
 C,0,10.9579596324,15.9297312014,9.6180204126
 O,0,11.5467321391,16.9399719526,9.2575672432
 O,0,9.6587500592,15.7430770855,9.3633569388
 H,0,9.3404322766,16.5087295637,8.8457086295
 H,0,14.0950759597,17.9698891335,11.181834338
 H,0,12.801778349,16.3372082338,12.1073020008
 H,0,13.3354699862,13.8756137934,11.1385141852
 H,0,13.5986942562,14.7461954473,9.6522772033
 H,0,11.2483491113,13.8504644187,9.8875831267
 H,0,11.0220086465,14.7498106297,11.3646986231
 H,0,14.8019713515,16.9293598926,10.0471417846
 H,0,13.1517767785,17.3209782856,9.8803140157
 N,0,15.01619756,15.8174444331,13.4767951722
 C,0,14.1238898538,16.5439311795,14.3877018706
 C,0,13.5539501419,17.8104209655,13.7144866015
 O,0,14.2099006954,18.447338813,12.8693895981
 C,0,14.9287466464,16.9305982694,15.6491159927
 C,0,14.1240389402,17.590449041,16.7873255159
 C,0,13.0410113926,16.6631952533,17.3596940245
 C,0,15.0917754224,18.0327029816,17.8954446655
 H,0,15.9552266134,15.6337228359,13.8161979166
 H,0,13.2926845422,15.8897930701,14.6742591078
 H,0,15.7351168029,17.6031277311,15.3290299862
 H,0,15.3998093495,16.0162342797,16.0377170466
 H,0,13.6324470411,18.4904573138,16.3949844196
 H,0,13.4860226515,15.73613138,17.743342879
 H,0,12.5181650963,17.1542573779,18.1861673448
 H,0,12.2746754809,16.3896762061,16.6252245417
 H,0,14.5505024236,18.5386190895,18.701583093
 H,0,15.6101324114,17.1694158334,18.3316248499
 H,0,15.8507504352,18.7247372041,17.5133133188
 N,0,12.3108492194,18.1261470981,14.0813053485
 C,0,11.6075686158,19.3451259361,13.694116057
 C,0,10.5753950948,19.6201346195,14.8197864768
 O,0,9.9625093196,20.7252130574,14.7171412424
 C,0,10.8501312008,19.1543358351,12.3555996253
 C,0,9.5871747618,18.266931379,12.4883269802
 C,0,8.2923799422,19.0817378967,12.7617487423
 N,0,7.4134666555,18.4527360552,13.755736979
 C,0,7.0397241801,18.9468803753,14.9515094431
 N,0,7.5359239935,20.0637955674,15.4529694499
 N,0,6.0945363659,18.2383800938,15.6285078392
 O,0,10.3540161871,18.6874148914,15.6226251059
 H,0,11.8440459258,17.6838385872,14.8792033676
 H,0,12.3209960042,20.1669031641,13.5997937747
 H,0,11.5421318805,18.7173143683,11.6255344373
 H,0,10.5781650625,20.1432803277,11.972153379
 H,0,9.4485908777,17.6725141053,11.5765455187
 H,0,9.7346648618,17.5577684308,13.311147221
 H,0,7.7162487646,19.2012404017,11.8369530803
 H,0,8.5425938062,20.0777132624,13.1210783475
 H,0,7.1529100313,17.4908820709,13.5829102399
 H,0,8.5326037859,20.4054137542,15.2205524724
 H,0,7.1298213395,20.4155592411,16.3096369662
 H,0,5.8426921394,18.5163355118,16.5657164777
 H,0,5.3997141071,17.7084053059,15.1219157152
 Recover connectivity data from disk.
                           ----------------------------
                           !    Current Parameters    !
                           ! (Angstroms and Degrees)  !
 --------------------------                            --------------------------
 ! Name  Definition              Value                                          !
 --------------------------------------------------------------------------------
 ! R1    R(1,2)                  1.5082                                         !
 ! R2    R(1,11)                 1.0466                                         !
 ! R3    R(1,17)                 1.0279                                         !
 ! R4    R(1,18)                 1.0388                                         !
 ! R5    R(2,3)                  1.5425                                         !
 ! R6    R(2,5)                  1.5391                                         !
 ! R7    R(2,12)                 1.0901                                         !
 ! R8    R(3,4)                  1.2271                                         !
 ! R9    R(3,19)                 1.3536                                         !
 ! R10   R(5,6)                  1.5359                                         !
 ! R11   R(5,13)                 1.0942                                         !
 ! R12   R(5,14)                 1.0949                                         !
 ! R13   R(6,7)                  1.5132                                         !
 ! R14   R(6,15)                 1.096                                          !
 ! R15   R(6,16)                 1.0988                                         !
 ! R16   R(7,8)                  1.2236                                         !
 ! R17   R(7,9)                  1.337                                          !
 ! R18   R(9,10)                 0.9775                                         !
 ! R19   R(19,20)                1.4676                                         !
 ! R20   R(19,27)                1.0152                                         !
 ! R21   R(20,21)                1.5434                                         !
 ! R22   R(20,23)                1.5455                                         !
 ! R23   R(20,28)                1.0959                                         !
 ! R24   R(21,22)                1.245                                          !
 ! R25   R(21,38)                1.334                                          !
 ! R26   R(23,24)                1.5422                                         !
 ! R27   R(23,29)                1.0977                                         !
 ! R28   R(23,30)                1.0995                                         !
 ! R29   R(24,25)                1.5363                                         !
 ! R30   R(24,26)                1.5362                                         !
 ! R31   R(24,31)                1.098                                          !
 ! R32   R(25,32)                1.0976                                         !
 ! R33   R(25,33)                1.0943                                         !
 ! R34   R(25,34)                1.0961                                         !
 ! R35   R(26,35)                1.0949                                         !
 ! R36   R(26,36)                1.0974                                         !
 ! R37   R(26,37)                1.0959                                         !
 ! R38   R(38,39)                1.4596                                         !
 ! R39   R(38,50)                1.0248                                         !
 ! R40   R(39,40)                1.5518                                         !
 ! R41   R(39,42)                1.5498                                         !
 ! R42   R(39,51)                1.0923                                         !
 ! R43   R(40,41)                1.2678                                         !
 ! R44   R(40,49)                1.2504                                         !
 ! R45   R(42,43)                1.5492                                         !
 ! R46   R(42,52)                1.0967                                         !
 ! R47   R(42,53)                1.095                                          !
 ! R48   R(43,44)                1.5541                                         !
 ! R49   R(43,54)                1.0972                                         !
 ! R50   R(43,55)                1.0962                                         !
 ! R51   R(44,45)                1.4684                                         !
 ! R52   R(44,56)                1.0961                                         !
 ! R53   R(44,57)                1.088                                          !
 ! R54   R(45,46)                1.3467                                         !
 ! R55   R(45,58)                1.0114                                         !
 ! R56   R(46,47)                1.3211                                         !
 ! R57   R(46,48)                1.3615                                         !
 ! R58   R(47,59)                1.0789                                         !
 ! R59   R(47,60)                1.0112                                         !
 ! R60   R(48,61)                1.0095                                         !
 ! R61   R(48,62)                1.0101                                         !
 ! A1    A(2,1,11)             106.4                                            !
 ! A2    A(2,1,17)             108.1345                                         !
 ! A3    A(2,1,18)             109.0648                                         !
 ! A4    A(11,1,17)            109.4958                                         !
 ! A5    A(11,1,18)            112.4518                                         !
 ! A6    A(17,1,18)            111.0963                                         !
 ! A7    A(1,2,3)              103.303                                          !
 ! A8    A(1,2,5)              111.2851                                         !
 ! A9    A(1,2,12)             106.2682                                         !
 ! A10   A(3,2,5)              111.8581                                         !
 ! A11   A(3,2,12)             113.8872                                         !
 ! A12   A(5,2,12)             109.9332                                         !
 ! A13   A(2,3,4)              116.5254                                         !
 ! A14   A(2,3,19)             119.4207                                         !
 ! A15   A(4,3,19)             124.0477                                         !
 ! A16   A(2,5,6)              114.5537                                         !
 ! A17   A(2,5,13)             107.8976                                         !
 ! A18   A(2,5,14)             109.7548                                         !
 ! A19   A(6,5,13)             107.4035                                         !
 ! A20   A(6,5,14)             111.2537                                         !
 ! A21   A(13,5,14)            105.495                                          !
 ! A22   A(5,6,7)              116.3826                                         !
 ! A23   A(5,6,15)             110.0128                                         !
 ! A24   A(5,6,16)             110.5871                                         !
 ! A25   A(7,6,15)             107.3598                                         !
 ! A26   A(7,6,16)             106.605                                          !
 ! A27   A(15,6,16)            105.2505                                         !
 ! A28   A(6,7,8)              126.5957                                         !
 ! A29   A(6,7,9)              111.6114                                         !
 ! A30   A(8,7,9)              121.7846                                         !
 ! A31   A(7,9,10)             107.9358                                         !
 ! A32   A(3,19,20)            128.8198                                         !
 ! A33   A(3,19,27)            112.2363                                         !
 ! A34   A(20,19,27)           116.3884                                         !
 ! A35   A(19,20,21)           111.1003                                         !
 ! A36   A(19,20,23)           108.2894                                         !
 ! A37   A(19,20,28)           109.147                                          !
 ! A38   A(21,20,23)           110.0615                                         !
 ! A39   A(21,20,28)           108.8922                                         !
 ! A40   A(23,20,28)           109.3252                                         !
 ! A41   A(20,21,22)           121.4199                                         !
 ! A42   A(20,21,38)           114.7329                                         !
 ! A43   A(22,21,38)           123.8158                                         !
 ! A44   A(20,23,24)           115.9566                                         !
 ! A45   A(20,23,29)           107.3284                                         !
 ! A46   A(20,23,30)           107.6692                                         !
 ! A47   A(24,23,29)           109.6557                                         !
 ! A48   A(24,23,30)           108.5726                                         !
 ! A49   A(29,23,30)           107.3272                                         !
 ! A50   A(23,24,25)           112.6157                                         !
 ! A51   A(23,24,26)           109.0768                                         !
 ! A52   A(23,24,31)           108.6991                                         !
 ! A53   A(25,24,26)           110.4315                                         !
 ! A54   A(25,24,31)           108.1933                                         !
 ! A55   A(26,24,31)           107.6864                                         !
 ! A56   A(24,25,32)           110.7438                                         !
 ! A57   A(24,25,33)           110.3244                                         !
 ! A58   A(24,25,34)           113.1918                                         !
 ! A59   A(32,25,33)           107.9839                                         !
 ! A60   A(32,25,34)           107.8728                                         !
 ! A61   A(33,25,34)           106.4984                                         !
 ! A62   A(24,26,35)           110.652                                          !
 ! A63   A(24,26,36)           110.965                                          !
 ! A64   A(24,26,37)           111.5026                                         !
 ! A65   A(35,26,36)           107.7204                                         !
 ! A66   A(35,26,37)           107.898                                          !
 ! A67   A(36,26,37)           107.9529                                         !
 ! A68   A(21,38,39)           125.0099                                         !
 ! A69   A(21,38,50)           122.4404                                         !
 ! A70   A(39,38,50)           110.3356                                         !
 ! A71   A(38,39,40)           106.0253                                         !
 ! A72   A(38,39,42)           111.2103                                         !
 ! A73   A(38,39,51)           109.664                                          !
 ! A74   A(40,39,42)           108.8594                                         !
 ! A75   A(40,39,51)           111.3294                                         !
 ! A76   A(42,39,51)           109.7094                                         !
 ! A77   A(39,40,41)           114.6629                                         !
 ! A78   A(39,40,49)           116.8278                                         !
 ! A79   A(41,40,49)           128.0667                                         !
 ! A80   A(39,42,43)           113.263                                          !
 ! A81   A(39,42,52)           108.3976                                         !
 ! A82   A(39,42,53)           108.2193                                         !
 ! A83   A(43,42,52)           110.0688                                         !
 ! A84   A(43,42,53)           110.1726                                         !
 ! A85   A(52,42,53)           106.4686                                         !
 ! A86   A(42,43,44)           113.2006                                         !
 ! A87   A(42,43,54)           110.004                                          !
 ! A88   A(42,43,55)           108.9763                                         !
 ! A89   A(44,43,54)           108.9663                                         !
 ! A90   A(44,43,55)           108.6156                                         !
 ! A91   A(54,43,55)           106.8741                                         !
 ! A92   A(43,44,45)           113.1538                                         !
 ! A93   A(43,44,56)           110.2821                                         !
 ! A94   A(43,44,57)           110.2711                                         !
 ! A95   A(45,44,56)           107.6511                                         !
 ! A96   A(45,44,57)           107.832                                          !
 ! A97   A(56,44,57)           107.4414                                         !
 ! A98   A(44,45,46)           127.5878                                         !
 ! A99   A(44,45,58)           116.4815                                         !
 ! A100  A(46,45,58)           115.4151                                         !
 ! A101  A(45,46,47)           122.8894                                         !
 ! A102  A(45,46,48)           116.3097                                         !
 ! A103  A(47,46,48)           120.7957                                         !
 ! A104  A(46,47,59)           122.202                                          !
 ! A105  A(46,47,60)           117.7003                                         !
 ! A106  A(59,47,60)           116.317                                          !
 ! A107  A(46,48,61)           119.443                                          !
 ! A108  A(46,48,62)           120.0791                                         !
 ! A109  A(61,48,62)           116.0071                                         !
 ! D1    D(11,1,2,3)           -70.367                                          !
 ! D2    D(11,1,2,5)           169.4543                                         !
 ! D3    D(11,1,2,12)           49.7957                                         !
 ! D4    D(17,1,2,3)            47.1795                                         !
 ! D5    D(17,1,2,5)           -72.9992                                         !
 ! D6    D(17,1,2,12)          167.3422                                         !
 ! D7    D(18,1,2,3)           168.1046                                         !
 ! D8    D(18,1,2,5)            47.926                                          !
 ! D9    D(18,1,2,12)          -71.7326                                         !
 ! D10   D(1,2,3,4)            -63.7077                                         !
 ! D11   D(1,2,3,19)           115.4237                                         !
 ! D12   D(5,2,3,4)             56.0783                                         !
 ! D13   D(5,2,3,19)          -124.7902                                         !
 ! D14   D(12,2,3,4)          -178.5133                                         !
 ! D15   D(12,2,3,19)            0.6181                                         !
 ! D16   D(1,2,5,6)            -90.5805                                         !
 ! D17   D(1,2,5,13)           149.8751                                         !
 ! D18   D(1,2,5,14)            35.4015                                         !
 ! D19   D(3,2,5,6)            154.4361                                         !
 ! D20   D(3,2,5,13)            34.8917                                         !
 ! D21   D(3,2,5,14)           -79.582                                          !
 ! D22   D(12,2,5,6)            26.8766                                         !
 ! D23   D(12,2,5,13)          -92.6677                                         !
 ! D24   D(12,2,5,14)          152.8586                                         !
 ! D25   D(2,3,19,20)          -15.2814                                         !
 ! D26   D(2,3,19,27)         -176.231                                          !
 ! D27   D(4,3,19,20)          163.7807                                         !
 ! D28   D(4,3,19,27)            2.8311                                         !
 ! D29   D(2,5,6,7)             62.9981                                         !
 ! D30   D(2,5,6,15)          -174.6492                                         !
 ! D31   D(2,5,6,16)           -58.8098                                         !
 ! D32   D(13,5,6,7)          -177.1817                                         !
 ! D33   D(13,5,6,15)          -54.829                                          !
 ! D34   D(13,5,6,16)           61.0104                                         !
 ! D35   D(14,5,6,7)           -62.2006                                         !
 ! D36   D(14,5,6,15)           60.1521                                         !
 ! D37   D(14,5,6,16)          175.9915                                         !
 ! D38   D(5,6,7,8)             -8.0312                                         !
 ! D39   D(5,6,7,9)            173.0061                                         !
 ! D40   D(15,6,7,8)          -131.7635                                         !
 ! D41   D(15,6,7,9)            49.2738                                         !
 ! D42   D(16,6,7,8)           115.8526                                         !
 ! D43   D(16,6,7,9)           -63.11                                           !
 ! D44   D(6,7,9,10)          -178.9475                                         !
 ! D45   D(8,7,9,10)             2.0323                                         !
 ! D46   D(3,19,20,21)         -35.5811                                         !
 ! D47   D(3,19,20,23)        -156.5639                                         !
 ! D48   D(3,19,20,28)          84.5088                                         !
 ! D49   D(27,19,20,21)        124.7084                                         !
 ! D50   D(27,19,20,23)          3.7256                                         !
 ! D51   D(27,19,20,28)       -115.2017                                         !
 ! D52   D(19,20,21,22)        -31.8776                                         !
 ! D53   D(19,20,21,38)        146.1585                                         !
 ! D54   D(23,20,21,22)         88.0572                                         !
 ! D55   D(23,20,21,38)        -93.9068                                         !
 ! D56   D(28,20,21,22)       -152.1186                                         !
 ! D57   D(28,20,21,38)         25.9174                                         !
 ! D58   D(19,20,23,24)       -174.5085                                         !
 ! D59   D(19,20,23,29)         62.5503                                         !
 ! D60   D(19,20,23,30)        -52.7159                                         !
 ! D61   D(21,20,23,24)         63.8672                                         !
 ! D62   D(21,20,23,29)        -59.0739                                         !
 ! D63   D(21,20,23,30)       -174.3402                                         !
 ! D64   D(28,20,23,24)        -55.694                                          !
 ! D65   D(28,20,23,29)       -178.6351                                         !
 ! D66   D(28,20,23,30)         66.0987                                         !
 ! D67   D(20,21,38,39)        173.3507                                         !
 ! D68   D(20,21,38,50)         11.9147                                         !
 ! D69   D(22,21,38,39)         -8.6666                                         !
 ! D70   D(22,21,38,50)       -170.1026                                         !
 ! D71   D(20,23,24,25)         62.5689                                         !
 ! D72   D(20,23,24,26)       -174.4606                                         !
 ! D73   D(20,23,24,31)        -57.3039                                         !
 ! D74   D(29,23,24,25)       -175.7201                                         !
 ! D75   D(29,23,24,26)        -52.7496                                         !
 ! D76   D(29,23,24,31)         64.4071                                         !
 ! D77   D(30,23,24,25)        -58.7422                                         !
 ! D78   D(30,23,24,26)         64.2283                                         !
 ! D79   D(30,23,24,31)       -178.6151                                         !
 ! D80   D(23,24,25,32)         58.4907                                         !
 ! D81   D(23,24,25,33)        177.9862                                         !
 ! D82   D(23,24,25,34)        -62.7943                                         !
 ! D83   D(26,24,25,32)        -63.7187                                         !
 ! D84   D(26,24,25,33)         55.7768                                         !
 ! D85   D(26,24,25,34)        174.9963                                         !
 ! D86   D(31,24,25,32)        178.6556                                         !
 ! D87   D(31,24,25,33)        -61.8489                                         !
 ! D88   D(31,24,25,34)         57.3706                                         !
 ! D89   D(23,24,26,35)        177.9161                                         !
 ! D90   D(23,24,26,36)        -62.5623                                         !
 ! D91   D(23,24,26,37)         57.8177                                         !
 ! D92   D(25,24,26,35)        -57.8177                                         !
 ! D93   D(25,24,26,36)         61.7039                                         !
 ! D94   D(25,24,26,37)       -177.9161                                         !
 ! D95   D(31,24,26,35)         60.1195                                         !
 ! D96   D(31,24,26,36)        179.6411                                         !
 ! D97   D(31,24,26,37)        -59.9789                                         !
 ! D98   D(21,38,39,40)       -153.229                                          !
 ! D99   D(21,38,39,42)         88.5925                                         !
 ! D100  D(21,38,39,51)        -32.9302                                         !
 ! D101  D(50,38,39,40)         10.12                                           !
 ! D102  D(50,38,39,42)       -108.0586                                         !
 ! D103  D(50,38,39,51)        130.4187                                         !
 ! D104  D(38,39,40,41)        173.1089                                         !
 ! D105  D(38,39,40,49)        -13.9022                                         !
 ! D106  D(42,39,40,41)        -67.1629                                         !
 ! D107  D(42,39,40,49)        105.826                                          !
 ! D108  D(51,39,40,41)         53.8993                                         !
 ! D109  D(51,39,40,49)       -133.1118                                         !
 ! D110  D(38,39,42,43)         72.9449                                         !
 ! D111  D(38,39,42,52)        -49.5091                                         !
 ! D112  D(38,39,42,53)       -164.597                                          !
 ! D113  D(40,39,42,43)        -43.5094                                         !
 ! D114  D(40,39,42,52)       -165.9634                                         !
 ! D115  D(40,39,42,53)         78.9487                                         !
 ! D116  D(51,39,42,43)       -165.5589                                         !
 ! D117  D(51,39,42,52)         71.987                                          !
 ! D118  D(51,39,42,53)        -43.1008                                         !
 ! D119  D(39,42,43,44)         92.3829                                         !
 ! D120  D(39,42,43,54)       -145.4529                                         !
 ! D121  D(39,42,43,55)        -28.591                                          !
 ! D122  D(52,42,43,44)       -146.0967                                         !
 ! D123  D(52,42,43,54)        -23.9325                                         !
 ! D124  D(52,42,43,55)         92.9294                                         !
 ! D125  D(53,42,43,44)        -28.9831                                         !
 ! D126  D(53,42,43,54)         93.1811                                         !
 ! D127  D(53,42,43,55)       -149.957                                          !
 ! D128  D(42,43,44,45)       -138.856                                          !
 ! D129  D(42,43,44,56)        100.5055                                         !
 ! D130  D(42,43,44,57)        -17.9928                                         !
 ! D131  D(54,43,44,45)         98.4025                                         !
 ! D132  D(54,43,44,56)        -22.2361                                         !
 ! D133  D(54,43,44,57)       -140.7343                                         !
 ! D134  D(55,43,44,45)        -17.6784                                         !
 ! D135  D(55,43,44,56)       -138.317                                          !
 ! D136  D(55,43,44,57)        103.1848                                         !
 ! D137  D(43,44,45,46)        117.8137                                         !
 ! D138  D(43,44,45,58)        -53.5132                                         !
 ! D139  D(56,44,45,46)       -120.0651                                         !
 ! D140  D(56,44,45,58)         68.608                                          !
 ! D141  D(57,44,45,46)         -4.4215                                         !
 ! D142  D(57,44,45,58)       -175.7484                                         !
 ! D143  D(44,45,46,47)         -6.397                                          !
 ! D144  D(44,45,46,48)        172.7737                                         !
 ! D145  D(58,45,46,47)        165.0087                                         !
 ! D146  D(58,45,46,48)        -15.8206                                         !
 ! D147  D(45,46,47,59)        -29.1054                                         !
 ! D148  D(45,46,47,60)        173.6155                                         !
 ! D149  D(48,46,47,59)        151.7601                                         !
 ! D150  D(48,46,47,60)         -5.5191                                         !
 ! D151  D(45,46,48,61)        174.2621                                         !
 ! D152  D(45,46,48,62)        -30.3977                                         !
 ! D153  D(47,46,48,61)         -6.5486                                         !
 ! D154  D(47,46,48,62)        148.7916                                         !
 --------------------------------------------------------------------------------
 Symmetry turned off by external request.
 Stoichiometry    C17H33N6O6(1+)
 Framework group  C1[X(C17H33N6O6)]
 Deg. of freedom   180
 Full point group                 C1      NOp   1
                          Input orientation:                          
 ---------------------------------------------------------------------
 Center     Atomic      Atomic             Coordinates (Angstroms)
 Number     Number       Type             X           Y           Z
 ---------------------------------------------------------------------
      1          7           0       13.931918   17.154899   10.545834
      2          6           0       13.582592   15.986009   11.432578
      3          6           0       14.916833   15.662774   12.135765
      4          8           0       15.838830   15.289920   11.417012
      5          6           0       13.066032   14.793682   10.607667
      6          6           0       11.544600   14.773697   10.398449
      7          6           0       10.957960   15.929731    9.618020
      8          8           0       11.546732   16.939972    9.257567
      9          8           0        9.658750   15.743077    9.363357
     10          1           0        9.340432   16.508730    8.845709
     11          1           0       14.095076   17.969889   11.181834
     12          1           0       12.801778   16.337208   12.107302
     13          1           0       13.335470   13.875614   11.138514
     14          1           0       13.598694   14.746195    9.652277
     15          1           0       11.248349   13.850464    9.887583
     16          1           0       11.022009   14.749811   11.364699
     17          1           0       14.801971   16.929360   10.047142
     18          1           0       13.151777   17.320978    9.880314
     19          7           0       15.016198   15.817444   13.476795
     20          6           0       14.123890   16.543931   14.387702
     21          6           0       13.553950   17.810421   13.714487
     22          8           0       14.209901   18.447339   12.869390
     23          6           0       14.928747   16.930598   15.649116
     24          6           0       14.124039   17.590449   16.787326
     25          6           0       13.041011   16.663195   17.359694
     26          6           0       15.091775   18.032703   17.895445
     27          1           0       15.955227   15.633723   13.816198
     28          1           0       13.292685   15.889793   14.674259
     29          1           0       15.735117   17.603128   15.329030
     30          1           0       15.399809   16.016234   16.037717
     31          1           0       13.632447   18.490457   16.394984
     32          1           0       13.486023   15.736131   17.743343
     33          1           0       12.518165   17.154257   18.186167
     34          1           0       12.274675   16.389676   16.625225
     35          1           0       14.550502   18.538619   18.701583
     36          1           0       15.610132   17.169416   18.331625
     37          1           0       15.850750   18.724737   17.513313
     38          7           0       12.310849   18.126147   14.081305
     39          6           0       11.607569   19.345126   13.694116
     40          6           0       10.575395   19.620135   14.819786
     41          8           0        9.962509   20.725213   14.717141
     42          6           0       10.850131   19.154336   12.355600
     43          6           0        9.587175   18.266931   12.488327
     44          6           0        8.292380   19.081738   12.761749
     45          7           0        7.413467   18.452736   13.755737
     46          6           0        7.039724   18.946880   14.951509
     47          7           0        7.535924   20.063796   15.452969
     48          7           0        6.094536   18.238380   15.628508
     49          8           0       10.354016   18.687415   15.622625
     50          1           0       11.844046   17.683839   14.879203
     51          1           0       12.320996   20.166903   13.599794
     52          1           0       11.542132   18.717314   11.625534
     53          1           0       10.578165   20.143280   11.972153
     54          1           0        9.448591   17.672514   11.576546
     55          1           0        9.734665   17.557768   13.311147
     56          1           0        7.716249   19.201240   11.836953
     57          1           0        8.542594   20.077713   13.121078
     58          1           0        7.152910   17.490882   13.582910
     59          1           0        8.532604   20.405414   15.220552
     60          1           0        7.129821   20.415559   16.309637
     61          1           0        5.842692   18.516336   16.565716
     62          1           0        5.399714   17.708405   15.121916
 ---------------------------------------------------------------------
 Rotational constants (GHZ):           0.1716090           0.1229282           0.0821070
 Standard basis: 6-31G(d) (6D, 7F)
   501 basis functions,   944 primitive gaussians,   501 cartesian basis functions
   112 alpha electrons      112 beta electrons
       nuclear repulsion energy      3165.3688531003 Hartrees.
 NAtoms=   62 NActive=   62 NUniq=   62 SFac= 1.00D+00 NAtFMM=   60 NAOKFM=T Big=T
 Integral buffers will be    131072 words long.
 Raffenetti 2 integral format.
 Two-electron integral symmetry is turned off.
 Nuclear repulsion after empirical dispersion term =     3165.2852839192 Hartrees.
 One-electron integrals computed using PRISM.
 NBasis=   501 RedAO= T EigKep=  1.67D-03  NBF=   501
 NBsUse=   501 1.00D-06 EigRej= -1.00D+00 NBFU=   501
 Initial guess from the checkpoint file:  "conf-472.chk"
 B after Tr=     0.000000    0.000000    0.000000
         Rot=    1.000000    0.000000    0.000000    0.000000 Ang=   0.00 deg.
 Requested convergence on RMS density matrix=1.00D-08 within 128 cycles.
 Requested convergence on MAX density matrix=1.00D-06.
 Requested convergence on             energy=1.00D-06.
 No special actions if energy rises.
 SCF Done:  E(RB3LYP) =  -1447.49462887     A.U. after    1 cycles
            NFock=  1  Conv=0.42D-08     -V/T= 2.0093

 **********************************************************************

            Population analysis using the SCF Density.

 **********************************************************************

 Alpha  occ. eigenvalues --  -19.33327 -19.28834 -19.23480 -19.23099 -19.17668
 Alpha  occ. eigenvalues --  -19.17639 -14.55437 -14.49041 -14.48855 -14.47882
 Alpha  occ. eigenvalues --  -14.46067 -14.45769 -10.46675 -10.44502 -10.41246
 Alpha  occ. eigenvalues --  -10.39962 -10.38331 -10.35479 -10.34892 -10.33905
 Alpha  occ. eigenvalues --  -10.33423 -10.33042 -10.31052 -10.29491 -10.28979
 Alpha  occ. eigenvalues --  -10.28938 -10.27702 -10.25457 -10.24809  -1.24802
 Alpha  occ. eigenvalues --   -1.16305  -1.15719  -1.14555  -1.12922  -1.11240
 Alpha  occ. eigenvalues --   -1.10544  -1.04192  -1.03481  -1.02716  -1.01736
 Alpha  occ. eigenvalues --   -1.00167  -0.94148  -0.90887  -0.89543  -0.87003
 Alpha  occ. eigenvalues --   -0.85400  -0.83192  -0.79794  -0.78092  -0.76229
 Alpha  occ. eigenvalues --   -0.74766  -0.73988  -0.72961  -0.72127  -0.71783
 Alpha  occ. eigenvalues --   -0.70164  -0.69253  -0.69132  -0.67142  -0.66769
 Alpha  occ. eigenvalues --   -0.65449  -0.63980  -0.63650  -0.63096  -0.62138
 Alpha  occ. eigenvalues --   -0.61393  -0.60822  -0.60478  -0.59893  -0.59683
 Alpha  occ. eigenvalues --   -0.58735  -0.58578  -0.56399  -0.55812  -0.54931
 Alpha  occ. eigenvalues --   -0.54567  -0.54099  -0.54003  -0.53552  -0.53216
 Alpha  occ. eigenvalues --   -0.52539  -0.51540  -0.51371  -0.50591  -0.50220
 Alpha  occ. eigenvalues --   -0.49958  -0.49363  -0.49277  -0.48533  -0.48000
 Alpha  occ. eigenvalues --   -0.47554  -0.46991  -0.46545  -0.46180  -0.46100
 Alpha  occ. eigenvalues --   -0.45628  -0.44817  -0.44475  -0.42998  -0.42321
 Alpha  occ. eigenvalues --   -0.41826  -0.41245  -0.41055  -0.39592  -0.37759
 Alpha  occ. eigenvalues --   -0.37576  -0.37098  -0.36914  -0.36318  -0.33188
 Alpha  occ. eigenvalues --   -0.32308  -0.32007
 Alpha virt. eigenvalues --   -0.13345  -0.10994  -0.09945  -0.08948  -0.06111
 Alpha virt. eigenvalues --   -0.05777  -0.04753  -0.03861  -0.03279  -0.01717
 Alpha virt. eigenvalues --   -0.01665  -0.00851  -0.00487  -0.00253   0.00090
 Alpha virt. eigenvalues --    0.01487   0.01996   0.02434   0.02502   0.03490
 Alpha virt. eigenvalues --    0.03718   0.04239   0.04670   0.05060   0.05295
 Alpha virt. eigenvalues --    0.05775   0.06522   0.06704   0.07076   0.07279
 Alpha virt. eigenvalues --    0.07498   0.07808   0.08945   0.09169   0.09530
 Alpha virt. eigenvalues --    0.09901   0.10313   0.11117   0.11583   0.11794
 Alpha virt. eigenvalues --    0.12235   0.12860   0.13158   0.13867   0.14063
 Alpha virt. eigenvalues --    0.15143   0.15239   0.15560   0.15824   0.16611
 Alpha virt. eigenvalues --    0.17406   0.17546   0.18173   0.18943   0.19398
 Alpha virt. eigenvalues --    0.20009   0.21538   0.23062   0.24526   0.26672
 Alpha virt. eigenvalues --    0.27892   0.28838   0.29439   0.31047   0.33515
 Alpha virt. eigenvalues --    0.36434   0.37351   0.37447   0.39397   0.40183
 Alpha virt. eigenvalues --    0.40660   0.41797   0.42450   0.42791   0.43233
 Alpha virt. eigenvalues --    0.43723   0.43999   0.45142   0.45159   0.45841
 Alpha virt. eigenvalues --    0.46298   0.46765   0.47095   0.47765   0.48600
 Alpha virt. eigenvalues --    0.49062   0.49846   0.50815   0.51201   0.51615
 Alpha virt. eigenvalues --    0.51735   0.52016   0.52466   0.52850   0.54082
 Alpha virt. eigenvalues --    0.55113   0.55625   0.56238   0.56308   0.56499
 Alpha virt. eigenvalues --    0.57001   0.57524   0.58385   0.59032   0.59637
 Alpha virt. eigenvalues --    0.60763   0.60932   0.61250   0.61610   0.63054
 Alpha virt. eigenvalues --    0.63556   0.64076   0.64589   0.66089   0.66457
 Alpha virt. eigenvalues --    0.67000   0.67302   0.67493   0.68725   0.69244
 Alpha virt. eigenvalues --    0.69544   0.70236   0.71954   0.72719   0.72990
 Alpha virt. eigenvalues --    0.73642   0.73999   0.75146   0.75298   0.75611
 Alpha virt. eigenvalues --    0.75729   0.76463   0.77080   0.77287   0.77716
 Alpha virt. eigenvalues --    0.78125   0.78955   0.79276   0.79512   0.80143
 Alpha virt. eigenvalues --    0.80424   0.80572   0.80983   0.81361   0.82022
 Alpha virt. eigenvalues --    0.82329   0.82686   0.82852   0.83485   0.83961
 Alpha virt. eigenvalues --    0.84365   0.84655   0.85939   0.86093   0.86420
 Alpha virt. eigenvalues --    0.87086   0.87532   0.87551   0.89099   0.89177
 Alpha virt. eigenvalues --    0.90246   0.90993   0.91361   0.91914   0.92516
 Alpha virt. eigenvalues --    0.93701   0.94453   0.94565   0.95591   0.97377
 Alpha virt. eigenvalues --    0.98299   0.98951   0.99873   1.00734   1.01134
 Alpha virt. eigenvalues --    1.02032   1.02948   1.04173   1.05516   1.05846
 Alpha virt. eigenvalues --    1.06785   1.07632   1.09400   1.10813   1.12303
 Alpha virt. eigenvalues --    1.13834   1.13998   1.14856   1.16424   1.17841
 Alpha virt. eigenvalues --    1.18461   1.19639   1.21388   1.21541   1.22651
 Alpha virt. eigenvalues --    1.24318   1.24452   1.24815   1.26328   1.27015
 Alpha virt. eigenvalues --    1.29486   1.30857   1.31169   1.32678   1.35138
 Alpha virt. eigenvalues --    1.36292   1.36946   1.37260   1.39180   1.39697
 Alpha virt. eigenvalues --    1.40280   1.40898   1.42576   1.43832   1.44259
 Alpha virt. eigenvalues --    1.46592   1.48783   1.49574   1.50509   1.52631
 Alpha virt. eigenvalues --    1.53204   1.54724   1.55345   1.55549   1.56420
 Alpha virt. eigenvalues --    1.57260   1.58282   1.59303   1.60479   1.61895
 Alpha virt. eigenvalues --    1.62271   1.62925   1.64254   1.64298   1.64836
 Alpha virt. eigenvalues --    1.66187   1.66683   1.68456   1.69143   1.70152
 Alpha virt. eigenvalues --    1.70675   1.71068   1.72540   1.72709   1.73391
 Alpha virt. eigenvalues --    1.73898   1.74040   1.74476   1.75751   1.75945
 Alpha virt. eigenvalues --    1.77178   1.77474   1.78488   1.78940   1.79844
 Alpha virt. eigenvalues --    1.80743   1.81891   1.82348   1.83228   1.83610
 Alpha virt. eigenvalues --    1.84633   1.85242   1.86013   1.86694   1.87339
 Alpha virt. eigenvalues --    1.88067   1.88753   1.88938   1.90579   1.91308
 Alpha virt. eigenvalues --    1.92031   1.93212   1.93415   1.93885   1.94960
 Alpha virt. eigenvalues --    1.95561   1.97286   1.97999   1.99471   2.00483
 Alpha virt. eigenvalues --    2.01025   2.01773   2.02543   2.02881   2.03384
 Alpha virt. eigenvalues --    2.05294   2.06666   2.07393   2.09390   2.09499
 Alpha virt. eigenvalues --    2.12197   2.12654   2.14812   2.15383   2.16456
 Alpha virt. eigenvalues --    2.17047   2.18229   2.18918   2.20231   2.21585
 Alpha virt. eigenvalues --    2.21780   2.22229   2.23350   2.23549   2.24376
 Alpha virt. eigenvalues --    2.25873   2.26579   2.27622   2.28386   2.30212
 Alpha virt. eigenvalues --    2.30848   2.31842   2.32999   2.34006   2.35020
 Alpha virt. eigenvalues --    2.36297   2.36853   2.39124   2.39409   2.42149
 Alpha virt. eigenvalues --    2.43010   2.44334   2.44756   2.45884   2.46703
 Alpha virt. eigenvalues --    2.48041   2.49185   2.50390   2.52079   2.52747
 Alpha virt. eigenvalues --    2.53540   2.55197   2.55298   2.56564   2.58441
 Alpha virt. eigenvalues --    2.60325   2.61998   2.62692   2.63543   2.64651
 Alpha virt. eigenvalues --    2.65907   2.67011   2.67655   2.69607   2.72734
 Alpha virt. eigenvalues --    2.75916   2.77246   2.80707   2.87367   2.88051
 Alpha virt. eigenvalues --    2.89022   2.89940   2.91918   2.92125   2.95265
 Alpha virt. eigenvalues --    2.98387   3.00084   3.03616   3.06868   3.14749
 Alpha virt. eigenvalues --    3.67489   3.70995   3.74063   3.82242   3.84186
 Alpha virt. eigenvalues --    3.86135   3.95100   3.99315   4.00039   4.06651
 Alpha virt. eigenvalues --    4.07634   4.11248   4.14019   4.15148   4.18898
 Alpha virt. eigenvalues --    4.20810   4.21261   4.25581   4.28848   4.29632
 Alpha virt. eigenvalues --    4.31198   4.34480   4.41914   4.44394   4.48154
 Alpha virt. eigenvalues --    4.50541   4.55392   4.62650   4.63340
          Condensed to atoms (all electrons):
 Mulliken charges:
               1
     1  N   -0.779745
     2  C   -0.108308
     3  C    0.617694
     4  O   -0.504255
     5  C   -0.289388
     6  C   -0.380069
     7  C    0.619148
     8  O   -0.498439
     9  O   -0.539589
    10  H    0.435454
    11  H    0.445760
    12  H    0.195851
    13  H    0.205327
    14  H    0.193678
    15  H    0.223008
    16  H    0.202543
    17  H    0.404813
    18  H    0.439576
    19  N   -0.610030
    20  C   -0.012075
    21  C    0.593493
    22  O   -0.591865
    23  C   -0.306564
    24  C   -0.096748
    25  C   -0.451223
    26  C   -0.447711
    27  H    0.359905
    28  H    0.165654
    29  H    0.172896
    30  H    0.157433
    31  H    0.150262
    32  H    0.147926
    33  H    0.172951
    34  H    0.135566
    35  H    0.162960
    36  H    0.149954
    37  H    0.154200
    38  N   -0.596143
    39  C   -0.059157
    40  C    0.609347
    41  O   -0.612377
    42  C   -0.264663
    43  C   -0.309495
    44  C   -0.161991
    45  N   -0.603057
    46  C    0.799223
    47  N   -0.765593
    48  N   -0.767452
    49  O   -0.582534
    50  H    0.382034
    51  H    0.188740
    52  H    0.115507
    53  H    0.179309
    54  H    0.126134
    55  H    0.165935
    56  H    0.168771
    57  H    0.227187
    58  H    0.343425
    59  H    0.444953
    60  H    0.350092
    61  H    0.368929
    62  H    0.362831
 Sum of Mulliken charges =   1.00000
 Mulliken charges with hydrogens summed into heavy atoms:
               1
     1  N    0.510404
     2  C    0.087543
     3  C    0.617694
     4  O   -0.504255
     5  C    0.109617
     6  C    0.045482
     7  C    0.619148
     8  O   -0.498439
     9  O   -0.104135
    19  N   -0.250125
    20  C    0.153579
    21  C    0.593493
    22  O   -0.591865
    23  C    0.023765
    24  C    0.053514
    25  C    0.005220
    26  C    0.019404
    38  N   -0.214108
    39  C    0.129584
    40  C    0.609347
    41  O   -0.612377
    42  C    0.030153
    43  C   -0.017425
    44  C    0.233966
    45  N   -0.259631
    46  C    0.799223
    47  N    0.029452
    48  N   -0.035692
    49  O   -0.582534
 Electronic spatial extent (au):  <R**2>=         512851.9868
 Charge=              1.0000 electrons
 Dipole moment (field-independent basis, Debye):
    X=             47.3838    Y=             79.5378    Z=             60.5573  Tot=            110.6286
 Quadrupole moment (field-independent basis, Debye-Ang):
   XX=            365.0764   YY=           1146.0633   ZZ=            638.5801
   XY=            766.9404   XZ=            578.8545   YZ=           1008.7505
 Traceless Quadrupole moment (field-independent basis, Debye-Ang):
   XX=           -351.4969   YY=            429.4901   ZZ=            -77.9932
   XY=            766.9404   XZ=            578.8545   YZ=           1008.7505
 Octapole moment (field-independent basis, Debye-Ang**2):
  XXX=            569.2496  YYY=          12763.1888  ZZZ=           4531.2082  XYY=          10352.3625
  XXY=           5614.9836  XXZ=           4266.3357  XZZ=           5509.4406  YZZ=          10603.7330
  YYZ=          14507.0895  XYZ=           9353.5115
 Hexadecapole moment (field-independent basis, Debye-Ang**3):
 XXXX=         -64898.5447 YYYY=          39274.2093 ZZZZ=         -22462.2037 XXXY=           2062.0796
 XXXZ=           1899.9596 YYYX=          93146.7481 YYYZ=         157553.8582 ZZZX=          22671.2912
 ZZZY=          72236.6595 XXYY=          59494.2224 XXZZ=          28886.2133 YYZZ=         143769.6467
 XXYZ=          64145.1770 YYXZ=         123329.5269 ZZXY=          86848.7170
 N-N= 3.165285283919D+03 E-N=-9.681219454353D+03  KE= 1.434091466276D+03
 Unable to Open any file for archive entry.
 1\1\GINC-AMR-144\SP\RB3LYP\6-31G(d)\C17H33N6O6(1+)\KENGMITH\24-May-202
 2\0\\# B3LYP/6-31G* empiricaldispersion=gd3 guess=read geom=check nosy
 mm integral(ultrafinegrid)\\Candidate Structure: Conf:472 Charge calc 
 in gas phase\\1,1\N,0,13.9319175334,17.1548992606,10.545833692\C,0,13.
 5825915361,15.9860093415,11.4325776373\C,0,14.9168334037,15.66277418,1
 2.1357648186\O,0,15.8388299609,15.2899198532,11.4170118069\C,0,13.0660
 319524,14.7936820942,10.6076667858\C,0,11.5445996536,14.7736969783,10.
 3984489057\C,0,10.9579596324,15.9297312014,9.6180204126\O,0,11.5467321
 391,16.9399719526,9.2575672432\O,0,9.6587500592,15.7430770855,9.363356
 9388\H,0,9.3404322766,16.5087295637,8.8457086295\H,0,14.0950759597,17.
 9698891335,11.181834338\H,0,12.801778349,16.3372082338,12.1073020008\H
 ,0,13.3354699862,13.8756137934,11.1385141852\H,0,13.5986942562,14.7461
 954473,9.6522772033\H,0,11.2483491113,13.8504644187,9.8875831267\H,0,1
 1.0220086465,14.7498106297,11.3646986231\H,0,14.8019713515,16.92935989
 26,10.0471417846\H,0,13.1517767785,17.3209782856,9.8803140157\N,0,15.0
 1619756,15.8174444331,13.4767951722\C,0,14.1238898538,16.5439311795,14
 .3877018706\C,0,13.5539501419,17.8104209655,13.7144866015\O,0,14.20990
 06954,18.447338813,12.8693895981\C,0,14.9287466464,16.9305982694,15.64
 91159927\C,0,14.1240389402,17.590449041,16.7873255159\C,0,13.041011392
 6,16.6631952533,17.3596940245\C,0,15.0917754224,18.0327029816,17.89544
 46655\H,0,15.9552266134,15.6337228359,13.8161979166\H,0,13.2926845422,
 15.8897930701,14.6742591078\H,0,15.7351168029,17.6031277311,15.3290299
 862\H,0,15.3998093495,16.0162342797,16.0377170466\H,0,13.6324470411,18
 .4904573138,16.3949844196\H,0,13.4860226515,15.73613138,17.743342879\H
 ,0,12.5181650963,17.1542573779,18.1861673448\H,0,12.2746754809,16.3896
 762061,16.6252245417\H,0,14.5505024236,18.5386190895,18.701583093\H,0,
 15.6101324114,17.1694158334,18.3316248499\H,0,15.8507504352,18.7247372
 041,17.5133133188\N,0,12.3108492194,18.1261470981,14.0813053485\C,0,11
 .6075686158,19.3451259361,13.694116057\C,0,10.5753950948,19.6201346195
 ,14.8197864768\O,0,9.9625093196,20.7252130574,14.7171412424\C,0,10.850
 1312008,19.1543358351,12.3555996253\C,0,9.5871747618,18.266931379,12.4
 883269802\C,0,8.2923799422,19.0817378967,12.7617487423\N,0,7.413466655
 5,18.4527360552,13.755736979\C,0,7.0397241801,18.9468803753,14.9515094
 431\N,0,7.5359239935,20.0637955674,15.4529694499\N,0,6.0945363659,18.2
 383800938,15.6285078392\O,0,10.3540161871,18.6874148914,15.6226251059\
 H,0,11.8440459258,17.6838385872,14.8792033676\H,0,12.3209960042,20.166
 9031641,13.5997937747\H,0,11.5421318805,18.7173143683,11.6255344373\H,
 0,10.5781650625,20.1432803277,11.972153379\H,0,9.4485908777,17.6725141
 053,11.5765455187\H,0,9.7346648618,17.5577684308,13.311147221\H,0,7.71
 62487646,19.2012404017,11.8369530803\H,0,8.5425938062,20.0777132624,13
 .1210783475\H,0,7.1529100313,17.4908820709,13.5829102399\H,0,8.5326037
 859,20.4054137542,15.2205524724\H,0,7.1298213395,20.4155592411,16.3096
 369662\H,0,5.8426921394,18.5163355118,16.5657164777\H,0,5.3997141071,1
 7.7084053059,15.1219157152\\Version=ES64L-G16RevC.01\HF=-1447.4946289\
 RMSD=4.179e-09\Dipole=-3.5093481,-1.8643083,-1.447621\Quadrupole=-261.
 329318,319.3153356,-57.9860176,570.2013599,430.3641601,749.981241\PG=C
 01 [X(C17H33N6O6)]\\@
 The archive entry for this job was punched.


 Other things may change us, but we start and end with family.
 -- Anthony Brandt
 Job cpu time:       0 days  0 hours  0 minutes 59.6 seconds.
 Elapsed time:       0 days  0 hours  0 minutes 15.3 seconds.
 File lengths (MBytes):  RWF=    248 Int=      0 D2E=      0 Chk=     32 Scr=     16
 Normal termination of Gaussian 16 at Tue May 24 03:31:27 2022.
