 Entering Gaussian System, Link 0=/opt/software/Gaussian/g16-AVX2-C.01/g16/g16
 Input=charge-conf-234.com
 Output=charge-conf-234.log
 Initial command:
 /opt/software/Gaussian/g16-AVX2-C.01/g16/l1.exe "/mnt/gs18/scratch/users/kengmith/Gau-94613.inp" -scrdir="/mnt/gs18/scratch/users/kengmith/"
 Entering Link 1 = /opt/software/Gaussian/g16-AVX2-C.01/g16/l1.exe PID=     94623.
  
 Copyright (c) 1988-2019, Gaussian, Inc.  All Rights Reserved.
  
 This is part of the Gaussian(R) 16 program.  It is based on
 the Gaussian(R) 09 system (copyright 2009, Gaussian, Inc.),
 the Gaussian(R) 03 system (copyright 2003, Gaussian, Inc.),
 the Gaussian(R) 98 system (copyright 1998, Gaussian, Inc.),
 the Gaussian(R) 94 system (copyright 1995, Gaussian, Inc.),
 the Gaussian 92(TM) system (copyright 1992, Gaussian, Inc.),
 the Gaussian 90(TM) system (copyright 1990, Gaussian, Inc.),
 the Gaussian 88(TM) system (copyright 1988, Gaussian, Inc.),
 the Gaussian 86(TM) system (copyright 1986, Carnegie Mellon
 University), and the Gaussian 82(TM) system (copyright 1983,
 Carnegie Mellon University). Gaussian is a federally registered
 trademark of Gaussian, Inc.
  
 This software contains proprietary and confidential information,
 including trade secrets, belonging to Gaussian, Inc.
  
 This software is provided under written license and may be
 used, copied, transmitted, or stored only in accord with that
 written license.
  
 The following legend is applicable only to US Government
 contracts under FAR:
  
                    RESTRICTED RIGHTS LEGEND
  
 Use, reproduction and disclosure by the US Government is
 subject to restrictions as set forth in subparagraphs (a)
 and (c) of the Commercial Computer Software - Restricted
 Rights clause in FAR 52.227-19.
  
 Gaussian, Inc.
 340 Quinnipiac St., Bldg. 40, Wallingford CT 06492
  
  
 ---------------------------------------------------------------
 Warning -- This program may not be used in any manner that
 competes with the business of Gaussian, Inc. or will provide
 assistance to any competitor of Gaussian, Inc.  The licensee
 of this program is prohibited from giving any competitor of
 Gaussian, Inc. access to this program.  By using this program,
 the user acknowledges that Gaussian, Inc. is engaged in the
 business of creating and licensing software in the field of
 computational chemistry and represents and warrants to the
 licensee that it is not a competitor of Gaussian, Inc. and that
 it will not use this program in any manner prohibited above.
 ---------------------------------------------------------------
  

 Cite this work as:
 Gaussian 16, Revision C.01,
 M. J. Frisch, G. W. Trucks, H. B. Schlegel, G. E. Scuseria, 
 M. A. Robb, J. R. Cheeseman, G. Scalmani, V. Barone, 
 G. A. Petersson, H. Nakatsuji, X. Li, M. Caricato, A. V. Marenich, 
 J. Bloino, B. G. Janesko, R. Gomperts, B. Mennucci, H. P. Hratchian, 
 J. V. Ortiz, A. F. Izmaylov, J. L. Sonnenberg, D. Williams-Young, 
 F. Ding, F. Lipparini, F. Egidi, J. Goings, B. Peng, A. Petrone, 
 T. Henderson, D. Ranasinghe, V. G. Zakrzewski, J. Gao, N. Rega, 
 G. Zheng, W. Liang, M. Hada, M. Ehara, K. Toyota, R. Fukuda, 
 J. Hasegawa, M. Ishida, T. Nakajima, Y. Honda, O. Kitao, H. Nakai, 
 T. Vreven, K. Throssell, J. A. Montgomery, Jr., J. E. Peralta, 
 F. Ogliaro, M. J. Bearpark, J. J. Heyd, E. N. Brothers, K. N. Kudin, 
 V. N. Staroverov, T. A. Keith, R. Kobayashi, J. Normand, 
 K. Raghavachari, A. P. Rendell, J. C. Burant, S. S. Iyengar, 
 J. Tomasi, M. Cossi, J. M. Millam, M. Klene, C. Adamo, R. Cammi, 
 J. W. Ochterski, R. L. Martin, K. Morokuma, O. Farkas, 
 J. B. Foresman, and D. J. Fox, Gaussian, Inc., Wallingford CT, 2019.
 
 ******************************************
 Gaussian 16:  ES64L-G16RevC.01  3-Jul-2019
                31-May-2022 
 ******************************************
 %mem=8gb
 %nproc=4
 Will use up to    4 processors via shared memory.
 %chk=conf-234.chk
 ----------------------------------------------------------------------
 # B3LYP/6-31G* empiricaldispersion=gd3 guess=read geom=check nosymm in
 tegral(ultrafinegrid)
 ----------------------------------------------------------------------
 1/29=2,38=1,172=1/1;
 2/12=2,15=1,40=1/2;
 3/5=1,6=6,7=1,11=2,14=-4,25=1,30=1,74=-5,75=-5,116=-2,124=31/1,2,3;
 4/5=1/1;
 5/5=2,38=6/2;
 6/7=2,8=2,9=2,10=2,28=1/1;
 99/5=1,9=1/99;
 ------------------------------------------------------
 Candidate Structure: Conf:234 Charge calc in gas phase
 ------------------------------------------------------
 Structure from the checkpoint file:  "conf-234.chk"
 Charge =  1 Multiplicity = 1
 Redundant internal coordinates found in file.  (old form).
 N,0,33.3617950646,-30.8291292436,41.1612671574
 C,0,32.738709818,-29.5226853259,41.5912909592
 C,0,32.5997894368,-29.6232235721,43.1197497813
 O,0,31.6873142086,-30.2979263525,43.5815856334
 C,0,33.5454018125,-28.3504957019,41.0043622476
 C,0,33.6408504167,-28.4336517377,39.4955484021
 C,0,34.7527552884,-29.0341422547,38.8805387709
 C,0,32.5983150237,-27.9714485732,38.6828508655
 C,0,34.8227086814,-29.1690931727,37.4978088899
 C,0,32.657543884,-28.0977745878,37.2969277581
 C,0,33.7728257723,-28.6989735642,36.6973653294
 O,0,33.9017938068,-28.8579299752,35.3552519365
 H,0,33.2693838992,-30.9264450641,40.1446028916
 H,0,31.7212958374,-29.5208393575,41.1946459332
 H,0,33.0605369206,-27.4195273852,41.3202699948
 H,0,34.5583411972,-28.3546913528,41.4279878137
 H,0,35.5806169479,-29.391270675,39.4905829628
 H,0,31.7302349253,-27.4953242009,39.1336264251
 H,0,35.6838587343,-29.6215467474,37.0173914746
 H,0,31.8431796993,-27.7238004095,36.6806159281
 H,0,33.1373971736,-28.4740753274,34.8970069542
 H,0,34.3806286563,-30.8077155601,41.3600004431
 H,0,32.9984892705,-31.749187378,41.6550992464
 N,0,33.5671535236,-29.0618239409,43.8935547507
 C,0,33.7798519032,-29.539128178,45.2672776123
 C,0,34.407163183,-30.9594165294,45.193384227
 O,0,33.9084101554,-31.9099926788,45.7774009053
 C,0,34.5431997121,-28.5151932411,46.1388961489
 C,0,35.9373526006,-28.1317568606,45.6155095677
 C,0,34.6310491475,-29.029941665,47.5834079644
 H,0,34.257059817,-28.4577290247,43.4696942135
 H,0,32.7943539433,-29.7030279021,45.7056354551
 H,0,33.9181756547,-27.6120478528,46.1291728522
 H,0,35.9289238245,-27.759260042,44.5813740699
 H,0,36.3505004295,-27.3247658542,46.2280459661
 H,0,36.6338473148,-28.9752458263,45.6732499055
 H,0,35.2454766742,-29.9357702514,47.6451407192
 H,0,33.6411141898,-29.2687733478,47.98564367
 H,0,35.0862161311,-28.2722431567,48.2284529481
 N,0,35.5200362313,-31.0484346776,44.3914848747
 C,0,35.9022655071,-32.2396502887,43.6089348982
 C,0,36.6896118398,-31.6611047879,42.4156472012
 O,0,36.1760006056,-30.8168568956,41.693733317
 C,0,36.5917779349,-33.3780277019,44.3790098594
 C,0,35.6498072636,-34.3814662375,45.0754512467
 C,0,34.6635667115,-35.1189206776,44.1217386302
 N,0,33.2712350599,-34.6870045247,44.2225336554
 C,0,32.6867651768,-33.6498509349,43.5462270247
 N,0,33.0210404544,-33.2490098701,42.3374259203
 N,0,31.6532420057,-33.0518291983,44.2067077728
 O,0,37.9279472348,-32.0657844113,42.1600720995
 H,0,38.2525373927,-32.6796447498,42.8421125891
 H,0,35.7499642532,-30.1856445632,43.9186837544
 H,0,34.9905202707,-32.6352186372,43.1392071758
 H,0,37.2917787768,-32.9547752718,45.1092477382
 H,0,37.1789252103,-33.9695193949,43.6588368678
 H,0,35.081522792,-33.8687924063,45.8530432002
 H,0,36.2856387624,-35.1255004647,45.5681932846
 H,0,34.6754056557,-36.1902438729,44.3419090681
 H,0,34.9839525522,-35.0320416496,43.0777590722
 H,0,32.8183050724,-34.9210753173,45.0970480596
 H,0,33.5899397079,-33.9439500154,41.8553644292
 H,0,31.2503232916,-32.2612380407,43.7162889926
 H,0,31.8351375868,-32.8329477086,45.1806708931
 Recover connectivity data from disk.
                           ----------------------------
                           !    Current Parameters    !
                           ! (Angstroms and Degrees)  !
 --------------------------                            --------------------------
 ! Name  Definition              Value                                          !
 --------------------------------------------------------------------------------
 ! R1    R(1,2)                  1.51                                           !
 ! R2    R(1,13)                 1.0255                                         !
 ! R3    R(1,22)                 1.0383                                         !
 ! R4    R(1,23)                 1.1056                                         !
 ! R5    R(2,3)                  1.538                                          !
 ! R6    R(2,5)                  1.5392                                         !
 ! R7    R(2,14)                 1.092                                          !
 ! R8    R(3,4)                  1.2252                                         !
 ! R9    R(3,24)                 1.3601                                         !
 ! R10   R(5,6)                  1.5141                                         !
 ! R11   R(5,15)                 1.0962                                         !
 ! R12   R(5,16)                 1.098                                          !
 ! R13   R(6,7)                  1.4054                                         !
 ! R14   R(6,8)                  1.4004                                         !
 ! R15   R(7,9)                  1.3911                                         !
 ! R16   R(7,17)                 1.0886                                         !
 ! R17   R(8,10)                 1.3929                                         !
 ! R18   R(8,18)                 1.0879                                         !
 ! R19   R(9,11)                 1.4014                                         !
 ! R20   R(9,19)                 1.0849                                         !
 ! R21   R(10,11)                1.4017                                         !
 ! R22   R(10,20)                1.0876                                         !
 ! R23   R(11,12)                1.3576                                         !
 ! R24   R(12,21)                0.9704                                         !
 ! R25   R(24,25)                1.4698                                         !
 ! R26   R(24,31)                1.0102                                         !
 ! R27   R(25,26)                1.5544                                         !
 ! R28   R(25,28)                1.5462                                         !
 ! R29   R(25,32)                1.091                                          !
 ! R30   R(26,27)                1.2221                                         !
 ! R31   R(26,40)                1.3746                                         !
 ! R32   R(28,29)                1.5377                                         !
 ! R33   R(28,30)                1.536                                          !
 ! R34   R(28,33)                1.0984                                         !
 ! R35   R(29,34)                1.0992                                         !
 ! R36   R(29,35)                1.0941                                         !
 ! R37   R(29,36)                1.0954                                         !
 ! R38   R(30,37)                1.0963                                         !
 ! R39   R(30,38)                1.0949                                         !
 ! R40   R(30,39)                1.0942                                         !
 ! R41   R(40,41)                1.4756                                         !
 ! R42   R(40,53)                1.0104                                         !
 ! R43   R(41,42)                1.5423                                         !
 ! R44   R(41,44)                1.5376                                         !
 ! R45   R(41,54)                1.0993                                         !
 ! R46   R(42,43)                1.2238                                         !
 ! R47   R(42,51)                1.3276                                         !
 ! R48   R(44,45)                1.5425                                         !
 ! R49   R(44,55)                1.0965                                         !
 ! R50   R(44,56)                1.1015                                         !
 ! R51   R(45,46)                1.5576                                         !
 ! R52   R(45,57)                1.0911                                         !
 ! R53   R(45,58)                1.0957                                         !
 ! R54   R(46,47)                1.4613                                         !
 ! R55   R(46,59)                1.0938                                         !
 ! R56   R(46,60)                1.0955                                         !
 ! R57   R(47,48)                1.3692                                         !
 ! R58   R(47,61)                1.0123                                         !
 ! R59   R(48,49)                1.3167                                         !
 ! R60   R(48,50)                1.3646                                         !
 ! R61   R(49,62)                1.0193                                         !
 ! R62   R(50,63)                1.0138                                         !
 ! R63   R(50,64)                1.0147                                         !
 ! R64   R(51,52)                0.9733                                         !
 ! A1    A(2,1,13)             109.1029                                         !
 ! A2    A(2,1,22)             109.4252                                         !
 ! A3    A(2,1,23)             117.2073                                         !
 ! A4    A(13,1,22)            106.2692                                         !
 ! A5    A(13,1,23)            109.5261                                         !
 ! A6    A(22,1,23)            104.7216                                         !
 ! A7    A(1,2,3)              105.2916                                         !
 ! A8    A(1,2,5)              109.5142                                         !
 ! A9    A(1,2,14)             106.4086                                         !
 ! A10   A(3,2,5)              118.4277                                         !
 ! A11   A(3,2,14)             106.0765                                         !
 ! A12   A(5,2,14)             110.3955                                         !
 ! A13   A(2,3,4)              118.5458                                         !
 ! A14   A(2,3,24)             118.306                                          !
 ! A15   A(4,3,24)             122.8586                                         !
 ! A16   A(2,5,6)              111.789                                          !
 ! A17   A(2,5,15)             107.7618                                         !
 ! A18   A(2,5,16)             109.4795                                         !
 ! A19   A(6,5,15)             111.2052                                         !
 ! A20   A(6,5,16)             109.0329                                         !
 ! A21   A(15,5,16)            107.4652                                         !
 ! A22   A(5,6,7)              120.6247                                         !
 ! A23   A(5,6,8)              120.8813                                         !
 ! A24   A(7,6,8)              118.4289                                         !
 ! A25   A(6,7,9)              121.0791                                         !
 ! A26   A(6,7,17)             119.7759                                         !
 ! A27   A(9,7,17)             119.1415                                         !
 ! A28   A(6,8,10)             121.0538                                         !
 ! A29   A(6,8,18)             119.871                                          !
 ! A30   A(10,8,18)            119.0718                                         !
 ! A31   A(7,9,11)             119.8366                                         !
 ! A32   A(7,9,19)             121.3676                                         !
 ! A33   A(11,9,19)            118.7906                                         !
 ! A34   A(8,10,11)            119.8888                                         !
 ! A35   A(8,10,20)            120.0527                                         !
 ! A36   A(11,10,20)           120.0569                                         !
 ! A37   A(9,11,10)            119.7124                                         !
 ! A38   A(9,11,12)            117.0131                                         !
 ! A39   A(10,11,12)           123.2745                                         !
 ! A40   A(11,12,21)           110.2239                                         !
 ! A41   A(3,24,25)            120.0438                                         !
 ! A42   A(3,24,31)            119.5946                                         !
 ! A43   A(25,24,31)           119.1777                                         !
 ! A44   A(24,25,26)           108.1015                                         !
 ! A45   A(24,25,28)           112.5358                                         !
 ! A46   A(24,25,32)           107.0744                                         !
 ! A47   A(26,25,28)           115.6348                                         !
 ! A48   A(26,25,32)           104.2635                                         !
 ! A49   A(28,25,32)           108.5987                                         !
 ! A50   A(25,26,27)           121.5543                                         !
 ! A51   A(25,26,40)           114.4337                                         !
 ! A52   A(27,26,40)           123.976                                          !
 ! A53   A(25,28,29)           114.8879                                         !
 ! A54   A(25,28,30)           109.6601                                         !
 ! A55   A(25,28,33)           104.9864                                         !
 ! A56   A(29,28,30)           110.5974                                         !
 ! A57   A(29,28,33)           107.9309                                         !
 ! A58   A(30,28,33)           108.4471                                         !
 ! A59   A(28,29,34)           113.4383                                         !
 ! A60   A(28,29,35)           109.6158                                         !
 ! A61   A(28,29,36)           111.501                                          !
 ! A62   A(34,29,35)           106.2392                                         !
 ! A63   A(34,29,36)           108.3856                                         !
 ! A64   A(35,29,36)           107.3579                                         !
 ! A65   A(28,30,37)           111.2176                                         !
 ! A66   A(28,30,38)           111.5234                                         !
 ! A67   A(28,30,39)           110.2499                                         !
 ! A68   A(37,30,38)           107.8068                                         !
 ! A69   A(37,30,39)           107.8071                                         !
 ! A70   A(38,30,39)           108.0935                                         !
 ! A71   A(26,40,41)           124.8456                                         !
 ! A72   A(26,40,53)           113.6995                                         !
 ! A73   A(41,40,53)           112.4729                                         !
 ! A74   A(40,41,42)           103.8707                                         !
 ! A75   A(40,41,44)           116.6289                                         !
 ! A76   A(40,41,54)           107.5933                                         !
 ! A77   A(42,41,44)           115.8674                                         !
 ! A78   A(42,41,54)           103.1672                                         !
 ! A79   A(44,41,54)           108.6338                                         !
 ! A80   A(41,42,43)           120.0624                                         !
 ! A81   A(41,42,51)           120.7162                                         !
 ! A82   A(43,42,51)           119.2211                                         !
 ! A83   A(41,44,45)           115.7151                                         !
 ! A84   A(41,44,55)           109.5126                                         !
 ! A85   A(41,44,56)           108.0079                                         !
 ! A86   A(45,44,55)           109.8931                                         !
 ! A87   A(45,44,56)           105.7476                                         !
 ! A88   A(55,44,56)           107.6019                                         !
 ! A89   A(44,45,46)           114.7224                                         !
 ! A90   A(44,45,57)           109.5231                                         !
 ! A91   A(44,45,58)           106.8819                                         !
 ! A92   A(46,45,57)           109.2114                                         !
 ! A93   A(46,45,58)           108.74                                           !
 ! A94   A(57,45,58)           107.5062                                         !
 ! A95   A(45,46,47)           114.9063                                         !
 ! A96   A(45,46,59)           109.4895                                         !
 ! A97   A(45,46,60)           111.1483                                         !
 ! A98   A(47,46,59)           106.6149                                         !
 ! A99   A(47,46,60)           108.7208                                         !
 ! A100  A(59,46,60)           105.4467                                         !
 ! A101  A(46,47,48)           126.624                                          !
 ! A102  A(46,47,61)           114.6814                                         !
 ! A103  A(48,47,61)           114.2602                                         !
 ! A104  A(47,48,49)           125.1497                                         !
 ! A105  A(47,48,50)           114.5952                                         !
 ! A106  A(49,48,50)           120.2146                                         !
 ! A107  A(48,49,62)           111.6125                                         !
 ! A108  A(48,50,63)           114.1179                                         !
 ! A109  A(48,50,64)           115.0468                                         !
 ! A110  A(63,50,64)           111.5513                                         !
 ! A111  A(42,51,52)           111.6174                                         !
 ! D1    D(13,1,2,3)           166.0422                                         !
 ! D2    D(13,1,2,5)           -65.6055                                         !
 ! D3    D(13,1,2,14)           53.7217                                         !
 ! D4    D(22,1,2,3)           -78.0765                                         !
 ! D5    D(22,1,2,5)            50.2758                                         !
 ! D6    D(22,1,2,14)          169.603                                          !
 ! D7    D(23,1,2,3)            40.8888                                         !
 ! D8    D(23,1,2,5)           169.241                                          !
 ! D9    D(23,1,2,14)          -71.4317                                         !
 ! D10   D(1,2,3,4)            -77.1937                                         !
 ! D11   D(1,2,3,24)            96.8041                                         !
 ! D12   D(5,2,3,4)            160.0009                                         !
 ! D13   D(5,2,3,24)           -26.0013                                         !
 ! D14   D(14,2,3,4)            35.3611                                         !
 ! D15   D(14,2,3,24)         -150.6411                                         !
 ! D16   D(1,2,5,6)             56.637                                          !
 ! D17   D(1,2,5,15)           179.1226                                         !
 ! D18   D(1,2,5,16)           -64.2884                                         !
 ! D19   D(3,2,5,6)            177.3017                                         !
 ! D20   D(3,2,5,15)           -60.2127                                         !
 ! D21   D(3,2,5,16)            56.3763                                         !
 ! D22   D(14,2,5,6)           -60.2038                                         !
 ! D23   D(14,2,5,15)           62.2818                                         !
 ! D24   D(14,2,5,16)          178.8708                                         !
 ! D25   D(2,3,24,25)         -156.6253                                         !
 ! D26   D(2,3,24,31)           10.8418                                         !
 ! D27   D(4,3,24,25)           17.0968                                         !
 ! D28   D(4,3,24,31)         -175.4361                                         !
 ! D29   D(2,5,6,7)            -94.8119                                         !
 ! D30   D(2,5,6,8)             82.2084                                         !
 ! D31   D(15,5,6,7)           144.6917                                         !
 ! D32   D(15,5,6,8)           -38.2881                                         !
 ! D33   D(16,5,6,7)            26.3726                                         !
 ! D34   D(16,5,6,8)          -156.6071                                         !
 ! D35   D(5,6,7,9)            177.1077                                         !
 ! D36   D(5,6,7,17)            -3.5825                                         !
 ! D37   D(8,6,7,9)              0.0156                                         !
 ! D38   D(8,6,7,17)           179.3255                                         !
 ! D39   D(5,6,8,10)          -177.2497                                         !
 ! D40   D(5,6,8,18)             3.4277                                         !
 ! D41   D(7,6,8,10)            -0.1654                                         !
 ! D42   D(7,6,8,18)          -179.488                                          !
 ! D43   D(6,7,9,11)             0.1253                                         !
 ! D44   D(6,7,9,19)           179.2872                                         !
 ! D45   D(17,7,9,11)         -179.1888                                         !
 ! D46   D(17,7,9,19)           -0.0269                                         !
 ! D47   D(6,8,10,11)            0.1727                                         !
 ! D48   D(6,8,10,20)         -179.3673                                         !
 ! D49   D(18,8,10,11)         179.5006                                         !
 ! D50   D(18,8,10,20)          -0.0393                                         !
 ! D51   D(7,9,11,10)           -0.1187                                         !
 ! D52   D(7,9,11,12)          179.8844                                         !
 ! D53   D(19,9,11,10)        -179.3021                                         !
 ! D54   D(19,9,11,12)           0.701                                          !
 ! D55   D(8,10,11,9)           -0.0284                                         !
 ! D56   D(8,10,11,12)         179.9683                                         !
 ! D57   D(20,10,11,9)         179.5115                                         !
 ! D58   D(20,10,11,12)         -0.4918                                         !
 ! D59   D(9,11,12,21)        -178.1571                                         !
 ! D60   D(10,11,12,21)          1.8461                                         !
 ! D61   D(3,24,25,26)          70.6431                                         !
 ! D62   D(3,24,25,28)        -160.4227                                         !
 ! D63   D(3,24,25,32)         -41.169                                          !
 ! D64   D(31,24,25,26)        -96.8761                                         !
 ! D65   D(31,24,25,28)         32.0581                                         !
 ! D66   D(31,24,25,32)        151.3118                                         !
 ! D67   D(24,25,26,27)       -126.1344                                         !
 ! D68   D(24,25,26,40)         51.764                                          !
 ! D69   D(28,25,26,27)        106.7017                                         !
 ! D70   D(28,25,26,40)        -75.3999                                         !
 ! D71   D(32,25,26,27)        -12.442                                          !
 ! D72   D(32,25,26,40)        165.4564                                         !
 ! D73   D(24,25,28,29)        -59.1866                                         !
 ! D74   D(24,25,28,30)        175.5337                                         !
 ! D75   D(24,25,28,33)         59.2071                                         !
 ! D76   D(26,25,28,29)         65.7194                                         !
 ! D77   D(26,25,28,30)        -59.5603                                         !
 ! D78   D(26,25,28,33)       -175.8868                                         !
 ! D79   D(32,25,28,29)       -177.5484                                         !
 ! D80   D(32,25,28,30)         57.1719                                         !
 ! D81   D(32,25,28,33)        -59.1547                                         !
 ! D82   D(25,26,40,41)       -147.6191                                         !
 ! D83   D(25,26,40,53)         -3.105                                          !
 ! D84   D(27,26,40,41)         30.2213                                         !
 ! D85   D(27,26,40,53)        174.7355                                         !
 ! D86   D(25,28,29,34)         55.0231                                         !
 ! D87   D(25,28,29,35)        173.5834                                         !
 ! D88   D(25,28,29,36)        -67.6788                                         !
 ! D89   D(30,28,29,34)        179.8128                                         !
 ! D90   D(30,28,29,35)        -61.6269                                         !
 ! D91   D(30,28,29,36)         57.1109                                         !
 ! D92   D(33,28,29,34)        -61.7037                                         !
 ! D93   D(33,28,29,35)         56.8566                                         !
 ! D94   D(33,28,29,36)        175.5944                                         !
 ! D95   D(25,28,30,37)         65.7547                                         !
 ! D96   D(25,28,30,38)        -54.6262                                         !
 ! D97   D(25,28,30,39)       -174.7147                                         !
 ! D98   D(29,28,30,37)        -61.9567                                         !
 ! D99   D(29,28,30,38)        177.6624                                         !
 ! D100  D(29,28,30,39)         57.5739                                         !
 ! D101  D(33,28,30,37)        179.8744                                         !
 ! D102  D(33,28,30,38)         59.4935                                         !
 ! D103  D(33,28,30,39)        -60.595                                          !
 ! D104  D(26,40,41,42)        151.9891                                         !
 ! D105  D(26,40,41,44)        -79.2163                                         !
 ! D106  D(26,40,41,54)         43.0569                                         !
 ! D107  D(53,40,41,42)          7.1047                                         !
 ! D108  D(53,40,41,44)        135.8993                                         !
 ! D109  D(53,40,41,54)       -101.8275                                         !
 ! D110  D(40,41,42,43)        -55.7524                                         !
 ! D111  D(40,41,42,51)        124.0489                                         !
 ! D112  D(44,41,42,43)        174.9898                                         !
 ! D113  D(44,41,42,51)         -5.2089                                         !
 ! D114  D(54,41,42,43)         56.4272                                         !
 ! D115  D(54,41,42,51)       -123.7715                                         !
 ! D116  D(40,41,44,45)         85.2316                                         !
 ! D117  D(40,41,44,55)        -39.6123                                         !
 ! D118  D(40,41,44,56)       -156.5196                                         !
 ! D119  D(42,41,44,45)       -152.0064                                         !
 ! D120  D(42,41,44,55)         83.1498                                         !
 ! D121  D(42,41,44,56)        -33.7576                                         !
 ! D122  D(54,41,44,45)        -36.4969                                         !
 ! D123  D(54,41,44,55)       -161.3408                                         !
 ! D124  D(54,41,44,56)         81.7519                                         !
 ! D125  D(41,42,51,52)         -4.5775                                         !
 ! D126  D(43,42,51,52)        175.2255                                         !
 ! D127  D(41,44,45,46)         58.9977                                         !
 ! D128  D(41,44,45,57)        -64.2054                                         !
 ! D129  D(41,44,45,58)        179.6182                                         !
 ! D130  D(55,44,45,46)       -176.3549                                         !
 ! D131  D(55,44,45,57)         60.442                                          !
 ! D132  D(55,44,45,58)        -55.7344                                         !
 ! D133  D(56,44,45,46)        -60.495                                          !
 ! D134  D(56,44,45,57)        176.3018                                         !
 ! D135  D(56,44,45,58)         60.1254                                         !
 ! D136  D(44,45,46,47)       -107.2719                                         !
 ! D137  D(44,45,46,59)        132.811                                          !
 ! D138  D(44,45,46,60)         16.7174                                         !
 ! D139  D(57,45,46,47)         16.0981                                         !
 ! D140  D(57,45,46,59)       -103.819                                          !
 ! D141  D(57,45,46,60)        140.0874                                         !
 ! D142  D(58,45,46,47)        133.1373                                         !
 ! D143  D(58,45,46,59)         13.2202                                         !
 ! D144  D(58,45,46,60)       -102.8734                                         !
 ! D145  D(45,46,47,48)         87.0752                                         !
 ! D146  D(45,46,47,61)        -67.7516                                         !
 ! D147  D(59,46,47,48)       -151.4299                                         !
 ! D148  D(59,46,47,61)         53.7433                                         !
 ! D149  D(60,46,47,48)        -38.1892                                         !
 ! D150  D(60,46,47,61)        166.9841                                         !
 ! D151  D(46,47,48,49)         31.6376                                         !
 ! D152  D(46,47,48,50)       -150.6856                                         !
 ! D153  D(61,47,48,49)       -173.4457                                         !
 ! D154  D(61,47,48,50)          4.2311                                         !
 ! D155  D(47,48,49,62)         15.3233                                         !
 ! D156  D(50,48,49,62)       -162.2322                                         !
 ! D157  D(47,48,50,63)        177.6464                                         !
 ! D158  D(47,48,50,64)         46.844                                          !
 ! D159  D(49,48,50,63)         -4.5516                                         !
 ! D160  D(49,48,50,64)       -135.3541                                         !
 --------------------------------------------------------------------------------
 Symmetry turned off by external request.
 Stoichiometry    C20H33N6O5(1+)
 Framework group  C1[X(C20H33N6O5)]
 Deg. of freedom   186
 Full point group                 C1      NOp   1
                          Input orientation:                          
 ---------------------------------------------------------------------
 Center     Atomic      Atomic             Coordinates (Angstroms)
 Number     Number       Type             X           Y           Z
 ---------------------------------------------------------------------
      1          7           0       33.361795  -30.829129   41.161267
      2          6           0       32.738710  -29.522685   41.591291
      3          6           0       32.599789  -29.623224   43.119750
      4          8           0       31.687314  -30.297926   43.581586
      5          6           0       33.545402  -28.350496   41.004362
      6          6           0       33.640850  -28.433652   39.495548
      7          6           0       34.752755  -29.034142   38.880539
      8          6           0       32.598315  -27.971449   38.682851
      9          6           0       34.822709  -29.169093   37.497809
     10          6           0       32.657544  -28.097775   37.296928
     11          6           0       33.772826  -28.698974   36.697365
     12          8           0       33.901794  -28.857930   35.355252
     13          1           0       33.269384  -30.926445   40.144603
     14          1           0       31.721296  -29.520839   41.194646
     15          1           0       33.060537  -27.419527   41.320270
     16          1           0       34.558341  -28.354691   41.427988
     17          1           0       35.580617  -29.391271   39.490583
     18          1           0       31.730235  -27.495324   39.133626
     19          1           0       35.683859  -29.621547   37.017391
     20          1           0       31.843180  -27.723800   36.680616
     21          1           0       33.137397  -28.474075   34.897007
     22          1           0       34.380629  -30.807716   41.360000
     23          1           0       32.998489  -31.749187   41.655099
     24          7           0       33.567154  -29.061824   43.893555
     25          6           0       33.779852  -29.539128   45.267278
     26          6           0       34.407163  -30.959417   45.193384
     27          8           0       33.908410  -31.909993   45.777401
     28          6           0       34.543200  -28.515193   46.138896
     29          6           0       35.937353  -28.131757   45.615510
     30          6           0       34.631049  -29.029942   47.583408
     31          1           0       34.257060  -28.457729   43.469694
     32          1           0       32.794354  -29.703028   45.705635
     33          1           0       33.918176  -27.612048   46.129173
     34          1           0       35.928924  -27.759260   44.581374
     35          1           0       36.350500  -27.324766   46.228046
     36          1           0       36.633847  -28.975246   45.673250
     37          1           0       35.245477  -29.935770   47.645141
     38          1           0       33.641114  -29.268773   47.985644
     39          1           0       35.086216  -28.272243   48.228453
     40          7           0       35.520036  -31.048435   44.391485
     41          6           0       35.902266  -32.239650   43.608935
     42          6           0       36.689612  -31.661105   42.415647
     43          8           0       36.176001  -30.816857   41.693733
     44          6           0       36.591778  -33.378028   44.379010
     45          6           0       35.649807  -34.381466   45.075451
     46          6           0       34.663567  -35.118921   44.121739
     47          7           0       33.271235  -34.687005   44.222534
     48          6           0       32.686765  -33.649851   43.546227
     49          7           0       33.021040  -33.249010   42.337426
     50          7           0       31.653242  -33.051829   44.206708
     51          8           0       37.927947  -32.065784   42.160072
     52          1           0       38.252537  -32.679645   42.842113
     53          1           0       35.749964  -30.185645   43.918684
     54          1           0       34.990520  -32.635219   43.139207
     55          1           0       37.291779  -32.954775   45.109248
     56          1           0       37.178925  -33.969519   43.658837
     57          1           0       35.081523  -33.868792   45.853043
     58          1           0       36.285639  -35.125500   45.568193
     59          1           0       34.675406  -36.190244   44.341909
     60          1           0       34.983953  -35.032042   43.077759
     61          1           0       32.818305  -34.921075   45.097048
     62          1           0       33.589940  -33.943950   41.855364
     63          1           0       31.250323  -32.261238   43.716289
     64          1           0       31.835138  -32.832948   45.180671
 ---------------------------------------------------------------------
 Rotational constants (GHZ):           0.2006999           0.0903910           0.0829042
 Standard basis: 6-31G(d) (6D, 7F)
   531 basis functions,  1000 primitive gaussians,   531 cartesian basis functions
   117 alpha electrons      117 beta electrons
       nuclear repulsion energy      3455.6355893193 Hartrees.
 NAtoms=   64 NActive=   64 NUniq=   64 SFac= 1.00D+00 NAtFMM=   60 NAOKFM=T Big=T
 Integral buffers will be    131072 words long.
 Raffenetti 2 integral format.
 Two-electron integral symmetry is turned off.
 Nuclear repulsion after empirical dispersion term =     3455.5437316523 Hartrees.
 One-electron integrals computed using PRISM.
 NBasis=   531 RedAO= T EigKep=  4.29D-04  NBF=   531
 NBsUse=   531 1.00D-06 EigRej= -1.00D+00 NBFU=   531
 Initial guess from the checkpoint file:  "conf-234.chk"
 B after Tr=     0.000000    0.000000    0.000000
         Rot=    1.000000    0.000000    0.000000    0.000000 Ang=   0.00 deg.
 Requested convergence on RMS density matrix=1.00D-08 within 128 cycles.
 Requested convergence on MAX density matrix=1.00D-06.
 Requested convergence on             energy=1.00D-06.
 No special actions if energy rises.
 SCF Done:  E(RB3LYP) =  -1486.55891222     A.U. after    1 cycles
            NFock=  1  Conv=0.32D-08     -V/T= 2.0094

 **********************************************************************

            Population analysis using the SCF Density.

 **********************************************************************

 Alpha  occ. eigenvalues --  -19.34008 -19.28489 -19.26744 -19.24975 -19.24413
 Alpha  occ. eigenvalues --  -14.53635 -14.49542 -14.48679 -14.46114 -14.43643
 Alpha  occ. eigenvalues --  -14.41219 -10.46841 -10.42317 -10.41129 -10.40086
 Alpha  occ. eigenvalues --  -10.37782 -10.37047 -10.35033 -10.34591 -10.33563
 Alpha  occ. eigenvalues --  -10.32339 -10.32039 -10.31057 -10.29787 -10.29494
 Alpha  occ. eigenvalues --  -10.29338 -10.29175 -10.28869 -10.28633 -10.28098
 Alpha  occ. eigenvalues --  -10.27296  -1.25024  -1.17373  -1.16501  -1.15892
 Alpha  occ. eigenvalues --   -1.15004  -1.09324  -1.08811  -1.06394  -1.04621
 Alpha  occ. eigenvalues --   -0.99338  -0.95737  -0.95323  -0.92876  -0.91549
 Alpha  occ. eigenvalues --   -0.90222  -0.86017  -0.84675  -0.84595  -0.81918
 Alpha  occ. eigenvalues --   -0.80011  -0.79058  -0.77640  -0.76331  -0.73194
 Alpha  occ. eigenvalues --   -0.72211  -0.72193  -0.70232  -0.70046  -0.69616
 Alpha  occ. eigenvalues --   -0.69176  -0.68802  -0.67154  -0.66286  -0.65648
 Alpha  occ. eigenvalues --   -0.63993  -0.63679  -0.62761  -0.61941  -0.61670
 Alpha  occ. eigenvalues --   -0.59895  -0.59502  -0.58864  -0.58365  -0.57878
 Alpha  occ. eigenvalues --   -0.57466  -0.57064  -0.56509  -0.56181  -0.55247
 Alpha  occ. eigenvalues --   -0.54568  -0.54311  -0.53687  -0.53485  -0.52653
 Alpha  occ. eigenvalues --   -0.52402  -0.52209  -0.51891  -0.51383  -0.51288
 Alpha  occ. eigenvalues --   -0.50394  -0.49803  -0.49624  -0.49377  -0.48850
 Alpha  occ. eigenvalues --   -0.48371  -0.47570  -0.47013  -0.46416  -0.46212
 Alpha  occ. eigenvalues --   -0.45998  -0.45216  -0.44913  -0.44681  -0.44102
 Alpha  occ. eigenvalues --   -0.43298  -0.42784  -0.41852  -0.40729  -0.40352
 Alpha  occ. eigenvalues --   -0.38508  -0.38163  -0.36277  -0.35720  -0.35135
 Alpha  occ. eigenvalues --   -0.34224  -0.31555
 Alpha virt. eigenvalues --   -0.14461  -0.12761  -0.10866  -0.10316  -0.09237
 Alpha virt. eigenvalues --   -0.07089  -0.06843  -0.05619  -0.03618  -0.02432
 Alpha virt. eigenvalues --   -0.01268  -0.01171  -0.00706  -0.00477  -0.00147
 Alpha virt. eigenvalues --    0.00392   0.01107   0.01960   0.02293   0.02698
 Alpha virt. eigenvalues --    0.03172   0.03574   0.03860   0.04122   0.04576
 Alpha virt. eigenvalues --    0.04826   0.05006   0.05972   0.06318   0.06497
 Alpha virt. eigenvalues --    0.07111   0.07467   0.07564   0.07988   0.08518
 Alpha virt. eigenvalues --    0.08588   0.09143   0.09370   0.09504   0.10291
 Alpha virt. eigenvalues --    0.10453   0.10623   0.11095   0.11301   0.11808
 Alpha virt. eigenvalues --    0.12025   0.12634   0.13454   0.14216   0.14613
 Alpha virt. eigenvalues --    0.15090   0.15906   0.16866   0.17398   0.17787
 Alpha virt. eigenvalues --    0.19132   0.20252   0.21561   0.22819   0.23786
 Alpha virt. eigenvalues --    0.23970   0.24362   0.24843   0.25780   0.26699
 Alpha virt. eigenvalues --    0.27929   0.29605   0.30717   0.34520   0.34975
 Alpha virt. eigenvalues --    0.36476   0.37610   0.38277   0.38959   0.39345
 Alpha virt. eigenvalues --    0.39953   0.40531   0.42173   0.42424   0.42547
 Alpha virt. eigenvalues --    0.42830   0.43143   0.43668   0.44080   0.44361
 Alpha virt. eigenvalues --    0.45403   0.45758   0.45987   0.46403   0.47110
 Alpha virt. eigenvalues --    0.48521   0.48783   0.49095   0.49414   0.49556
 Alpha virt. eigenvalues --    0.50468   0.51293   0.51885   0.52082   0.52347
 Alpha virt. eigenvalues --    0.52723   0.53091   0.54274   0.54680   0.55007
 Alpha virt. eigenvalues --    0.55440   0.56130   0.56216   0.57007   0.57753
 Alpha virt. eigenvalues --    0.57911   0.58476   0.58994   0.59690   0.59890
 Alpha virt. eigenvalues --    0.60175   0.61011   0.61903   0.62740   0.64516
 Alpha virt. eigenvalues --    0.64666   0.65302   0.65797   0.66723   0.66832
 Alpha virt. eigenvalues --    0.67568   0.67811   0.68668   0.69605   0.70106
 Alpha virt. eigenvalues --    0.70668   0.71066   0.72269   0.72872   0.73174
 Alpha virt. eigenvalues --    0.73782   0.73959   0.74477   0.75270   0.75539
 Alpha virt. eigenvalues --    0.75690   0.76484   0.76603   0.76722   0.77436
 Alpha virt. eigenvalues --    0.78054   0.78581   0.79069   0.79745   0.79896
 Alpha virt. eigenvalues --    0.80469   0.80709   0.80964   0.81299   0.81772
 Alpha virt. eigenvalues --    0.82221   0.83112   0.83508   0.84127   0.84535
 Alpha virt. eigenvalues --    0.84746   0.85341   0.86063   0.86733   0.87396
 Alpha virt. eigenvalues --    0.87547   0.88085   0.88944   0.89010   0.89234
 Alpha virt. eigenvalues --    0.89900   0.90471   0.90810   0.92550   0.92855
 Alpha virt. eigenvalues --    0.93652   0.94475   0.95075   0.95779   0.96338
 Alpha virt. eigenvalues --    0.97081   0.98061   0.98676   0.99042   1.00128
 Alpha virt. eigenvalues --    1.01454   1.02608   1.04081   1.05520   1.05929
 Alpha virt. eigenvalues --    1.06805   1.08051   1.08679   1.10063   1.10506
 Alpha virt. eigenvalues --    1.11838   1.12454   1.13335   1.14769   1.14842
 Alpha virt. eigenvalues --    1.15672   1.16069   1.17028   1.17538   1.19667
 Alpha virt. eigenvalues --    1.20100   1.22550   1.23000   1.25355   1.25574
 Alpha virt. eigenvalues --    1.26497   1.26876   1.28072   1.29740   1.30894
 Alpha virt. eigenvalues --    1.32379   1.33389   1.34546   1.35076   1.35362
 Alpha virt. eigenvalues --    1.36152   1.36679   1.37465   1.37868   1.39199
 Alpha virt. eigenvalues --    1.40653   1.41078   1.41595   1.42425   1.42778
 Alpha virt. eigenvalues --    1.44330   1.45666   1.46748   1.48126   1.48635
 Alpha virt. eigenvalues --    1.50025   1.51642   1.53884   1.55371   1.56717
 Alpha virt. eigenvalues --    1.57456   1.58866   1.59519   1.60099   1.60708
 Alpha virt. eigenvalues --    1.62459   1.62804   1.63285   1.64038   1.64532
 Alpha virt. eigenvalues --    1.64603   1.65336   1.67012   1.67560   1.68161
 Alpha virt. eigenvalues --    1.68675   1.69646   1.70166   1.70502   1.70940
 Alpha virt. eigenvalues --    1.71743   1.72793   1.73210   1.73981   1.75696
 Alpha virt. eigenvalues --    1.76905   1.77701   1.78009   1.78563   1.79516
 Alpha virt. eigenvalues --    1.79975   1.80554   1.81222   1.82483   1.83058
 Alpha virt. eigenvalues --    1.83725   1.84415   1.84708   1.85486   1.85785
 Alpha virt. eigenvalues --    1.86536   1.87072   1.88027   1.88898   1.89284
 Alpha virt. eigenvalues --    1.90278   1.90786   1.91564   1.92428   1.93317
 Alpha virt. eigenvalues --    1.94925   1.95657   1.96396   1.96487   1.96903
 Alpha virt. eigenvalues --    1.97613   1.98061   1.99659   2.00498   2.01563
 Alpha virt. eigenvalues --    2.02229   2.03544   2.03985   2.04689   2.05384
 Alpha virt. eigenvalues --    2.07336   2.08080   2.08612   2.11167   2.12821
 Alpha virt. eigenvalues --    2.14371   2.15359   2.16200   2.16726   2.17125
 Alpha virt. eigenvalues --    2.17965   2.18585   2.19734   2.20966   2.21565
 Alpha virt. eigenvalues --    2.21717   2.23299   2.24015   2.25279   2.26847
 Alpha virt. eigenvalues --    2.27790   2.29469   2.29800   2.30930   2.31002
 Alpha virt. eigenvalues --    2.32103   2.33469   2.33774   2.35088   2.38057
 Alpha virt. eigenvalues --    2.39416   2.39796   2.40339   2.41447   2.42135
 Alpha virt. eigenvalues --    2.43291   2.44381   2.45320   2.46622   2.47703
 Alpha virt. eigenvalues --    2.48484   2.49010   2.50102   2.50464   2.50756
 Alpha virt. eigenvalues --    2.51823   2.53214   2.54766   2.56063   2.56579
 Alpha virt. eigenvalues --    2.57041   2.57931   2.59698   2.61885   2.62385
 Alpha virt. eigenvalues --    2.63247   2.64445   2.65152   2.66913   2.69086
 Alpha virt. eigenvalues --    2.70452   2.71822   2.73513   2.75984   2.79547
 Alpha virt. eigenvalues --    2.81914   2.85678   2.87451   2.88972   2.91945
 Alpha virt. eigenvalues --    2.92217   2.92952   2.96295   2.97674   3.02416
 Alpha virt. eigenvalues --    3.02826   3.04406   3.31597   3.75007   3.76623
 Alpha virt. eigenvalues --    3.81680   3.85251   3.86276   3.90819   3.94043
 Alpha virt. eigenvalues --    3.97162   4.01607   4.03665   4.03941   4.06957
 Alpha virt. eigenvalues --    4.10376   4.11168   4.12330   4.14586   4.19289
 Alpha virt. eigenvalues --    4.20289   4.21534   4.24630   4.25930   4.28388
 Alpha virt. eigenvalues --    4.31674   4.34785   4.39073   4.44800   4.55110
 Alpha virt. eigenvalues --    4.56778   4.59068   4.63465   4.66292
          Condensed to atoms (all electrons):
 Mulliken charges:
               1
     1  N   -0.827962
     2  C   -0.067798
     3  C    0.624603
     4  O   -0.509532
     5  C   -0.399246
     6  C    0.132862
     7  C   -0.230517
     8  C   -0.186179
     9  C   -0.156446
    10  C   -0.188372
    11  C    0.360264
    12  O   -0.623781
    13  H    0.393174
    14  H    0.215158
    15  H    0.192056
    16  H    0.162158
    17  H    0.160693
    18  H    0.144663
    19  H    0.166131
    20  H    0.148131
    21  H    0.421104
    22  H    0.426041
    23  H    0.444147
    24  N   -0.636503
    25  C   -0.057057
    26  C    0.611275
    27  O   -0.508390
    28  C   -0.102771
    29  C   -0.487522
    30  C   -0.456334
    31  H    0.351513
    32  H    0.210036
    33  H    0.166081
    34  H    0.131505
    35  H    0.188348
    36  H    0.163338
    37  H    0.161510
    38  H    0.168365
    39  H    0.171910
    40  N   -0.611721
    41  C   -0.021621
    42  C    0.562942
    43  O   -0.479685
    44  C   -0.330807
    45  C   -0.280846
    46  C   -0.166618
    47  N   -0.574096
    48  C    0.685551
    49  N   -0.774718
    50  N   -0.744164
    51  O   -0.518330
    52  H    0.446281
    53  H    0.338223
    54  H    0.198277
    55  H    0.179897
    56  H    0.138057
    57  H    0.203548
    58  H    0.164062
    59  H    0.187465
    60  H    0.147241
    61  H    0.343993
    62  H    0.300455
    63  H    0.375713
    64  H    0.354246
 Sum of Mulliken charges =   1.00000
 Mulliken charges with hydrogens summed into heavy atoms:
               1
     1  N    0.435400
     2  C    0.147360
     3  C    0.624603
     4  O   -0.509532
     5  C   -0.045032
     6  C    0.132862
     7  C   -0.069824
     8  C   -0.041516
     9  C    0.009685
    10  C   -0.040241
    11  C    0.360264
    12  O   -0.202677
    24  N   -0.284990
    25  C    0.152979
    26  C    0.611275
    27  O   -0.508390
    28  C    0.063311
    29  C   -0.004330
    30  C    0.045451
    40  N   -0.273498
    41  C    0.176656
    42  C    0.562942
    43  O   -0.479685
    44  C   -0.012853
    45  C    0.086765
    46  C    0.168087
    47  N   -0.230103
    48  C    0.685551
    49  N   -0.474264
    50  N   -0.014205
    51  O   -0.072049
 Electronic spatial extent (au):  <R**2>=        3295555.6396
 Charge=              1.0000 electrons
 Dipole moment (field-independent basis, Debye):
    X=            166.2356    Y=           -148.3091    Z=            204.7034  Tot=            302.5448
 Quadrupole moment (field-independent basis, Debye-Ang):
   XX=           5587.6409   YY=           4440.4645   ZZ=           8592.0965
   XY=          -5152.7108   XZ=           7109.7190   YZ=          -6336.8456
 Traceless Quadrupole moment (field-independent basis, Debye-Ang):
   XX=           -619.0931   YY=          -1766.2695   ZZ=           2385.3626
   XY=          -5152.7108   XZ=           7109.7190   YZ=          -6336.8456
 Octapole moment (field-independent basis, Debye-Ang**2):
  XXX=         182152.7896  YYY=        -128686.2406  ZZZ=         354804.1137  XYY=         154970.4686
  XXY=        -173932.7918  XXZ=         239861.5206  XZZ=         299443.1469  YZZ=        -266601.1911
  YYZ=         190294.5749  XYZ=        -220873.4561
 Hexadecapole moment (field-independent basis, Debye-Ang**3):
 XXXX=        5730515.7114 YYYY=        3585563.6467 ZZZZ=       14377703.3963 XXXY=       -5698550.6971
 XXXZ=        7851873.1296 YYYX=       -4516211.0921 YYYZ=       -5534178.6741 ZZZX=       12408750.5374
 ZZZY=      -11032861.0625 XXYY=        5250659.5972 XXZZ=       10131928.3452 YYZZ=        8022008.5165
 XXYZ=       -7480973.2031 YYXZ=        6661098.3056 ZZXY=       -9322124.0842
 N-N= 3.455543731652D+03 E-N=-1.034603157739D+04  KE= 1.472693769677D+03
 Unable to Open any file for archive entry.
 1\1\GINC-AMR-092\SP\RB3LYP\6-31G(d)\C20H33N6O5(1+)\KENGMITH\31-May-202
 2\0\\# B3LYP/6-31G* empiricaldispersion=gd3 guess=read geom=check nosy
 mm integral(ultrafinegrid)\\Candidate Structure: Conf:234 Charge calc 
 in gas phase\\1,1\N,0,33.3617950646,-30.8291292436,41.1612671574\C,0,3
 2.738709818,-29.5226853259,41.5912909592\C,0,32.5997894368,-29.6232235
 721,43.1197497813\O,0,31.6873142086,-30.2979263525,43.5815856334\C,0,3
 3.5454018125,-28.3504957019,41.0043622476\C,0,33.6408504167,-28.433651
 7377,39.4955484021\C,0,34.7527552884,-29.0341422547,38.8805387709\C,0,
 32.5983150237,-27.9714485732,38.6828508655\C,0,34.8227086814,-29.16909
 31727,37.4978088899\C,0,32.657543884,-28.0977745878,37.2969277581\C,0,
 33.7728257723,-28.6989735642,36.6973653294\O,0,33.9017938068,-28.85792
 99752,35.3552519365\H,0,33.2693838992,-30.9264450641,40.1446028916\H,0
 ,31.7212958374,-29.5208393575,41.1946459332\H,0,33.0605369206,-27.4195
 273852,41.3202699948\H,0,34.5583411972,-28.3546913528,41.4279878137\H,
 0,35.5806169479,-29.391270675,39.4905829628\H,0,31.7302349253,-27.4953
 242009,39.1336264251\H,0,35.6838587343,-29.6215467474,37.0173914746\H,
 0,31.8431796993,-27.7238004095,36.6806159281\H,0,33.1373971736,-28.474
 0753274,34.8970069542\H,0,34.3806286563,-30.8077155601,41.3600004431\H
 ,0,32.9984892705,-31.749187378,41.6550992464\N,0,33.5671535236,-29.061
 8239409,43.8935547507\C,0,33.7798519032,-29.539128178,45.2672776123\C,
 0,34.407163183,-30.9594165294,45.193384227\O,0,33.9084101554,-31.90999
 26788,45.7774009053\C,0,34.5431997121,-28.5151932411,46.1388961489\C,0
 ,35.9373526006,-28.1317568606,45.6155095677\C,0,34.6310491475,-29.0299
 41665,47.5834079644\H,0,34.257059817,-28.4577290247,43.4696942135\H,0,
 32.7943539433,-29.7030279021,45.7056354551\H,0,33.9181756547,-27.61204
 78528,46.1291728522\H,0,35.9289238245,-27.759260042,44.5813740699\H,0,
 36.3505004295,-27.3247658542,46.2280459661\H,0,36.6338473148,-28.97524
 58263,45.6732499055\H,0,35.2454766742,-29.9357702514,47.6451407192\H,0
 ,33.6411141898,-29.2687733478,47.98564367\H,0,35.0862161311,-28.272243
 1567,48.2284529481\N,0,35.5200362313,-31.0484346776,44.3914848747\C,0,
 35.9022655071,-32.2396502887,43.6089348982\C,0,36.6896118398,-31.66110
 47879,42.4156472012\O,0,36.1760006056,-30.8168568956,41.693733317\C,0,
 36.5917779349,-33.3780277019,44.3790098594\C,0,35.6498072636,-34.38146
 62375,45.0754512467\C,0,34.6635667115,-35.1189206776,44.1217386302\N,0
 ,33.2712350599,-34.6870045247,44.2225336554\C,0,32.6867651768,-33.6498
 509349,43.5462270247\N,0,33.0210404544,-33.2490098701,42.3374259203\N,
 0,31.6532420057,-33.0518291983,44.2067077728\O,0,37.9279472348,-32.065
 7844113,42.1600720995\H,0,38.2525373927,-32.6796447498,42.8421125891\H
 ,0,35.7499642532,-30.1856445632,43.9186837544\H,0,34.9905202707,-32.63
 52186372,43.1392071758\H,0,37.2917787768,-32.9547752718,45.1092477382\
 H,0,37.1789252103,-33.9695193949,43.6588368678\H,0,35.081522792,-33.86
 87924063,45.8530432002\H,0,36.2856387624,-35.1255004647,45.5681932846\
 H,0,34.6754056557,-36.1902438729,44.3419090681\H,0,34.9839525522,-35.0
 320416496,43.0777590722\H,0,32.8183050724,-34.9210753173,45.0970480596
 \H,0,33.5899397079,-33.9439500154,41.8553644292\H,0,31.2503232916,-32.
 2612380407,43.7162889926\H,0,31.8351375868,-32.8329477086,45.180670893
 1\\Version=ES64L-G16RevC.01\HF=-1486.5589122\RMSD=3.195e-09\Dipole=0.6
 927271,-0.2622711,0.1497081\Quadrupole=-460.2805293,-1313.1780904,1773
 .4586197,-3830.9141947,5285.9018248,-4711.2894\PG=C01 [X(C20H33N6O5)]\
 \@
 The archive entry for this job was punched.


 IF AT FIRST YOU DON'T SUCCEED, TRY LOOKING IN 
 THE WASTEBASKET FOR THE DIRECTIONS.
 Job cpu time:       0 days  0 hours  1 minutes 10.0 seconds.
 Elapsed time:       0 days  0 hours  0 minutes 17.9 seconds.
 File lengths (MBytes):  RWF=    264 Int=      0 D2E=      0 Chk=     40 Scr=     16
 Normal termination of Gaussian 16 at Tue May 31 11:31:55 2022.
