 Entering Gaussian System, Link 0=/opt/software/Gaussian/g16-AVX2-C.01/g16/g16
 Input=charge-conf-472.com
 Output=charge-conf-472.log
 Initial command:
 /opt/software/Gaussian/g16-AVX2-C.01/g16/l1.exe "/mnt/gs18/scratch/users/kengmith/Gau-100321.inp" -scrdir="/mnt/gs18/scratch/users/kengmith/"
 Entering Link 1 = /opt/software/Gaussian/g16-AVX2-C.01/g16/l1.exe PID=    100331.
  
 Copyright (c) 1988-2019, Gaussian, Inc.  All Rights Reserved.
  
 This is part of the Gaussian(R) 16 program.  It is based on
 the Gaussian(R) 09 system (copyright 2009, Gaussian, Inc.),
 the Gaussian(R) 03 system (copyright 2003, Gaussian, Inc.),
 the Gaussian(R) 98 system (copyright 1998, Gaussian, Inc.),
 the Gaussian(R) 94 system (copyright 1995, Gaussian, Inc.),
 the Gaussian 92(TM) system (copyright 1992, Gaussian, Inc.),
 the Gaussian 90(TM) system (copyright 1990, Gaussian, Inc.),
 the Gaussian 88(TM) system (copyright 1988, Gaussian, Inc.),
 the Gaussian 86(TM) system (copyright 1986, Carnegie Mellon
 University), and the Gaussian 82(TM) system (copyright 1983,
 Carnegie Mellon University). Gaussian is a federally registered
 trademark of Gaussian, Inc.
  
 This software contains proprietary and confidential information,
 including trade secrets, belonging to Gaussian, Inc.
  
 This software is provided under written license and may be
 used, copied, transmitted, or stored only in accord with that
 written license.
  
 The following legend is applicable only to US Government
 contracts under FAR:
  
                    RESTRICTED RIGHTS LEGEND
  
 Use, reproduction and disclosure by the US Government is
 subject to restrictions as set forth in subparagraphs (a)
 and (c) of the Commercial Computer Software - Restricted
 Rights clause in FAR 52.227-19.
  
 Gaussian, Inc.
 340 Quinnipiac St., Bldg. 40, Wallingford CT 06492
  
  
 ---------------------------------------------------------------
 Warning -- This program may not be used in any manner that
 competes with the business of Gaussian, Inc. or will provide
 assistance to any competitor of Gaussian, Inc.  The licensee
 of this program is prohibited from giving any competitor of
 Gaussian, Inc. access to this program.  By using this program,
 the user acknowledges that Gaussian, Inc. is engaged in the
 business of creating and licensing software in the field of
 computational chemistry and represents and warrants to the
 licensee that it is not a competitor of Gaussian, Inc. and that
 it will not use this program in any manner prohibited above.
 ---------------------------------------------------------------
  

 Cite this work as:
 Gaussian 16, Revision C.01,
 M. J. Frisch, G. W. Trucks, H. B. Schlegel, G. E. Scuseria, 
 M. A. Robb, J. R. Cheeseman, G. Scalmani, V. Barone, 
 G. A. Petersson, H. Nakatsuji, X. Li, M. Caricato, A. V. Marenich, 
 J. Bloino, B. G. Janesko, R. Gomperts, B. Mennucci, H. P. Hratchian, 
 J. V. Ortiz, A. F. Izmaylov, J. L. Sonnenberg, D. Williams-Young, 
 F. Ding, F. Lipparini, F. Egidi, J. Goings, B. Peng, A. Petrone, 
 T. Henderson, D. Ranasinghe, V. G. Zakrzewski, J. Gao, N. Rega, 
 G. Zheng, W. Liang, M. Hada, M. Ehara, K. Toyota, R. Fukuda, 
 J. Hasegawa, M. Ishida, T. Nakajima, Y. Honda, O. Kitao, H. Nakai, 
 T. Vreven, K. Throssell, J. A. Montgomery, Jr., J. E. Peralta, 
 F. Ogliaro, M. J. Bearpark, J. J. Heyd, E. N. Brothers, K. N. Kudin, 
 V. N. Staroverov, T. A. Keith, R. Kobayashi, J. Normand, 
 K. Raghavachari, A. P. Rendell, J. C. Burant, S. S. Iyengar, 
 J. Tomasi, M. Cossi, J. M. Millam, M. Klene, C. Adamo, R. Cammi, 
 J. W. Ochterski, R. L. Martin, K. Morokuma, O. Farkas, 
 J. B. Foresman, and D. J. Fox, Gaussian, Inc., Wallingford CT, 2019.
 
 ******************************************
 Gaussian 16:  ES64L-G16RevC.01  3-Jul-2019
                31-May-2022 
 ******************************************
 %mem=8gb
 %nproc=4
 Will use up to    4 processors via shared memory.
 %chk=conf-472.chk
 ----------------------------------------------------------------------
 # B3LYP/6-31G* empiricaldispersion=gd3 guess=read geom=check nosymm in
 tegral(ultrafinegrid)
 ----------------------------------------------------------------------
 1/29=2,38=1,172=1/1;
 2/12=2,15=1,40=1/2;
 3/5=1,6=6,7=1,11=2,14=-4,25=1,30=1,74=-5,75=-5,116=-2,124=31/1,2,3;
 4/5=1/1;
 5/5=2,38=6/2;
 6/7=2,8=2,9=2,10=2,28=1/1;
 99/5=1,9=1/99;
 ------------------------------------------------------
 Candidate Structure: Conf:472 Charge calc in gas phase
 ------------------------------------------------------
 Structure from the checkpoint file:  "conf-472.chk"
 Charge =  1 Multiplicity = 1
 Redundant internal coordinates found in file.  (old form).
 N,0,35.9073137824,-29.9156210371,43.7841993634
 C,0,35.2763529349,-31.0207953644,44.5796685486
 C,0,33.7768453122,-30.9548547039,44.2171215215
 O,0,33.2580690419,-29.8569985202,44.0040584159
 C,0,36.0036098596,-32.3466668144,44.2741314422
 C,0,37.5059428499,-32.2167357504,44.4020361002
 C,0,38.2956806975,-31.985651063,43.2675169628
 C,0,38.1347213198,-32.2639068645,45.6564201711
 C,0,39.6751501885,-31.8109240829,43.3770296554
 C,0,39.5080270897,-32.0932139276,45.7793236266
 C,0,40.2875942554,-31.8667450862,44.6353582794
 O,0,41.6232710381,-31.7092749601,44.8227421684
 H,0,35.352324807,-29.0580821659,43.8724184494
 H,0,35.3827004574,-30.7668152101,45.6403583549
 H,0,35.6312082524,-33.1043404149,44.9749993685
 H,0,35.7385673174,-32.6574450488,43.258636015
 H,0,37.8279001749,-31.9438860726,42.2860136645
 H,0,37.5432021775,-32.4513094315,46.5504031855
 H,0,40.2745455072,-31.6410743577,42.4854488831
 H,0,40.0001780277,-32.1407862814,46.744995333
 H,0,42.0694900921,-31.5922578974,43.9690774905
 H,0,36.879516371,-29.7627325267,44.0607343151
 H,0,35.834348847,-30.2157505804,42.7233284707
 N,0,33.1002426499,-32.1207544092,44.119285423
 C,0,31.7082167833,-32.1552341426,43.6504774197
 C,0,31.5803549956,-31.3631870492,42.3328982968
 O,0,30.6251903077,-30.596370909,42.1646366095
 C,0,31.1884714456,-33.6114553808,43.5674433245
 C,0,31.9644227003,-34.4844211436,42.567699502
 C,0,29.6867267002,-33.6154892964,43.2476985378
 H,0,33.5753754217,-32.9956127418,44.2898614979
 H,0,31.0879987822,-31.5981370714,44.3586816747
 H,0,31.3233210097,-34.0323542469,44.5746457965
 H,0,33.0436769484,-34.5140759228,42.7668074695
 H,0,31.6028189244,-35.5159181289,42.6164662463
 H,0,31.8239657535,-34.1279420015,41.5417881076
 H,0,29.492483466,-33.1936166063,42.2556026382
 H,0,29.1188117175,-33.0286169953,43.977046083
 H,0,29.3022871846,-34.6398952963,43.2609288346
 N,0,32.570304483,-31.5299506364,41.4142499928
 C,0,32.9948735211,-30.3639804734,40.6328046813
 C,0,34.4050127554,-29.9297259466,41.08862009
 O,0,35.1718190695,-30.8528907216,41.5309974421
 C,0,32.7943883787,-30.4970802918,39.1175423027
 C,0,31.3137287311,-30.3869187797,38.7014315663
 C,0,30.7173802539,-28.9630238938,38.6829047931
 N,0,30.4864736408,-28.3585875047,40.0124526088
 C,0,31.4252436158,-27.7544826485,40.7552874743
 N,0,32.4843999728,-27.1137595378,40.218666163
 N,0,31.3128326036,-27.7876033782,42.0938863268
 O,0,34.6639056724,-28.7070554393,41.0905916388
 H,0,33.3995269165,-27.4264793217,40.5954807186
 H,0,33.3590610957,-32.105890822,41.6913853102
 H,0,32.3598076013,-29.5753205509,40.9890042948
 H,0,33.2005936864,-31.4589636952,38.7858478673
 H,0,33.3837401681,-29.7179586792,38.6167237841
 H,0,30.7009507869,-31.0241627794,39.3510093237
 H,0,31.1994946578,-30.774457152,37.6816626822
 H,0,29.7422878566,-28.9788024867,38.1888242048
 H,0,31.3461315763,-28.2911656692,38.0919301397
 H,0,29.7564696162,-28.8094996476,40.5548195245
 H,0,32.4815703396,-26.9775401305,39.2166977958
 H,0,32.0198680531,-27.3067924645,42.634451281
 H,0,30.9135888758,-28.6262122553,42.516989966
 Recover connectivity data from disk.
                           ----------------------------
                           !    Current Parameters    !
                           ! (Angstroms and Degrees)  !
 --------------------------                            --------------------------
 ! Name  Definition              Value                                          !
 --------------------------------------------------------------------------------
 ! R1    R(1,2)                  1.5008                                         !
 ! R2    R(1,13)                 1.0253                                         !
 ! R3    R(1,22)                 1.0223                                         !
 ! R4    R(1,23)                 1.1049                                         !
 ! R5    R(2,3)                  1.5441                                         !
 ! R6    R(2,5)                  1.5428                                         !
 ! R7    R(2,14)                 1.0958                                         !
 ! R8    R(3,4)                  1.2328                                         !
 ! R9    R(3,24)                 1.3515                                         !
 ! R10   R(5,6)                  1.5134                                         !
 ! R11   R(5,15)                 1.0973                                         !
 ! R12   R(5,16)                 1.0946                                         !
 ! R13   R(6,7)                  1.4015                                         !
 ! R14   R(6,8)                  1.4039                                         !
 ! R15   R(7,9)                  1.3948                                         !
 ! R16   R(7,17)                 1.0881                                         !
 ! R17   R(8,10)                 1.3893                                         !
 ! R18   R(8,18)                 1.0882                                         !
 ! R19   R(9,11)                 1.4006                                         !
 ! R20   R(9,19)                 1.0877                                         !
 ! R21   R(10,11)                1.4027                                         !
 ! R22   R(10,20)                1.0849                                         !
 ! R23   R(11,12)                1.3579                                         !
 ! R24   R(12,21)                0.9703                                         !
 ! R25   R(24,25)                1.4693                                         !
 ! R26   R(24,31)                1.0101                                         !
 ! R27   R(25,26)                1.5426                                         !
 ! R28   R(25,28)                1.5484                                         !
 ! R29   R(25,32)                1.0939                                         !
 ! R30   R(26,27)                1.2364                                         !
 ! R31   R(26,40)                1.3608                                         !
 ! R32   R(28,29)                1.5374                                         !
 ! R33   R(28,30)                1.5354                                         !
 ! R34   R(28,33)                1.0999                                         !
 ! R35   R(29,34)                1.0979                                         !
 ! R36   R(29,35)                1.0941                                         !
 ! R37   R(29,36)                1.0951                                         !
 ! R38   R(30,37)                1.0954                                         !
 ! R39   R(30,38)                1.0949                                         !
 ! R40   R(30,39)                1.0942                                         !
 ! R41   R(40,41)                1.4664                                         !
 ! R42   R(40,53)                1.0152                                         !
 ! R43   R(41,42)                1.5443                                         !
 ! R44   R(41,44)                1.5343                                         !
 ! R45   R(41,54)                1.0734                                         !
 ! R46   R(42,43)                1.279                                          !
 ! R47   R(42,51)                1.2498                                         !
 ! R48   R(44,45)                1.542                                          !
 ! R49   R(44,55)                1.0956                                         !
 ! R50   R(44,56)                1.0978                                         !
 ! R51   R(45,46)                1.5438                                         !
 ! R52   R(45,57)                1.0971                                         !
 ! R53   R(45,58)                1.0969                                         !
 ! R54   R(46,47)                1.4786                                         !
 ! R55   R(46,59)                1.0932                                         !
 ! R56   R(46,60)                1.0936                                         !
 ! R57   R(47,48)                1.3409                                         !
 ! R58   R(47,61)                1.0151                                         !
 ! R59   R(48,49)                1.3492                                         !
 ! R60   R(48,50)                1.3437                                         !
 ! R61   R(49,62)                1.0112                                         !
 ! R62   R(50,63)                1.0116                                         !
 ! R63   R(50,64)                1.0206                                         !
 ! R64   R(51,52)                1.8665                                         !
 ! A1    A(2,1,13)             110.0443                                         !
 ! A2    A(2,1,22)             111.5055                                         !
 ! A3    A(2,1,23)             106.3269                                         !
 ! A4    A(13,1,22)            111.496                                          !
 ! A5    A(13,1,23)            105.9061                                         !
 ! A6    A(22,1,23)            111.2941                                         !
 ! A7    A(1,2,3)              104.6185                                         !
 ! A8    A(1,2,5)              109.2513                                         !
 ! A9    A(1,2,14)             107.5515                                         !
 ! A10   A(3,2,5)              116.6137                                         !
 ! A11   A(3,2,14)             108.1559                                         !
 ! A12   A(5,2,14)             110.1893                                         !
 ! A13   A(2,3,4)              119.1606                                         !
 ! A14   A(2,3,24)             117.7948                                         !
 ! A15   A(4,3,24)             123.0272                                         !
 ! A16   A(2,5,6)              112.1749                                         !
 ! A17   A(2,5,15)             107.8752                                         !
 ! A18   A(2,5,16)             108.2764                                         !
 ! A19   A(6,5,15)             110.0123                                         !
 ! A20   A(6,5,16)             110.0702                                         !
 ! A21   A(15,5,16)            108.3226                                         !
 ! A22   A(5,6,7)              120.3398                                         !
 ! A23   A(5,6,8)              121.1467                                         !
 ! A24   A(7,6,8)              118.4528                                         !
 ! A25   A(6,7,9)              120.9572                                         !
 ! A26   A(6,7,17)             119.6228                                         !
 ! A27   A(9,7,17)             119.4199                                         !
 ! A28   A(6,8,10)             121.1723                                         !
 ! A29   A(6,8,18)             119.7579                                         !
 ! A30   A(10,8,18)            119.0639                                         !
 ! A31   A(7,9,11)             119.8694                                         !
 ! A32   A(7,9,19)             120.0149                                         !
 ! A33   A(11,9,19)            120.1131                                         !
 ! A34   A(8,10,11)            119.8039                                         !
 ! A35   A(8,10,20)            121.4507                                         !
 ! A36   A(11,10,20)           118.7425                                         !
 ! A37   A(9,11,10)            119.7434                                         !
 ! A38   A(9,11,12)            123.3311                                         !
 ! A39   A(10,11,12)           116.9254                                         !
 ! A40   A(11,12,21)           110.1764                                         !
 ! A41   A(3,24,25)            121.1741                                         !
 ! A42   A(3,24,31)            119.9641                                         !
 ! A43   A(25,24,31)           118.6353                                         !
 ! A44   A(24,25,26)           109.8165                                         !
 ! A45   A(24,25,28)           110.9283                                         !
 ! A46   A(24,25,32)           108.5816                                         !
 ! A47   A(26,25,28)           114.1574                                         !
 ! A48   A(26,25,32)           104.1517                                         !
 ! A49   A(28,25,32)           108.8663                                         !
 ! A50   A(25,26,27)           119.9146                                         !
 ! A51   A(25,26,40)           116.9609                                         !
 ! A52   A(27,26,40)           123.1031                                         !
 ! A53   A(25,28,29)           113.5445                                         !
 ! A54   A(25,28,30)           109.9951                                         !
 ! A55   A(25,28,33)           105.6419                                         !
 ! A56   A(29,28,30)           110.8998                                         !
 ! A57   A(29,28,33)           108.4396                                         !
 ! A58   A(30,28,33)           108.0352                                         !
 ! A59   A(28,29,34)           113.1761                                         !
 ! A60   A(28,29,35)           109.8477                                         !
 ! A61   A(28,29,36)           111.0764                                         !
 ! A62   A(34,29,35)           106.9384                                         !
 ! A63   A(34,29,36)           107.7444                                         !
 ! A64   A(35,29,36)           107.8332                                         !
 ! A65   A(28,30,37)           111.1631                                         !
 ! A66   A(28,30,38)           111.5416                                         !
 ! A67   A(28,30,39)           110.0943                                         !
 ! A68   A(37,30,38)           107.7511                                         !
 ! A69   A(37,30,39)           108.0106                                         !
 ! A70   A(38,30,39)           108.1495                                         !
 ! A71   A(26,40,41)           118.225                                          !
 ! A72   A(26,40,53)           116.7725                                         !
 ! A73   A(41,40,53)           111.8144                                         !
 ! A74   A(40,41,42)           109.3095                                         !
 ! A75   A(40,41,44)           114.8021                                         !
 ! A76   A(40,41,54)           103.6543                                         !
 ! A77   A(42,41,44)           115.7996                                         !
 ! A78   A(42,41,54)           103.6324                                         !
 ! A79   A(44,41,54)           108.3104                                         !
 ! A80   A(41,42,43)           116.5236                                         !
 ! A81   A(41,42,51)           117.6922                                         !
 ! A82   A(43,42,51)           125.5473                                         !
 ! A83   A(41,44,45)           112.6933                                         !
 ! A84   A(41,44,55)           109.0706                                         !
 ! A85   A(41,44,56)           108.5923                                         !
 ! A86   A(45,44,55)           109.6977                                         !
 ! A87   A(45,44,56)           109.9798                                         !
 ! A88   A(55,44,56)           106.6153                                         !
 ! A89   A(44,45,46)           116.107                                          !
 ! A90   A(44,45,57)           109.5772                                         !
 ! A91   A(44,45,58)           109.0048                                         !
 ! A92   A(46,45,57)           109.0918                                         !
 ! A93   A(46,45,58)           105.9306                                         !
 ! A94   A(57,45,58)           106.6835                                         !
 ! A95   A(45,46,47)           115.2489                                         !
 ! A96   A(45,46,59)           109.6725                                         !
 ! A97   A(45,46,60)           110.5498                                         !
 ! A98   A(47,46,59)           105.8422                                         !
 ! A99   A(47,46,60)           108.9385                                         !
 ! A100  A(59,46,60)           106.1076                                         !
 ! A101  A(46,47,48)           124.9567                                         !
 ! A102  A(46,47,61)           114.2775                                         !
 ! A103  A(48,47,61)           114.055                                          !
 ! A104  A(47,48,49)           122.9027                                         !
 ! A105  A(47,48,50)           118.8289                                         !
 ! A106  A(49,48,50)           118.2683                                         !
 ! A107  A(48,49,62)           117.1221                                         !
 ! A108  A(48,50,63)           117.5263                                         !
 ! A109  A(48,50,64)           117.7718                                         !
 ! A110  A(63,50,64)           116.2586                                         !
 ! A111  A(42,51,52)           122.0372                                         !
 ! D1    D(13,1,2,3)            46.329                                          !
 ! D2    D(13,1,2,5)           171.8832                                         !
 ! D3    D(13,1,2,14)          -68.5213                                         !
 ! D4    D(22,1,2,3)           170.593                                          !
 ! D5    D(22,1,2,5)           -63.8528                                         !
 ! D6    D(22,1,2,14)           55.7427                                         !
 ! D7    D(23,1,2,3)           -67.9303                                         !
 ! D8    D(23,1,2,5)            57.6239                                         !
 ! D9    D(23,1,2,14)          177.2194                                         !
 ! D10   D(1,2,3,4)            -34.8479                                         !
 ! D11   D(1,2,3,24)           143.6781                                         !
 ! D12   D(5,2,3,4)           -155.6327                                         !
 ! D13   D(5,2,3,24)            22.8933                                         !
 ! D14   D(14,2,3,4)            79.5779                                         !
 ! D15   D(14,2,3,24)         -101.8962                                         !
 ! D16   D(1,2,5,6)             50.1472                                         !
 ! D17   D(1,2,5,15)           171.4627                                         !
 ! D18   D(1,2,5,16)           -71.5127                                         !
 ! D19   D(3,2,5,6)            168.4417                                         !
 ! D20   D(3,2,5,15)           -70.2428                                         !
 ! D21   D(3,2,5,16)            46.7818                                         !
 ! D22   D(14,2,5,6)           -67.8065                                         !
 ! D23   D(14,2,5,15)           53.509                                          !
 ! D24   D(14,2,5,16)          170.5336                                         !
 ! D25   D(2,3,24,25)         -173.9019                                         !
 ! D26   D(2,3,24,31)            0.5557                                         !
 ! D27   D(4,3,24,25)            4.5628                                         !
 ! D28   D(4,3,24,31)          179.0204                                         !
 ! D29   D(2,5,6,7)            -96.7247                                         !
 ! D30   D(2,5,6,8)             80.4                                            !
 ! D31   D(15,5,6,7)           143.1953                                         !
 ! D32   D(15,5,6,8)           -39.6799                                         !
 ! D33   D(16,5,6,7)            23.9029                                         !
 ! D34   D(16,5,6,8)          -158.9723                                         !
 ! D35   D(5,6,7,9)            177.4314                                         !
 ! D36   D(5,6,7,17)            -2.7095                                         !
 ! D37   D(8,6,7,9)              0.2302                                         !
 ! D38   D(8,6,7,17)          -179.9107                                         !
 ! D39   D(5,6,8,10)          -177.4921                                         !
 ! D40   D(5,6,8,18)             3.3947                                         !
 ! D41   D(7,6,8,10)            -0.3145                                         !
 ! D42   D(7,6,8,18)          -179.4276                                         !
 ! D43   D(6,7,9,11)             0.0452                                         !
 ! D44   D(6,7,9,19)           179.4679                                         !
 ! D45   D(17,7,9,11)         -179.8142                                         !
 ! D46   D(17,7,9,19)           -0.3915                                         !
 ! D47   D(6,8,10,11)            0.1214                                         !
 ! D48   D(6,8,10,20)         -179.2468                                         !
 ! D49   D(18,8,10,11)         179.2406                                         !
 ! D50   D(18,8,10,20)          -0.1276                                         !
 ! D51   D(7,9,11,10)           -0.243                                          !
 ! D52   D(7,9,11,12)          179.8637                                         !
 ! D53   D(19,9,11,10)        -179.6651                                         !
 ! D54   D(19,9,11,12)           0.4416                                         !
 ! D55   D(8,10,11,9)            0.1607                                         !
 ! D56   D(8,10,11,12)        -179.9392                                         !
 ! D57   D(20,10,11,9)         179.546                                          !
 ! D58   D(20,10,11,12)         -0.554                                          !
 ! D59   D(9,11,12,21)          -2.2104                                         !
 ! D60   D(10,11,12,21)        177.8935                                         !
 ! D61   D(3,24,25,26)          50.2155                                         !
 ! D62   D(3,24,25,28)         177.3391                                         !
 ! D63   D(3,24,25,32)         -63.07                                           !
 ! D64   D(31,24,25,26)       -124.314                                          !
 ! D65   D(31,24,25,28)          2.8096                                         !
 ! D66   D(31,24,25,32)        122.4005                                         !
 ! D67   D(24,25,26,27)       -136.5243                                         !
 ! D68   D(24,25,26,40)         41.8453                                         !
 ! D69   D(28,25,26,27)         98.1833                                         !
 ! D70   D(28,25,26,40)        -83.4471                                         !
 ! D71   D(32,25,26,27)        -20.4095                                         !
 ! D72   D(32,25,26,40)        157.9601                                         !
 ! D73   D(24,25,28,29)        -62.1469                                         !
 ! D74   D(24,25,28,30)        172.9184                                         !
 ! D75   D(24,25,28,33)         56.5581                                         !
 ! D76   D(26,25,28,29)         62.5558                                         !
 ! D77   D(26,25,28,30)        -62.3789                                         !
 ! D78   D(26,25,28,33)       -178.7391                                         !
 ! D79   D(32,25,28,29)        178.4327                                         !
 ! D80   D(32,25,28,30)         53.498                                          !
 ! D81   D(32,25,28,33)        -62.8623                                         !
 ! D82   D(25,26,40,41)       -142.7312                                         !
 ! D83   D(25,26,40,53)         -4.7265                                         !
 ! D84   D(27,26,40,41)         35.5818                                         !
 ! D85   D(27,26,40,53)        173.5865                                         !
 ! D86   D(25,28,29,34)         55.9808                                         !
 ! D87   D(25,28,29,35)        175.4175                                         !
 ! D88   D(25,28,29,36)        -65.3705                                         !
 ! D89   D(30,28,29,34)       -179.5718                                         !
 ! D90   D(30,28,29,35)        -60.1351                                         !
 ! D91   D(30,28,29,36)         59.0769                                         !
 ! D92   D(33,28,29,34)        -61.1041                                         !
 ! D93   D(33,28,29,35)         58.3326                                         !
 ! D94   D(33,28,29,36)        177.5446                                         !
 ! D95   D(25,28,30,37)         64.48                                           !
 ! D96   D(25,28,30,38)        -55.8051                                         !
 ! D97   D(25,28,30,39)       -175.8719                                         !
 ! D98   D(29,28,30,37)        -61.9592                                         !
 ! D99   D(29,28,30,38)        177.7557                                         !
 ! D100  D(29,28,30,39)         57.6889                                         !
 ! D101  D(33,28,30,37)        179.3286                                         !
 ! D102  D(33,28,30,38)         59.0435                                         !
 ! D103  D(33,28,30,39)        -61.0233                                         !
 ! D104  D(26,40,41,42)        109.2525                                         !
 ! D105  D(26,40,41,44)       -118.6851                                         !
 ! D106  D(26,40,41,54)         -0.7538                                         !
 ! D107  D(53,40,41,42)        -30.7002                                         !
 ! D108  D(53,40,41,44)        101.3622                                         !
 ! D109  D(53,40,41,54)       -140.7064                                         !
 ! D110  D(40,41,42,43)         29.8641                                         !
 ! D111  D(40,41,42,51)       -144.8576                                         !
 ! D112  D(44,41,42,43)       -101.6709                                         !
 ! D113  D(44,41,42,51)         83.6074                                         !
 ! D114  D(54,41,42,43)        139.8849                                         !
 ! D115  D(54,41,42,51)        -34.8368                                         !
 ! D116  D(40,41,44,45)         73.4012                                         !
 ! D117  D(40,41,44,55)        -48.6801                                         !
 ! D118  D(40,41,44,56)       -164.4972                                         !
 ! D119  D(42,41,44,45)       -157.697                                          !
 ! D120  D(42,41,44,55)         80.2217                                         !
 ! D121  D(42,41,44,56)        -35.5953                                         !
 ! D122  D(54,41,44,45)        -41.8659                                         !
 ! D123  D(54,41,44,55)       -163.9472                                         !
 ! D124  D(54,41,44,56)         80.2357                                         !
 ! D125  D(41,42,51,52)          1.1264                                         !
 ! D126  D(43,42,51,52)       -173.0674                                         !
 ! D127  D(41,44,45,46)         76.9224                                         !
 ! D128  D(41,44,45,57)        -47.1938                                         !
 ! D129  D(41,44,45,58)       -163.6014                                         !
 ! D130  D(55,44,45,46)       -161.3507                                         !
 ! D131  D(55,44,45,57)         74.5331                                         !
 ! D132  D(55,44,45,58)        -41.8745                                         !
 ! D133  D(56,44,45,46)        -44.3934                                         !
 ! D134  D(56,44,45,57)       -168.5095                                         !
 ! D135  D(56,44,45,58)         75.0828                                         !
 ! D136  D(44,45,46,47)        -71.984                                          !
 ! D137  D(44,45,46,59)        168.7322                                         !
 ! D138  D(44,45,46,60)         52.0729                                         !
 ! D139  D(57,45,46,47)         52.3824                                         !
 ! D140  D(57,45,46,59)        -66.9014                                         !
 ! D141  D(57,45,46,60)        176.4392                                         !
 ! D142  D(58,45,46,47)        166.8843                                         !
 ! D143  D(58,45,46,59)         47.6005                                         !
 ! D144  D(58,45,46,60)        -69.0589                                         !
 ! D145  D(45,46,47,48)         81.782                                          !
 ! D146  D(45,46,47,61)        -67.6365                                         !
 ! D147  D(59,46,47,48)       -156.8372                                         !
 ! D148  D(59,46,47,61)         53.7443                                         !
 ! D149  D(60,46,47,48)        -43.117                                          !
 ! D150  D(60,46,47,61)        167.4644                                         !
 ! D151  D(46,47,48,49)         29.7646                                         !
 ! D152  D(46,47,48,50)       -150.1029                                         !
 ! D153  D(61,47,48,49)        179.242                                          !
 ! D154  D(61,47,48,50)         -0.6254                                         !
 ! D155  D(47,48,49,62)          9.1118                                         !
 ! D156  D(50,48,49,62)       -171.02                                           !
 ! D157  D(47,48,50,63)       -178.5711                                         !
 ! D158  D(47,48,50,64)         34.4687                                         !
 ! D159  D(49,48,50,63)          1.5552                                         !
 ! D160  D(49,48,50,64)       -145.405                                          !
 --------------------------------------------------------------------------------
 Symmetry turned off by external request.
 Stoichiometry    C20H33N6O5(1+)
 Framework group  C1[X(C20H33N6O5)]
 Deg. of freedom   186
 Full point group                 C1      NOp   1
                          Input orientation:                          
 ---------------------------------------------------------------------
 Center     Atomic      Atomic             Coordinates (Angstroms)
 Number     Number       Type             X           Y           Z
 ---------------------------------------------------------------------
      1          7           0       35.907314  -29.915621   43.784199
      2          6           0       35.276353  -31.020795   44.579669
      3          6           0       33.776845  -30.954855   44.217122
      4          8           0       33.258069  -29.856999   44.004058
      5          6           0       36.003610  -32.346667   44.274131
      6          6           0       37.505943  -32.216736   44.402036
      7          6           0       38.295681  -31.985651   43.267517
      8          6           0       38.134721  -32.263907   45.656420
      9          6           0       39.675150  -31.810924   43.377030
     10          6           0       39.508027  -32.093214   45.779324
     11          6           0       40.287594  -31.866745   44.635358
     12          8           0       41.623271  -31.709275   44.822742
     13          1           0       35.352325  -29.058082   43.872418
     14          1           0       35.382700  -30.766815   45.640358
     15          1           0       35.631208  -33.104340   44.974999
     16          1           0       35.738567  -32.657445   43.258636
     17          1           0       37.827900  -31.943886   42.286014
     18          1           0       37.543202  -32.451309   46.550403
     19          1           0       40.274546  -31.641074   42.485449
     20          1           0       40.000178  -32.140786   46.744995
     21          1           0       42.069490  -31.592258   43.969077
     22          1           0       36.879516  -29.762733   44.060734
     23          1           0       35.834349  -30.215751   42.723328
     24          7           0       33.100243  -32.120754   44.119285
     25          6           0       31.708217  -32.155234   43.650477
     26          6           0       31.580355  -31.363187   42.332898
     27          8           0       30.625190  -30.596371   42.164637
     28          6           0       31.188471  -33.611455   43.567443
     29          6           0       31.964423  -34.484421   42.567700
     30          6           0       29.686727  -33.615489   43.247699
     31          1           0       33.575375  -32.995613   44.289861
     32          1           0       31.087999  -31.598137   44.358682
     33          1           0       31.323321  -34.032354   44.574646
     34          1           0       33.043677  -34.514076   42.766807
     35          1           0       31.602819  -35.515918   42.616466
     36          1           0       31.823966  -34.127942   41.541788
     37          1           0       29.492483  -33.193617   42.255603
     38          1           0       29.118812  -33.028617   43.977046
     39          1           0       29.302287  -34.639895   43.260929
     40          7           0       32.570304  -31.529951   41.414250
     41          6           0       32.994874  -30.363980   40.632805
     42          6           0       34.405013  -29.929726   41.088620
     43          8           0       35.171819  -30.852891   41.530997
     44          6           0       32.794388  -30.497080   39.117542
     45          6           0       31.313729  -30.386919   38.701432
     46          6           0       30.717380  -28.963024   38.682905
     47          7           0       30.486474  -28.358588   40.012453
     48          6           0       31.425244  -27.754483   40.755287
     49          7           0       32.484400  -27.113760   40.218666
     50          7           0       31.312833  -27.787603   42.093886
     51          8           0       34.663906  -28.707055   41.090592
     52          1           0       33.399527  -27.426479   40.595481
     53          1           0       33.359061  -32.105891   41.691385
     54          1           0       32.359808  -29.575321   40.989004
     55          1           0       33.200594  -31.458964   38.785848
     56          1           0       33.383740  -29.717959   38.616724
     57          1           0       30.700951  -31.024163   39.351009
     58          1           0       31.199495  -30.774457   37.681663
     59          1           0       29.742288  -28.978802   38.188824
     60          1           0       31.346132  -28.291166   38.091930
     61          1           0       29.756470  -28.809500   40.554820
     62          1           0       32.481570  -26.977540   39.216698
     63          1           0       32.019868  -27.306792   42.634451
     64          1           0       30.913589  -28.626212   42.516990
 ---------------------------------------------------------------------
 Rotational constants (GHZ):           0.2363158           0.0825867           0.0704306
 Standard basis: 6-31G(d) (6D, 7F)
   531 basis functions,  1000 primitive gaussians,   531 cartesian basis functions
   117 alpha electrons      117 beta electrons
       nuclear repulsion energy      3447.1535751173 Hartrees.
 NAtoms=   64 NActive=   64 NUniq=   64 SFac= 1.00D+00 NAtFMM=   60 NAOKFM=T Big=T
 Integral buffers will be    131072 words long.
 Raffenetti 2 integral format.
 Two-electron integral symmetry is turned off.
 Nuclear repulsion after empirical dispersion term =     3447.0602101562 Hartrees.
 One-electron integrals computed using PRISM.
 NBasis=   531 RedAO= T EigKep=  4.35D-04  NBF=   531
 NBsUse=   531 1.00D-06 EigRej= -1.00D+00 NBFU=   531
 Initial guess from the checkpoint file:  "conf-472.chk"
 B after Tr=     0.000000    0.000000    0.000000
         Rot=    1.000000    0.000000    0.000000    0.000000 Ang=   0.00 deg.
 Requested convergence on RMS density matrix=1.00D-08 within 128 cycles.
 Requested convergence on MAX density matrix=1.00D-06.
 Requested convergence on             energy=1.00D-06.
 No special actions if energy rises.
 SCF Done:  E(RB3LYP) =  -1486.59597565     A.U. after    1 cycles
            NFock=  1  Conv=0.74D-08     -V/T= 2.0094

 **********************************************************************

            Population analysis using the SCF Density.

 **********************************************************************

 Alpha  occ. eigenvalues --  -19.26456 -19.24936 -19.23306 -19.21492 -19.20733
 Alpha  occ. eigenvalues --  -14.53474 -14.49881 -14.49291 -14.48621 -14.47619
 Alpha  occ. eigenvalues --  -14.46076 -10.45215 -10.42266 -10.40126 -10.38657
 Alpha  occ. eigenvalues --  -10.37743 -10.34771 -10.34600 -10.34280 -10.32193
 Alpha  occ. eigenvalues --  -10.31713 -10.30725 -10.29551 -10.29374 -10.29172
 Alpha  occ. eigenvalues --  -10.28902 -10.28885 -10.28299 -10.27915 -10.27771
 Alpha  occ. eigenvalues --  -10.26855  -1.17235  -1.14902  -1.14710  -1.14250
 Alpha  occ. eigenvalues --   -1.13895  -1.09015  -1.05788  -1.05295  -1.03510
 Alpha  occ. eigenvalues --   -1.02599  -1.01443  -0.95321  -0.92131  -0.90265
 Alpha  occ. eigenvalues --   -0.89742  -0.85395  -0.84395  -0.84136  -0.81366
 Alpha  occ. eigenvalues --   -0.78722  -0.78338  -0.76970  -0.74842  -0.72730
 Alpha  occ. eigenvalues --   -0.71657  -0.70929  -0.70269  -0.69928  -0.69072
 Alpha  occ. eigenvalues --   -0.68823  -0.67942  -0.67405  -0.66902  -0.64995
 Alpha  occ. eigenvalues --   -0.63740  -0.63618  -0.63063  -0.61566  -0.59898
 Alpha  occ. eigenvalues --   -0.59309  -0.59128  -0.58148  -0.57850  -0.57545
 Alpha  occ. eigenvalues --   -0.56807  -0.56338  -0.55805  -0.54782  -0.54504
 Alpha  occ. eigenvalues --   -0.53743  -0.53432  -0.52777  -0.52692  -0.52144
 Alpha  occ. eigenvalues --   -0.51871  -0.51533  -0.51262  -0.50714  -0.50511
 Alpha  occ. eigenvalues --   -0.49828  -0.49403  -0.49165  -0.48763  -0.47939
 Alpha  occ. eigenvalues --   -0.47518  -0.46949  -0.45687  -0.45618  -0.45112
 Alpha  occ. eigenvalues --   -0.44505  -0.44385  -0.43765  -0.43550  -0.42953
 Alpha  occ. eigenvalues --   -0.42444  -0.40765  -0.39613  -0.38918  -0.38759
 Alpha  occ. eigenvalues --   -0.38236  -0.36794  -0.36382  -0.35878  -0.34796
 Alpha  occ. eigenvalues --   -0.33831  -0.31247
 Alpha virt. eigenvalues --   -0.12067  -0.11757  -0.10068  -0.09953  -0.08862
 Alpha virt. eigenvalues --   -0.06241  -0.04681  -0.04179  -0.03541  -0.02187
 Alpha virt. eigenvalues --   -0.01350  -0.01142  -0.00474  -0.00395   0.00705
 Alpha virt. eigenvalues --    0.00919   0.01521   0.01935   0.02832   0.03532
 Alpha virt. eigenvalues --    0.03806   0.04491   0.04707   0.04937   0.05276
 Alpha virt. eigenvalues --    0.05548   0.05750   0.06089   0.06359   0.06793
 Alpha virt. eigenvalues --    0.06933   0.07282   0.07636   0.08052   0.08412
 Alpha virt. eigenvalues --    0.08786   0.09255   0.09357   0.10232   0.10292
 Alpha virt. eigenvalues --    0.10854   0.11345   0.11875   0.12303   0.12714
 Alpha virt. eigenvalues --    0.13574   0.14249   0.14584   0.14880   0.15801
 Alpha virt. eigenvalues --    0.16023   0.16230   0.16626   0.17731   0.18065
 Alpha virt. eigenvalues --    0.19628   0.20660   0.22203   0.23515   0.24443
 Alpha virt. eigenvalues --    0.25075   0.25573   0.26539   0.26687   0.27748
 Alpha virt. eigenvalues --    0.29879   0.30337   0.32321   0.33870   0.37056
 Alpha virt. eigenvalues --    0.37907   0.38242   0.39133   0.40204   0.40405
 Alpha virt. eigenvalues --    0.41279   0.41908   0.42058   0.42591   0.42749
 Alpha virt. eigenvalues --    0.43172   0.44053   0.44203   0.44322   0.44588
 Alpha virt. eigenvalues --    0.45020   0.45471   0.46283   0.47489   0.48337
 Alpha virt. eigenvalues --    0.48708   0.49169   0.49368   0.49638   0.50186
 Alpha virt. eigenvalues --    0.51257   0.51683   0.51913   0.52369   0.52574
 Alpha virt. eigenvalues --    0.52970   0.53643   0.54169   0.54367   0.54818
 Alpha virt. eigenvalues --    0.55362   0.56017   0.56440   0.56828   0.57712
 Alpha virt. eigenvalues --    0.57915   0.59505   0.59852   0.60506   0.61236
 Alpha virt. eigenvalues --    0.61782   0.62002   0.62765   0.63709   0.63921
 Alpha virt. eigenvalues --    0.64883   0.65942   0.66443   0.67023   0.67489
 Alpha virt. eigenvalues --    0.68791   0.68958   0.69320   0.70937   0.71354
 Alpha virt. eigenvalues --    0.71472   0.72215   0.72611   0.72973   0.73995
 Alpha virt. eigenvalues --    0.74512   0.74829   0.75155   0.75388   0.76004
 Alpha virt. eigenvalues --    0.76343   0.76573   0.76901   0.77198   0.77970
 Alpha virt. eigenvalues --    0.78824   0.79006   0.79322   0.79754   0.79848
 Alpha virt. eigenvalues --    0.80702   0.81535   0.81877   0.82362   0.82630
 Alpha virt. eigenvalues --    0.83210   0.83745   0.84043   0.84782   0.85211
 Alpha virt. eigenvalues --    0.85772   0.86181   0.86336   0.87007   0.87147
 Alpha virt. eigenvalues --    0.87628   0.87973   0.88890   0.89125   0.89825
 Alpha virt. eigenvalues --    0.89863   0.90319   0.91546   0.92912   0.93002
 Alpha virt. eigenvalues --    0.94340   0.94604   0.95557   0.96981   0.97386
 Alpha virt. eigenvalues --    0.97622   0.98509   0.99690   1.00943   1.01254
 Alpha virt. eigenvalues --    1.03214   1.04827   1.05144   1.05637   1.06767
 Alpha virt. eigenvalues --    1.07249   1.08026   1.09527   1.10474   1.11718
 Alpha virt. eigenvalues --    1.12342   1.12814   1.14189   1.14438   1.15380
 Alpha virt. eigenvalues --    1.16898   1.17823   1.18185   1.19013   1.20162
 Alpha virt. eigenvalues --    1.20969   1.21591   1.23826   1.24287   1.25440
 Alpha virt. eigenvalues --    1.27145   1.27946   1.28597   1.29782   1.31373
 Alpha virt. eigenvalues --    1.32076   1.33376   1.34498   1.34702   1.35515
 Alpha virt. eigenvalues --    1.36764   1.36983   1.37510   1.38210   1.39229
 Alpha virt. eigenvalues --    1.39610   1.41477   1.41589   1.42409   1.43491
 Alpha virt. eigenvalues --    1.44539   1.46952   1.48893   1.49649   1.50810
 Alpha virt. eigenvalues --    1.53795   1.54134   1.55285   1.57164   1.58578
 Alpha virt. eigenvalues --    1.59818   1.60881   1.62727   1.63269   1.63542
 Alpha virt. eigenvalues --    1.64066   1.64502   1.64864   1.65627   1.66072
 Alpha virt. eigenvalues --    1.66943   1.68091   1.69078   1.69448   1.70030
 Alpha virt. eigenvalues --    1.70534   1.71770   1.72607   1.73271   1.74452
 Alpha virt. eigenvalues --    1.74912   1.75037   1.76021   1.76306   1.77141
 Alpha virt. eigenvalues --    1.77166   1.78211   1.78481   1.79359   1.79924
 Alpha virt. eigenvalues --    1.81221   1.81787   1.83620   1.84019   1.84363
 Alpha virt. eigenvalues --    1.85090   1.85557   1.85715   1.86585   1.87142
 Alpha virt. eigenvalues --    1.88082   1.88274   1.89492   1.89834   1.90529
 Alpha virt. eigenvalues --    1.91511   1.92877   1.93346   1.94508   1.95601
 Alpha virt. eigenvalues --    1.96560   1.97075   1.97760   1.98118   1.99523
 Alpha virt. eigenvalues --    2.00224   2.00802   2.01924   2.02200   2.03752
 Alpha virt. eigenvalues --    2.03990   2.04776   2.05080   2.05349   2.07344
 Alpha virt. eigenvalues --    2.08290   2.08957   2.10009   2.12301   2.13179
 Alpha virt. eigenvalues --    2.14348   2.15047   2.15816   2.16646   2.17005
 Alpha virt. eigenvalues --    2.18167   2.19829   2.20439   2.20965   2.21843
 Alpha virt. eigenvalues --    2.22662   2.24306   2.25441   2.25952   2.27474
 Alpha virt. eigenvalues --    2.28033   2.29659   2.30201   2.31420   2.31776
 Alpha virt. eigenvalues --    2.32677   2.33390   2.34499   2.35997   2.37356
 Alpha virt. eigenvalues --    2.40082   2.40800   2.41119   2.41748   2.42604
 Alpha virt. eigenvalues --    2.44550   2.44978   2.46952   2.48161   2.48654
 Alpha virt. eigenvalues --    2.48871   2.49953   2.50637   2.51539   2.52630
 Alpha virt. eigenvalues --    2.53006   2.55528   2.55987   2.56852   2.57297
 Alpha virt. eigenvalues --    2.58441   2.59090   2.60430   2.61878   2.62856
 Alpha virt. eigenvalues --    2.64790   2.66438   2.68257   2.68598   2.69510
 Alpha virt. eigenvalues --    2.73090   2.75378   2.77150   2.79803   2.82281
 Alpha virt. eigenvalues --    2.84869   2.86221   2.87346   2.88552   2.91583
 Alpha virt. eigenvalues --    2.92778   2.93659   2.94372   3.00843   3.02799
 Alpha virt. eigenvalues --    3.07226   3.08729   3.32030   3.74985   3.76544
 Alpha virt. eigenvalues --    3.78823   3.85756   3.87452   3.87713   3.92041
 Alpha virt. eigenvalues --    3.99113   4.02316   4.02705   4.03826   4.07696
 Alpha virt. eigenvalues --    4.10182   4.13195   4.15905   4.18756   4.22171
 Alpha virt. eigenvalues --    4.24345   4.24718   4.26470   4.30982   4.33988
 Alpha virt. eigenvalues --    4.36410   4.39067   4.40349   4.44234   4.54981
 Alpha virt. eigenvalues --    4.56475   4.62441   4.65964   4.67318
          Condensed to atoms (all electrons):
 Mulliken charges:
               1
     1  N   -0.763255
     2  C   -0.096664
     3  C    0.664470
     4  O   -0.551934
     5  C   -0.400794
     6  C    0.119063
     7  C   -0.216607
     8  C   -0.190409
     9  C   -0.190274
    10  C   -0.154350
    11  C    0.359036
    12  O   -0.623455
    13  H    0.402046
    14  H    0.211625
    15  H    0.170287
    16  H    0.198499
    17  H    0.166833
    18  H    0.138314
    19  H    0.146269
    20  H    0.167580
    21  H    0.420120
    22  H    0.395375
    23  H    0.452453
    24  N   -0.649801
    25  C   -0.003256
    26  C    0.622594
    27  O   -0.577002
    28  C   -0.131004
    29  C   -0.472828
    30  C   -0.451723
    31  H    0.356903
    32  H    0.193786
    33  H    0.154146
    34  H    0.131666
    35  H    0.180520
    36  H    0.170091
    37  H    0.164170
    38  H    0.163690
    39  H    0.168931
    40  N   -0.580162
    41  C   -0.059561
    42  C    0.629303
    43  O   -0.641060
    44  C   -0.269931
    45  C   -0.275663
    46  C   -0.177355
    47  N   -0.532757
    48  C    0.637578
    49  N   -0.736328
    50  N   -0.705456
    51  O   -0.577361
    52  H    0.406468
    53  H    0.347135
    54  H    0.157238
    55  H    0.170064
    56  H    0.151152
    57  H    0.172674
    58  H    0.170037
    59  H    0.195142
    60  H    0.166861
    61  H    0.371423
    62  H    0.356171
    63  H    0.374397
    64  H    0.404881
 Sum of Mulliken charges =   1.00000
 Mulliken charges with hydrogens summed into heavy atoms:
               1
     1  N    0.486620
     2  C    0.114961
     3  C    0.664470
     4  O   -0.551934
     5  C   -0.032008
     6  C    0.119063
     7  C   -0.049774
     8  C   -0.052095
     9  C   -0.044005
    10  C    0.013230
    11  C    0.359036
    12  O   -0.203335
    24  N   -0.292898
    25  C    0.190529
    26  C    0.622594
    27  O   -0.577002
    28  C    0.023142
    29  C    0.009448
    30  C    0.045068
    40  N   -0.233027
    41  C    0.097676
    42  C    0.629303
    43  O   -0.641060
    44  C    0.051285
    45  C    0.067047
    46  C    0.184648
    47  N   -0.161334
    48  C    0.637578
    49  N    0.026312
    50  N    0.073821
    51  O   -0.577361
 Electronic spatial extent (au):  <R**2>=        3294831.8425
 Charge=              1.0000 electrons
 Dipole moment (field-independent basis, Debye):
    X=            161.9688    Y=           -146.7758    Z=            203.5166  Tot=            298.6571
 Quadrupole moment (field-independent basis, Debye-Ang):
   XX=           5338.8306   YY=           4330.1798   ZZ=           8481.8280
   XY=          -4953.8846   XZ=           6885.2616   YZ=          -6235.7822
 Traceless Quadrupole moment (field-independent basis, Debye-Ang):
   XX=           -711.4488   YY=          -1720.0997   ZZ=           2431.5485
   XY=          -4953.8846   XZ=           6885.2616   YZ=          -6235.7822
 Octapole moment (field-independent basis, Debye-Ang**2):
  XXX=         171768.4862  YYY=        -122645.6537  ZZZ=         347259.0817  XYY=         146168.6948
  XXY=        -163384.5738  XXZ=         227652.2034  XZZ=         287802.2952  YZZ=        -260506.8180
  YYZ=         184463.1824  XYZ=        -211112.3633
 Hexadecapole moment (field-independent basis, Debye-Ang**3):
 XXXX=        5366575.8995 YYYY=        3291217.1191 ZZZZ=       13929928.5945 XXXY=       -5257431.1731
 XXXZ=        7344793.0343 YYYX=       -4136108.0339 YYYZ=       -5239339.2775 ZZZX=       11814156.3606
 ZZZY=      -10688235.3444 XXYY=        4813042.5221 XXZZ=        9535511.3310 YYZZ=        7718481.5573
 XXYZ=       -6982764.9085 YYXZ=        6244496.5636 ZZXY=       -8843567.7272
 N-N= 3.447060210156D+03 E-N=-1.033094063585D+04  KE= 1.472732733622D+03
 Unable to Open any file for archive entry.
 1\1\GINC-AMR-093\SP\RB3LYP\6-31G(d)\C20H33N6O5(1+)\KENGMITH\31-May-202
 2\0\\# B3LYP/6-31G* empiricaldispersion=gd3 guess=read geom=check nosy
 mm integral(ultrafinegrid)\\Candidate Structure: Conf:472 Charge calc 
 in gas phase\\1,1\N,0,35.9073137824,-29.9156210371,43.7841993634\C,0,3
 5.2763529349,-31.0207953644,44.5796685486\C,0,33.7768453122,-30.954854
 7039,44.2171215215\O,0,33.2580690419,-29.8569985202,44.0040584159\C,0,
 36.0036098596,-32.3466668144,44.2741314422\C,0,37.5059428499,-32.21673
 57504,44.4020361002\C,0,38.2956806975,-31.985651063,43.2675169628\C,0,
 38.1347213198,-32.2639068645,45.6564201711\C,0,39.6751501885,-31.81092
 40829,43.3770296554\C,0,39.5080270897,-32.0932139276,45.7793236266\C,0
 ,40.2875942554,-31.8667450862,44.6353582794\O,0,41.6232710381,-31.7092
 749601,44.8227421684\H,0,35.352324807,-29.0580821659,43.8724184494\H,0
 ,35.3827004574,-30.7668152101,45.6403583549\H,0,35.6312082524,-33.1043
 404149,44.9749993685\H,0,35.7385673174,-32.6574450488,43.258636015\H,0
 ,37.8279001749,-31.9438860726,42.2860136645\H,0,37.5432021775,-32.4513
 094315,46.5504031855\H,0,40.2745455072,-31.6410743577,42.4854488831\H,
 0,40.0001780277,-32.1407862814,46.744995333\H,0,42.0694900921,-31.5922
 578974,43.9690774905\H,0,36.879516371,-29.7627325267,44.0607343151\H,0
 ,35.834348847,-30.2157505804,42.7233284707\N,0,33.1002426499,-32.12075
 44092,44.119285423\C,0,31.7082167833,-32.1552341426,43.6504774197\C,0,
 31.5803549956,-31.3631870492,42.3328982968\O,0,30.6251903077,-30.59637
 0909,42.1646366095\C,0,31.1884714456,-33.6114553808,43.5674433245\C,0,
 31.9644227003,-34.4844211436,42.567699502\C,0,29.6867267002,-33.615489
 2964,43.2476985378\H,0,33.5753754217,-32.9956127418,44.2898614979\H,0,
 31.0879987822,-31.5981370714,44.3586816747\H,0,31.3233210097,-34.03235
 42469,44.5746457965\H,0,33.0436769484,-34.5140759228,42.7668074695\H,0
 ,31.6028189244,-35.5159181289,42.6164662463\H,0,31.8239657535,-34.1279
 420015,41.5417881076\H,0,29.492483466,-33.1936166063,42.2556026382\H,0
 ,29.1188117175,-33.0286169953,43.977046083\H,0,29.3022871846,-34.63989
 52963,43.2609288346\N,0,32.570304483,-31.5299506364,41.4142499928\C,0,
 32.9948735211,-30.3639804734,40.6328046813\C,0,34.4050127554,-29.92972
 59466,41.08862009\O,0,35.1718190695,-30.8528907216,41.5309974421\C,0,3
 2.7943883787,-30.4970802918,39.1175423027\C,0,31.3137287311,-30.386918
 7797,38.7014315663\C,0,30.7173802539,-28.9630238938,38.6829047931\N,0,
 30.4864736408,-28.3585875047,40.0124526088\C,0,31.4252436158,-27.75448
 26485,40.7552874743\N,0,32.4843999728,-27.1137595378,40.218666163\N,0,
 31.3128326036,-27.7876033782,42.0938863268\O,0,34.6639056724,-28.70705
 54393,41.0905916388\H,0,33.3995269165,-27.4264793217,40.5954807186\H,0
 ,33.3590610957,-32.105890822,41.6913853102\H,0,32.3598076013,-29.57532
 05509,40.9890042948\H,0,33.2005936864,-31.4589636952,38.7858478673\H,0
 ,33.3837401681,-29.7179586792,38.6167237841\H,0,30.7009507869,-31.0241
 627794,39.3510093237\H,0,31.1994946578,-30.774457152,37.6816626822\H,0
 ,29.7422878566,-28.9788024867,38.1888242048\H,0,31.3461315763,-28.2911
 656692,38.0919301397\H,0,29.7564696162,-28.8094996476,40.5548195245\H,
 0,32.4815703396,-26.9775401305,39.2166977958\H,0,32.0198680531,-27.306
 7924645,42.634451281\H,0,30.9135888758,-28.6262122553,42.516989966\\Ve
 rsion=ES64L-G16RevC.01\HF=-1486.5959756\RMSD=7.449e-09\Dipole=-0.68804
 21,0.6322274,-0.2857816\Quadrupole=-528.9447757,-1278.8519713,1807.796
 7471,-3683.0917504,5119.0232301,-4636.1512409\PG=C01 [X(C20H33N6O5)]\\
 @
 The archive entry for this job was punched.


 IF AT FIRST YOU DON'T SUCCEED, TRY LOOKING IN 
 THE WASTEBASKET FOR THE DIRECTIONS.
 Job cpu time:       0 days  0 hours  1 minutes  8.7 seconds.
 Elapsed time:       0 days  0 hours  0 minutes 17.6 seconds.
 File lengths (MBytes):  RWF=    264 Int=      0 D2E=      0 Chk=     40 Scr=     16
 Normal termination of Gaussian 16 at Tue May 31 11:31:55 2022.
