 Entering Gaussian System, Link 0=/opt/software/Gaussian/g16-AVX2-C.01/g16/g16
 Input=charge-conf-879.com
 Output=charge-conf-879.log
 Initial command:
 /opt/software/Gaussian/g16-AVX2-C.01/g16/l1.exe "/mnt/gs18/scratch/users/kengmith/Gau-26629.inp" -scrdir="/mnt/gs18/scratch/users/kengmith/"
 Entering Link 1 = /opt/software/Gaussian/g16-AVX2-C.01/g16/l1.exe PID=     26639.
  
 Copyright (c) 1988-2019, Gaussian, Inc.  All Rights Reserved.
  
 This is part of the Gaussian(R) 16 program.  It is based on
 the Gaussian(R) 09 system (copyright 2009, Gaussian, Inc.),
 the Gaussian(R) 03 system (copyright 2003, Gaussian, Inc.),
 the Gaussian(R) 98 system (copyright 1998, Gaussian, Inc.),
 the Gaussian(R) 94 system (copyright 1995, Gaussian, Inc.),
 the Gaussian 92(TM) system (copyright 1992, Gaussian, Inc.),
 the Gaussian 90(TM) system (copyright 1990, Gaussian, Inc.),
 the Gaussian 88(TM) system (copyright 1988, Gaussian, Inc.),
 the Gaussian 86(TM) system (copyright 1986, Carnegie Mellon
 University), and the Gaussian 82(TM) system (copyright 1983,
 Carnegie Mellon University). Gaussian is a federally registered
 trademark of Gaussian, Inc.
  
 This software contains proprietary and confidential information,
 including trade secrets, belonging to Gaussian, Inc.
  
 This software is provided under written license and may be
 used, copied, transmitted, or stored only in accord with that
 written license.
  
 The following legend is applicable only to US Government
 contracts under FAR:
  
                    RESTRICTED RIGHTS LEGEND
  
 Use, reproduction and disclosure by the US Government is
 subject to restrictions as set forth in subparagraphs (a)
 and (c) of the Commercial Computer Software - Restricted
 Rights clause in FAR 52.227-19.
  
 Gaussian, Inc.
 340 Quinnipiac St., Bldg. 40, Wallingford CT 06492
  
  
 ---------------------------------------------------------------
 Warning -- This program may not be used in any manner that
 competes with the business of Gaussian, Inc. or will provide
 assistance to any competitor of Gaussian, Inc.  The licensee
 of this program is prohibited from giving any competitor of
 Gaussian, Inc. access to this program.  By using this program,
 the user acknowledges that Gaussian, Inc. is engaged in the
 business of creating and licensing software in the field of
 computational chemistry and represents and warrants to the
 licensee that it is not a competitor of Gaussian, Inc. and that
 it will not use this program in any manner prohibited above.
 ---------------------------------------------------------------
  

 Cite this work as:
 Gaussian 16, Revision C.01,
 M. J. Frisch, G. W. Trucks, H. B. Schlegel, G. E. Scuseria, 
 M. A. Robb, J. R. Cheeseman, G. Scalmani, V. Barone, 
 G. A. Petersson, H. Nakatsuji, X. Li, M. Caricato, A. V. Marenich, 
 J. Bloino, B. G. Janesko, R. Gomperts, B. Mennucci, H. P. Hratchian, 
 J. V. Ortiz, A. F. Izmaylov, J. L. Sonnenberg, D. Williams-Young, 
 F. Ding, F. Lipparini, F. Egidi, J. Goings, B. Peng, A. Petrone, 
 T. Henderson, D. Ranasinghe, V. G. Zakrzewski, J. Gao, N. Rega, 
 G. Zheng, W. Liang, M. Hada, M. Ehara, K. Toyota, R. Fukuda, 
 J. Hasegawa, M. Ishida, T. Nakajima, Y. Honda, O. Kitao, H. Nakai, 
 T. Vreven, K. Throssell, J. A. Montgomery, Jr., J. E. Peralta, 
 F. Ogliaro, M. J. Bearpark, J. J. Heyd, E. N. Brothers, K. N. Kudin, 
 V. N. Staroverov, T. A. Keith, R. Kobayashi, J. Normand, 
 K. Raghavachari, A. P. Rendell, J. C. Burant, S. S. Iyengar, 
 J. Tomasi, M. Cossi, J. M. Millam, M. Klene, C. Adamo, R. Cammi, 
 J. W. Ochterski, R. L. Martin, K. Morokuma, O. Farkas, 
 J. B. Foresman, and D. J. Fox, Gaussian, Inc., Wallingford CT, 2019.
 
 ******************************************
 Gaussian 16:  ES64L-G16RevC.01  3-Jul-2019
                31-May-2022 
 ******************************************
 %mem=8gb
 %nproc=4
 Will use up to    4 processors via shared memory.
 %chk=conf-879.chk
 ----------------------------------------------------------------------
 # B3LYP/6-31G* empiricaldispersion=gd3 guess=read geom=check nosymm in
 tegral(ultrafinegrid)
 ----------------------------------------------------------------------
 1/29=2,38=1,172=1/1;
 2/12=2,15=1,40=1/2;
 3/5=1,6=6,7=1,11=2,14=-4,25=1,30=1,74=-5,75=-5,116=-2,124=31/1,2,3;
 4/5=1/1;
 5/5=2,38=6/2;
 6/7=2,8=2,9=2,10=2,28=1/1;
 99/5=1,9=1/99;
 ------------------------------------------------------
 Candidate Structure: Conf:879 Charge calc in gas phase
 ------------------------------------------------------
 Structure from the checkpoint file:  "conf-879.chk"
 Charge =  1 Multiplicity = 1
 Redundant internal coordinates found in file.  (old form).
 N,0,32.2405526617,-31.099431907,40.1751317061
 C,0,31.3437957908,-31.2295635096,41.3891876756
 C,0,32.1520870421,-32.2023799974,42.2760892005
 O,0,32.8524128649,-33.0385091994,41.7074604071
 C,0,31.0219121107,-29.8341382112,41.9504380207
 C,0,30.5962285185,-28.8707585898,40.8619715105
 C,0,31.4577737361,-27.8437192882,40.4428063855
 C,0,29.3665592628,-29.0162580914,40.204470557
 C,0,31.1081558224,-26.9857334144,39.4061189607
 C,0,29.003490184,-28.1657824517,39.1624923787
 C,0,29.8746096097,-27.1432469478,38.7572937159
 O,0,29.5951128423,-26.2779421829,37.7551378298
 H,0,31.7697695334,-30.5996597334,39.4137193934
 H,0,30.4329304683,-31.723211867,41.03606341
 H,0,30.2297263778,-29.9545628527,42.6999777502
 H,0,31.9059782599,-29.4434518746,42.4657277158
 H,0,32.4039849269,-27.6949180837,40.9592354458
 H,0,28.6698597084,-29.7914738089,40.5173541732
 H,0,31.7632282559,-26.1800456536,39.0918391831
 H,0,28.0403733038,-28.2865916348,38.6725263664
 H,0,28.7070658305,-26.4404836052,37.3983607351
 H,0,33.1024705229,-30.5855216449,40.4468473904
 H,0,32.5350782387,-32.0517620252,39.9082737083
 N,0,32.1422961002,-32.0200907528,43.609188391
 C,0,33.159824788,-32.6914349202,44.4321625664
 C,0,34.5784005688,-32.3061538761,43.9519028268
 O,0,35.4935700562,-33.1101861223,44.0441499496
 C,0,32.9271048246,-32.4046128396,45.9367229355
 C,0,33.083099739,-30.9192241126,46.3041765351
 C,0,33.8452409309,-33.2815536167,46.8003155873
 H,0,31.5204346935,-31.3475098802,44.0366651749
 H,0,33.0919550369,-33.7675551539,44.2555216184
 H,0,31.8875894156,-32.7038861769,46.1348137428
 H,0,32.8112755307,-30.7635177279,47.3522477575
 H,0,34.1191679403,-30.5867796794,46.178186681
 H,0,32.4416943857,-30.2533280932,45.7094391444
 H,0,33.7092175432,-34.3441551715,46.5760004255
 H,0,33.6219920911,-33.1246187959,47.860034046
 H,0,34.8994996548,-33.0410178087,46.632364662
 N,0,34.7152971224,-31.0407217861,43.4498950405
 C,0,35.9651146278,-30.4995740901,42.9462105771
 C,0,35.7840985097,-29.7011211631,41.6653547006
 O,0,36.6746936702,-29.1854222345,41.0492268828
 C,0,36.7000223371,-29.6031164096,43.979938038
 C,0,37.2482524713,-30.3648960192,45.1972085973
 C,0,38.5471665944,-31.1385289878,44.9365111408
 N,0,38.3551125549,-32.222365164,43.9823124762
 C,0,39.4693760387,-32.9669497726,43.5583512483
 N,0,40.7126428879,-32.7198165049,43.742115742
 N,0,39.084310376,-34.1142602149,42.8621614925
 O,0,34.4559090569,-29.5145656585,41.2465084512
 H,0,34.542991463,-28.8555199758,40.5276532776
 H,0,33.9497621915,-30.3946410034,43.5782747816
 H,0,36.6275923691,-31.3388214721,42.7089286065
 H,0,35.998534997,-28.8246492848,44.3109155789
 H,0,37.5209538005,-29.0964799553,43.462052441
 H,0,36.4848463299,-31.0426522891,45.6005807823
 H,0,37.4536673046,-29.6335530842,45.9876489059
 H,0,38.947116104,-31.5028182691,45.8972903587
 H,0,39.2930357652,-30.4472799074,44.5248128913
 H,0,37.5489921937,-32.8064782201,44.1926060419
 H,0,40.8651428703,-31.9411637374,44.3814756186
 H,0,39.8818285035,-34.5645249806,42.4281595248
 H,0,38.3125396482,-33.985237133,42.2175610498
 Recover connectivity data from disk.
                           ----------------------------
                           !    Current Parameters    !
                           ! (Angstroms and Degrees)  !
 --------------------------                            --------------------------
 ! Name  Definition              Value                                          !
 --------------------------------------------------------------------------------
 ! R1    R(1,2)                  1.5149                                         !
 ! R2    R(1,13)                 1.0253                                         !
 ! R3    R(1,22)                 1.0396                                         !
 ! R4    R(1,23)                 1.0319                                         !
 ! R5    R(2,3)                  1.5448                                         !
 ! R6    R(2,5)                  1.5381                                         !
 ! R7    R(2,14)                 1.0946                                         !
 ! R8    R(3,4)                  1.23                                           !
 ! R9    R(3,24)                 1.3455                                         !
 ! R10   R(5,6)                  1.5146                                         !
 ! R11   R(5,15)                 1.0972                                         !
 ! R12   R(5,16)                 1.0953                                         !
 ! R13   R(6,7)                  1.4046                                         !
 ! R14   R(6,8)                  1.402                                          !
 ! R15   R(7,9)                  1.3904                                         !
 ! R16   R(7,17)                 1.0882                                         !
 ! R17   R(8,10)                 1.3931                                         !
 ! R18   R(8,18)                 1.0882                                         !
 ! R19   R(9,11)                 1.4026                                         !
 ! R20   R(9,19)                 1.0849                                         !
 ! R21   R(10,11)                1.4031                                         !
 ! R22   R(10,20)                1.0873                                         !
 ! R23   R(11,12)                1.3532                                         !
 ! R24   R(12,21)                0.9707                                         !
 ! R25   R(24,25)                1.4708                                         !
 ! R26   R(24,31)                1.0108                                         !
 ! R27   R(25,26)                1.5464                                         !
 ! R28   R(25,28)                1.5492                                         !
 ! R29   R(25,32)                1.0926                                         !
 ! R30   R(26,27)                1.2217                                         !
 ! R31   R(26,40)                1.3682                                         !
 ! R32   R(28,29)                1.5381                                         !
 ! R33   R(28,30)                1.5355                                         !
 ! R34   R(28,33)                1.0997                                         !
 ! R35   R(29,34)                1.0939                                         !
 ! R36   R(29,35)                1.0954                                         !
 ! R37   R(29,36)                1.0993                                         !
 ! R38   R(30,37)                1.0945                                         !
 ! R39   R(30,38)                1.0943                                         !
 ! R40   R(30,39)                1.0943                                         !
 ! R41   R(40,41)                1.4521                                         !
 ! R42   R(40,53)                1.0099                                         !
 ! R43   R(41,42)                1.5202                                         !
 ! R44   R(41,44)                1.5532                                         !
 ! R45   R(41,54)                1.0952                                         !
 ! R46   R(42,43)                1.1995                                         !
 ! R47   R(42,51)                1.4051                                         !
 ! R48   R(44,45)                1.5371                                         !
 ! R49   R(44,55)                1.0989                                         !
 ! R50   R(44,56)                1.0949                                         !
 ! R51   R(45,46)                1.5342                                         !
 ! R52   R(45,57)                1.0977                                         !
 ! R53   R(45,58)                1.0963                                         !
 ! R54   R(46,47)                1.4567                                         !
 ! R55   R(46,59)                1.1026                                         !
 ! R56   R(46,60)                1.0971                                         !
 ! R57   R(47,48)                1.4056                                         !
 ! R58   R(47,61)                1.0175                                         !
 ! R59   R(48,49)                1.2808                                         !
 ! R60   R(48,50)                1.3962                                         !
 ! R61   R(49,62)                1.019                                          !
 ! R62   R(50,63)                1.0135                                         !
 ! R63   R(50,64)                1.0138                                         !
 ! R64   R(51,52)                0.9791                                         !
 ! A1    A(2,1,13)             111.4209                                         !
 ! A2    A(2,1,22)             108.891                                          !
 ! A3    A(2,1,23)             107.2723                                         !
 ! A4    A(13,1,22)            109.5013                                         !
 ! A5    A(13,1,23)            112.8837                                         !
 ! A6    A(22,1,23)            106.6874                                         !
 ! A7    A(1,2,3)              101.7984                                         !
 ! A8    A(1,2,5)              109.7775                                         !
 ! A9    A(1,2,14)             105.8308                                         !
 ! A10   A(3,2,5)              118.1206                                         !
 ! A11   A(3,2,14)             109.6722                                         !
 ! A12   A(5,2,14)             110.6545                                         !
 ! A13   A(2,3,4)              117.4251                                         !
 ! A14   A(2,3,24)             118.6659                                         !
 ! A15   A(4,3,24)             123.6599                                         !
 ! A16   A(2,5,6)              111.9399                                         !
 ! A17   A(2,5,15)             107.5051                                         !
 ! A18   A(2,5,16)             109.0473                                         !
 ! A19   A(6,5,15)             110.9663                                         !
 ! A20   A(6,5,16)             109.7583                                         !
 ! A21   A(15,5,16)            107.4887                                         !
 ! A22   A(5,6,7)              120.4754                                         !
 ! A23   A(5,6,8)              121.1663                                         !
 ! A24   A(7,6,8)              118.2898                                         !
 ! A25   A(6,7,9)              121.2995                                         !
 ! A26   A(6,7,17)             119.4539                                         !
 ! A27   A(9,7,17)             119.2174                                         !
 ! A28   A(6,8,10)             121.0636                                         !
 ! A29   A(6,8,18)             120.0408                                         !
 ! A30   A(10,8,18)            118.8864                                         !
 ! A31   A(7,9,11)             119.7853                                         !
 ! A32   A(7,9,19)             121.4961                                         !
 ! A33   A(11,9,19)            118.712                                          !
 ! A34   A(8,10,11)            119.9402                                         !
 ! A35   A(8,10,20)            120.0032                                         !
 ! A36   A(11,10,20)           120.0519                                         !
 ! A37   A(9,11,10)            119.6214                                         !
 ! A38   A(9,11,12)            116.898                                          !
 ! A39   A(10,11,12)           123.4806                                         !
 ! A40   A(11,12,21)           110.7361                                         !
 ! A41   A(3,24,25)            119.1754                                         !
 ! A42   A(3,24,31)            120.9037                                         !
 ! A43   A(25,24,31)           119.5161                                         !
 ! A44   A(24,25,26)           110.3114                                         !
 ! A45   A(24,25,28)           110.7916                                         !
 ! A46   A(24,25,32)           108.4279                                         !
 ! A47   A(26,25,28)           113.1585                                         !
 ! A48   A(26,25,32)           104.6048                                         !
 ! A49   A(28,25,32)           109.2696                                         !
 ! A50   A(25,26,27)           119.9836                                         !
 ! A51   A(25,26,40)           115.8584                                         !
 ! A52   A(27,26,40)           124.1553                                         !
 ! A53   A(25,28,29)           113.3016                                         !
 ! A54   A(25,28,30)           110.5267                                         !
 ! A55   A(25,28,33)           105.4586                                         !
 ! A56   A(29,28,30)           110.8874                                         !
 ! A57   A(29,28,33)           108.3997                                         !
 ! A58   A(30,28,33)           107.9673                                         !
 ! A59   A(28,29,34)           109.9475                                         !
 ! A60   A(28,29,35)           111.1955                                         !
 ! A61   A(28,29,36)           113.3628                                         !
 ! A62   A(34,29,35)           107.5804                                         !
 ! A63   A(34,29,36)           106.6866                                         !
 ! A64   A(35,29,36)           107.8063                                         !
 ! A65   A(28,30,37)           111.4005                                         !
 ! A66   A(28,30,38)           109.9229                                         !
 ! A67   A(28,30,39)           111.3583                                         !
 ! A68   A(37,30,38)           108.2009                                         !
 ! A69   A(37,30,39)           107.5581                                         !
 ! A70   A(38,30,39)           108.2793                                         !
 ! A71   A(26,40,41)           123.9209                                         !
 ! A72   A(26,40,53)           117.9813                                         !
 ! A73   A(41,40,53)           117.265                                          !
 ! A74   A(40,41,42)           112.6757                                         !
 ! A75   A(40,41,44)           113.0472                                         !
 ! A76   A(40,41,54)           108.0714                                         !
 ! A77   A(42,41,44)           108.2988                                         !
 ! A78   A(42,41,54)           106.9755                                         !
 ! A79   A(44,41,54)           107.4737                                         !
 ! A80   A(41,42,43)           124.7653                                         !
 ! A81   A(41,42,51)           115.6873                                         !
 ! A82   A(43,42,51)           119.4489                                         !
 ! A83   A(41,44,45)           114.192                                          !
 ! A84   A(41,44,55)           107.8956                                         !
 ! A85   A(41,44,56)           107.8807                                         !
 ! A86   A(45,44,55)           109.8913                                         !
 ! A87   A(45,44,56)           109.663                                          !
 ! A88   A(55,44,56)           107.0545                                         !
 ! A89   A(44,45,46)           114.6657                                         !
 ! A90   A(44,45,57)           110.4249                                         !
 ! A91   A(44,45,58)           107.8911                                         !
 ! A92   A(46,45,57)           109.8721                                         !
 ! A93   A(46,45,58)           107.4746                                         !
 ! A94   A(57,45,58)           106.097                                          !
 ! A95   A(45,46,47)           112.0163                                         !
 ! A96   A(45,46,59)           109.0045                                         !
 ! A97   A(45,46,60)           108.7625                                         !
 ! A98   A(47,46,59)           111.8867                                         !
 ! A99   A(47,46,60)           108.2164                                         !
 ! A100  A(59,46,60)           106.7712                                         !
 ! A101  A(46,47,48)           119.1555                                         !
 ! A102  A(46,47,61)           113.3408                                         !
 ! A103  A(48,47,61)           112.7242                                         !
 ! A104  A(47,48,49)           128.608                                          !
 ! A105  A(47,48,50)           111.5351                                         !
 ! A106  A(49,48,50)           119.8551                                         !
 ! A107  A(48,49,62)           112.5027                                         !
 ! A108  A(48,50,63)           111.198                                          !
 ! A109  A(48,50,64)           114.988                                          !
 ! A110  A(63,50,64)           112.539                                          !
 ! A111  A(42,51,52)           102.9528                                         !
 ! D1    D(13,1,2,3)           170.5735                                         !
 ! D2    D(13,1,2,5)           -63.4968                                         !
 ! D3    D(13,1,2,14)           55.9476                                         !
 ! D4    D(22,1,2,3)           -68.5449                                         !
 ! D5    D(22,1,2,5)            57.3848                                         !
 ! D6    D(22,1,2,14)          176.8292                                         !
 ! D7    D(23,1,2,3)            46.5572                                         !
 ! D8    D(23,1,2,5)           172.4869                                         !
 ! D9    D(23,1,2,14)          -68.0687                                         !
 ! D10   D(1,2,3,4)            -31.1865                                         !
 ! D11   D(1,2,3,24)           143.2917                                         !
 ! D12   D(5,2,3,4)           -151.4225                                         !
 ! D13   D(5,2,3,24)            23.0556                                         !
 ! D14   D(14,2,3,4)            80.5684                                         !
 ! D15   D(14,2,3,24)         -104.9535                                         !
 ! D16   D(1,2,5,6)             47.4189                                         !
 ! D17   D(1,2,5,15)           169.5279                                         !
 ! D18   D(1,2,5,16)           -74.2243                                         !
 ! D19   D(3,2,5,6)            163.4289                                         !
 ! D20   D(3,2,5,15)           -74.462                                          !
 ! D21   D(3,2,5,16)            41.7858                                         !
 ! D22   D(14,2,5,6)           -69.0274                                         !
 ! D23   D(14,2,5,15)           53.0817                                         !
 ! D24   D(14,2,5,16)          169.3295                                         !
 ! D25   D(2,3,24,25)         -164.1051                                         !
 ! D26   D(2,3,24,31)            8.5564                                         !
 ! D27   D(4,3,24,25)           10.0051                                         !
 ! D28   D(4,3,24,31)         -177.3333                                         !
 ! D29   D(2,5,6,7)           -107.2172                                         !
 ! D30   D(2,5,6,8)             69.7206                                         !
 ! D31   D(15,5,6,7)           132.6756                                         !
 ! D32   D(15,5,6,8)           -50.3866                                         !
 ! D33   D(16,5,6,7)            14.0163                                         !
 ! D34   D(16,5,6,8)          -169.0459                                         !
 ! D35   D(5,6,7,9)            177.2016                                         !
 ! D36   D(5,6,7,17)            -4.7821                                         !
 ! D37   D(8,6,7,9)              0.1772                                         !
 ! D38   D(8,6,7,17)           178.1935                                         !
 ! D39   D(5,6,8,10)          -177.0619                                         !
 ! D40   D(5,6,8,18)             4.0556                                         !
 ! D41   D(7,6,8,10)            -0.059                                          !
 ! D42   D(7,6,8,18)          -178.9415                                         !
 ! D43   D(6,7,9,11)            -0.1861                                         !
 ! D44   D(6,7,9,19)           178.8629                                         !
 ! D45   D(17,7,9,11)         -178.2071                                         !
 ! D46   D(17,7,9,19)            0.842                                          !
 ! D47   D(6,8,10,11)           -0.0483                                         !
 ! D48   D(6,8,10,20)         -179.2604                                         !
 ! D49   D(18,8,10,11)         178.8469                                         !
 ! D50   D(18,8,10,20)          -0.3652                                         !
 ! D51   D(7,9,11,10)            0.0744                                         !
 ! D52   D(7,9,11,12)         -179.8783                                         !
 ! D53   D(19,9,11,10)        -179.0011                                         !
 ! D54   D(19,9,11,12)           1.0462                                         !
 ! D55   D(8,10,11,9)            0.0412                                         !
 ! D56   D(8,10,11,12)         179.9906                                         !
 ! D57   D(20,10,11,9)         179.2529                                         !
 ! D58   D(20,10,11,12)         -0.7977                                         !
 ! D59   D(9,11,12,21)        -177.3605                                         !
 ! D60   D(10,11,12,21)          2.6889                                         !
 ! D61   D(3,24,25,26)          56.6778                                         !
 ! D62   D(3,24,25,28)        -177.2289                                         !
 ! D63   D(3,24,25,32)         -57.3218                                         !
 ! D64   D(31,24,25,26)       -116.0871                                         !
 ! D65   D(31,24,25,28)         10.0062                                         !
 ! D66   D(31,24,25,32)        129.9133                                         !
 ! D67   D(24,25,26,27)       -147.8044                                         !
 ! D68   D(24,25,26,40)         32.7696                                         !
 ! D69   D(28,25,26,27)         87.4452                                         !
 ! D70   D(28,25,26,40)        -91.9808                                         !
 ! D71   D(32,25,26,27)        -31.3956                                         !
 ! D72   D(32,25,26,40)        149.1784                                         !
 ! D73   D(24,25,28,29)        -63.9272                                         !
 ! D74   D(24,25,28,30)        170.919                                          !
 ! D75   D(24,25,28,33)         54.4768                                         !
 ! D76   D(26,25,28,29)         60.5624                                         !
 ! D77   D(26,25,28,30)        -64.5914                                         !
 ! D78   D(26,25,28,33)        178.9664                                         !
 ! D79   D(32,25,28,29)        176.6704                                         !
 ! D80   D(32,25,28,30)         51.5165                                         !
 ! D81   D(32,25,28,33)        -64.9256                                         !
 ! D82   D(25,26,40,41)       -179.7507                                         !
 ! D83   D(25,26,40,53)         11.0037                                         !
 ! D84   D(27,26,40,41)          0.8502                                         !
 ! D85   D(27,26,40,53)       -168.3955                                         !
 ! D86   D(25,28,29,34)        174.4022                                         !
 ! D87   D(25,28,29,35)        -66.5607                                         !
 ! D88   D(25,28,29,36)         55.0934                                         !
 ! D89   D(30,28,29,34)        -60.6382                                         !
 ! D90   D(30,28,29,35)         58.3988                                         !
 ! D91   D(30,28,29,36)       -179.9471                                         !
 ! D92   D(33,28,29,34)         57.7148                                         !
 ! D93   D(33,28,29,35)        176.7518                                         !
 ! D94   D(33,28,29,36)        -61.594                                          !
 ! D95   D(25,28,30,37)        -55.9626                                         !
 ! D96   D(25,28,30,38)       -175.8886                                         !
 ! D97   D(25,28,30,39)         64.1144                                         !
 ! D98   D(29,28,30,37)        177.5261                                         !
 ! D99   D(29,28,30,38)         57.6001                                         !
 ! D100  D(29,28,30,39)        -62.3969                                         !
 ! D101  D(33,28,30,37)         58.9113                                         !
 ! D102  D(33,28,30,38)        -61.0147                                         !
 ! D103  D(33,28,30,39)        178.9883                                         !
 ! D104  D(26,40,41,42)        137.8739                                         !
 ! D105  D(26,40,41,44)        -98.9272                                         !
 ! D106  D(26,40,41,54)         19.8934                                         !
 ! D107  D(53,40,41,42)        -52.8095                                         !
 ! D108  D(53,40,41,44)         70.3894                                         !
 ! D109  D(53,40,41,54)       -170.79                                           !
 ! D110  D(40,41,42,43)       -178.2365                                         !
 ! D111  D(40,41,42,51)          5.4088                                         !
 ! D112  D(44,41,42,43)         55.9568                                         !
 ! D113  D(44,41,42,51)       -120.3979                                         !
 ! D114  D(54,41,42,43)        -59.6134                                         !
 ! D115  D(54,41,42,51)        124.0319                                         !
 ! D116  D(40,41,44,45)         68.1175                                         !
 ! D117  D(40,41,44,55)        -54.3638                                         !
 ! D118  D(40,41,44,56)       -169.7051                                         !
 ! D119  D(42,41,44,45)       -166.2939                                         !
 ! D120  D(42,41,44,55)         71.2248                                         !
 ! D121  D(42,41,44,56)        -44.1165                                         !
 ! D122  D(54,41,44,45)        -51.0488                                         !
 ! D123  D(54,41,44,55)       -173.5301                                         !
 ! D124  D(54,41,44,56)         71.1286                                         !
 ! D125  D(41,42,51,52)        169.8136                                         !
 ! D126  D(43,42,51,52)         -6.7478                                         !
 ! D127  D(41,44,45,46)         77.8437                                         !
 ! D128  D(41,44,45,57)        -46.9174                                         !
 ! D129  D(41,44,45,58)       -162.4556                                         !
 ! D130  D(55,44,45,46)       -160.771                                          !
 ! D131  D(55,44,45,57)         74.4679                                         !
 ! D132  D(55,44,45,58)        -41.0703                                         !
 ! D133  D(56,44,45,46)        -43.3523                                         !
 ! D134  D(56,44,45,57)       -168.1134                                         !
 ! D135  D(56,44,45,58)         76.3484                                         !
 ! D136  D(44,45,46,47)        -65.1937                                         !
 ! D137  D(44,45,46,59)        170.4358                                         !
 ! D138  D(44,45,46,60)         54.3759                                         !
 ! D139  D(57,45,46,47)         59.8581                                         !
 ! D140  D(57,45,46,59)        -64.5125                                         !
 ! D141  D(57,45,46,60)        179.4276                                         !
 ! D142  D(58,45,46,47)        174.874                                          !
 ! D143  D(58,45,46,59)         50.5034                                         !
 ! D144  D(58,45,46,60)        -65.5565                                         !
 ! D145  D(45,46,47,48)        175.3219                                         !
 ! D146  D(45,46,47,61)        -48.4177                                         !
 ! D147  D(59,46,47,48)        -61.9275                                         !
 ! D148  D(59,46,47,61)         74.3329                                         !
 ! D149  D(60,46,47,48)         55.4325                                         !
 ! D150  D(60,46,47,61)       -168.3071                                         !
 ! D151  D(46,47,48,49)        -11.1697                                         !
 ! D152  D(46,47,48,50)        168.334                                          !
 ! D153  D(61,47,48,49)       -147.6799                                         !
 ! D154  D(61,47,48,50)         31.8238                                         !
 ! D155  D(47,48,49,62)          8.3869                                         !
 ! D156  D(50,48,49,62)       -171.0808                                         !
 ! D157  D(47,48,50,63)        170.592                                          !
 ! D158  D(47,48,50,64)         41.221                                          !
 ! D159  D(49,48,50,63)         -9.8552                                         !
 ! D160  D(49,48,50,64)       -139.2262                                         !
 --------------------------------------------------------------------------------
 Symmetry turned off by external request.
 Stoichiometry    C20H33N6O5(1+)
 Framework group  C1[X(C20H33N6O5)]
 Deg. of freedom   186
 Full point group                 C1      NOp   1
                          Input orientation:                          
 ---------------------------------------------------------------------
 Center     Atomic      Atomic             Coordinates (Angstroms)
 Number     Number       Type             X           Y           Z
 ---------------------------------------------------------------------
      1          7           0       32.240553  -31.099432   40.175132
      2          6           0       31.343796  -31.229564   41.389188
      3          6           0       32.152087  -32.202380   42.276089
      4          8           0       32.852413  -33.038509   41.707460
      5          6           0       31.021912  -29.834138   41.950438
      6          6           0       30.596229  -28.870759   40.861972
      7          6           0       31.457774  -27.843719   40.442806
      8          6           0       29.366559  -29.016258   40.204471
      9          6           0       31.108156  -26.985733   39.406119
     10          6           0       29.003490  -28.165782   39.162492
     11          6           0       29.874610  -27.143247   38.757294
     12          8           0       29.595113  -26.277942   37.755138
     13          1           0       31.769770  -30.599660   39.413719
     14          1           0       30.432930  -31.723212   41.036063
     15          1           0       30.229726  -29.954563   42.699978
     16          1           0       31.905978  -29.443452   42.465728
     17          1           0       32.403985  -27.694918   40.959235
     18          1           0       28.669860  -29.791474   40.517354
     19          1           0       31.763228  -26.180046   39.091839
     20          1           0       28.040373  -28.286592   38.672526
     21          1           0       28.707066  -26.440484   37.398361
     22          1           0       33.102471  -30.585522   40.446847
     23          1           0       32.535078  -32.051762   39.908274
     24          7           0       32.142296  -32.020091   43.609188
     25          6           0       33.159825  -32.691435   44.432163
     26          6           0       34.578401  -32.306154   43.951903
     27          8           0       35.493570  -33.110186   44.044150
     28          6           0       32.927105  -32.404613   45.936723
     29          6           0       33.083100  -30.919224   46.304177
     30          6           0       33.845241  -33.281554   46.800316
     31          1           0       31.520435  -31.347510   44.036665
     32          1           0       33.091955  -33.767555   44.255522
     33          1           0       31.887589  -32.703886   46.134814
     34          1           0       32.811276  -30.763518   47.352248
     35          1           0       34.119168  -30.586780   46.178187
     36          1           0       32.441694  -30.253328   45.709439
     37          1           0       33.709218  -34.344155   46.576000
     38          1           0       33.621992  -33.124619   47.860034
     39          1           0       34.899500  -33.041018   46.632365
     40          7           0       34.715297  -31.040722   43.449895
     41          6           0       35.965115  -30.499574   42.946211
     42          6           0       35.784099  -29.701121   41.665355
     43          8           0       36.674694  -29.185422   41.049227
     44          6           0       36.700022  -29.603116   43.979938
     45          6           0       37.248252  -30.364896   45.197209
     46          6           0       38.547167  -31.138529   44.936511
     47          7           0       38.355113  -32.222365   43.982312
     48          6           0       39.469376  -32.966950   43.558351
     49          7           0       40.712643  -32.719817   43.742116
     50          7           0       39.084310  -34.114260   42.862161
     51          8           0       34.455909  -29.514566   41.246508
     52          1           0       34.542991  -28.855520   40.527653
     53          1           0       33.949762  -30.394641   43.578275
     54          1           0       36.627592  -31.338821   42.708929
     55          1           0       35.998535  -28.824649   44.310916
     56          1           0       37.520954  -29.096480   43.462052
     57          1           0       36.484846  -31.042652   45.600581
     58          1           0       37.453667  -29.633553   45.987649
     59          1           0       38.947116  -31.502818   45.897290
     60          1           0       39.293036  -30.447280   44.524813
     61          1           0       37.548992  -32.806478   44.192606
     62          1           0       40.865143  -31.941164   44.381476
     63          1           0       39.881829  -34.564525   42.428160
     64          1           0       38.312540  -33.985237   42.217561
 ---------------------------------------------------------------------
 Rotational constants (GHZ):           0.2316854           0.0719603           0.0629371
 Standard basis: 6-31G(d) (6D, 7F)
   531 basis functions,  1000 primitive gaussians,   531 cartesian basis functions
   117 alpha electrons      117 beta electrons
       nuclear repulsion energy      3318.0647993347 Hartrees.
 NAtoms=   64 NActive=   64 NUniq=   64 SFac= 1.00D+00 NAtFMM=   60 NAOKFM=T Big=T
 Integral buffers will be    131072 words long.
 Raffenetti 2 integral format.
 Two-electron integral symmetry is turned off.
 Nuclear repulsion after empirical dispersion term =     3317.9807383059 Hartrees.
 One-electron integrals computed using PRISM.
 NBasis=   531 RedAO= T EigKep=  4.37D-04  NBF=   531
 NBsUse=   531 1.00D-06 EigRej= -1.00D+00 NBFU=   531
 Initial guess from the checkpoint file:  "conf-879.chk"
 B after Tr=     0.000000    0.000000    0.000000
         Rot=    1.000000    0.000000    0.000000    0.000000 Ang=   0.00 deg.
 Requested convergence on RMS density matrix=1.00D-08 within 128 cycles.
 Requested convergence on MAX density matrix=1.00D-06.
 Requested convergence on             energy=1.00D-06.
 No special actions if energy rises.
 SCF Done:  E(RB3LYP) =  -1486.52817912     A.U. after    3 cycles
            NFock=  3  Conv=0.78D-09     -V/T= 2.0094

 **********************************************************************

            Population analysis using the SCF Density.

 **********************************************************************

 Alpha  occ. eigenvalues --  -19.34704 -19.29382 -19.27560 -19.27423 -19.23558
 Alpha  occ. eigenvalues --  -14.60720 -14.51591 -14.48573 -14.40371 -14.38707
 Alpha  occ. eigenvalues --  -14.33296 -10.45472 -10.44804 -10.42037 -10.40966
 Alpha  occ. eigenvalues --  -10.37575 -10.35813 -10.35777 -10.35649 -10.33058
 Alpha  occ. eigenvalues --  -10.32783 -10.32536 -10.32507 -10.31725 -10.31648
 Alpha  occ. eigenvalues --  -10.31102 -10.29699 -10.29421 -10.29288 -10.28070
 Alpha  occ. eigenvalues --  -10.27229  -1.24134  -1.20307  -1.17756  -1.15728
 Alpha  occ. eigenvalues --   -1.15503  -1.14860  -1.08026  -1.04932  -1.02556
 Alpha  occ. eigenvalues --   -0.99011  -0.94872  -0.94341  -0.92370  -0.90095
 Alpha  occ. eigenvalues --   -0.88762  -0.87817  -0.87693  -0.84775  -0.82855
 Alpha  occ. eigenvalues --   -0.80967  -0.79322  -0.77340  -0.75883  -0.75264
 Alpha  occ. eigenvalues --   -0.74930  -0.73705  -0.72617  -0.72034  -0.71188
 Alpha  occ. eigenvalues --   -0.69692  -0.69103  -0.67077  -0.66762  -0.65058
 Alpha  occ. eigenvalues --   -0.64266  -0.63812  -0.62210  -0.61957  -0.61397
 Alpha  occ. eigenvalues --   -0.59933  -0.59694  -0.59184  -0.59000  -0.58124
 Alpha  occ. eigenvalues --   -0.57419  -0.56955  -0.56738  -0.56274  -0.55532
 Alpha  occ. eigenvalues --   -0.55279  -0.55065  -0.54716  -0.54319  -0.53753
 Alpha  occ. eigenvalues --   -0.53005  -0.52641  -0.52067  -0.51599  -0.50789
 Alpha  occ. eigenvalues --   -0.50515  -0.49823  -0.49625  -0.49156  -0.48882
 Alpha  occ. eigenvalues --   -0.48615  -0.47631  -0.46436  -0.46227  -0.45874
 Alpha  occ. eigenvalues --   -0.45428  -0.45310  -0.45203  -0.44661  -0.44286
 Alpha  occ. eigenvalues --   -0.42882  -0.41945  -0.41761  -0.41323  -0.41137
 Alpha  occ. eigenvalues --   -0.38302  -0.37447  -0.36486  -0.34511  -0.31222
 Alpha  occ. eigenvalues --   -0.30429  -0.28069
 Alpha virt. eigenvalues --   -0.14900  -0.13543  -0.12849  -0.12293  -0.09923
 Alpha virt. eigenvalues --   -0.09527  -0.07864  -0.07108  -0.04630  -0.04278
 Alpha virt. eigenvalues --   -0.03791  -0.03423  -0.02314  -0.01633  -0.00492
 Alpha virt. eigenvalues --   -0.00137   0.00154   0.00711   0.01373   0.01949
 Alpha virt. eigenvalues --    0.02049   0.02508   0.03035   0.03447   0.03621
 Alpha virt. eigenvalues --    0.04084   0.04741   0.04959   0.05596   0.06123
 Alpha virt. eigenvalues --    0.06520   0.07205   0.07374   0.07649   0.08209
 Alpha virt. eigenvalues --    0.08482   0.08684   0.09161   0.09697   0.09800
 Alpha virt. eigenvalues --    0.10776   0.11144   0.11407   0.11549   0.11799
 Alpha virt. eigenvalues --    0.12455   0.12881   0.13141   0.13721   0.14284
 Alpha virt. eigenvalues --    0.14846   0.15872   0.16828   0.17660   0.19019
 Alpha virt. eigenvalues --    0.19548   0.20090   0.20648   0.21099   0.21660
 Alpha virt. eigenvalues --    0.21935   0.23249   0.23517   0.24165   0.25912
 Alpha virt. eigenvalues --    0.28507   0.29223   0.31391   0.33265   0.34664
 Alpha virt. eigenvalues --    0.36395   0.37020   0.37305   0.37835   0.38610
 Alpha virt. eigenvalues --    0.39992   0.40378   0.40595   0.41406   0.41608
 Alpha virt. eigenvalues --    0.41841   0.42524   0.43197   0.43940   0.44226
 Alpha virt. eigenvalues --    0.44909   0.45778   0.46064   0.46210   0.47441
 Alpha virt. eigenvalues --    0.47995   0.48326   0.48609   0.48956   0.49217
 Alpha virt. eigenvalues --    0.49455   0.49851   0.50305   0.51203   0.51822
 Alpha virt. eigenvalues --    0.52639   0.53096   0.53444   0.54188   0.54835
 Alpha virt. eigenvalues --    0.55296   0.56002   0.56577   0.57226   0.58002
 Alpha virt. eigenvalues --    0.58286   0.58665   0.58821   0.59129   0.60108
 Alpha virt. eigenvalues --    0.61078   0.62047   0.62546   0.63460   0.64107
 Alpha virt. eigenvalues --    0.64522   0.64907   0.65012   0.65890   0.66585
 Alpha virt. eigenvalues --    0.67015   0.67798   0.68165   0.69130   0.69481
 Alpha virt. eigenvalues --    0.70024   0.70071   0.70567   0.71285   0.71914
 Alpha virt. eigenvalues --    0.72209   0.72636   0.72970   0.73970   0.74243
 Alpha virt. eigenvalues --    0.74533   0.75182   0.76031   0.76270   0.76718
 Alpha virt. eigenvalues --    0.76925   0.77770   0.77978   0.78965   0.79274
 Alpha virt. eigenvalues --    0.79514   0.79856   0.80334   0.81265   0.81372
 Alpha virt. eigenvalues --    0.82230   0.82667   0.82935   0.83542   0.84034
 Alpha virt. eigenvalues --    0.84144   0.84842   0.85036   0.85195   0.85368
 Alpha virt. eigenvalues --    0.85699   0.86170   0.86781   0.87296   0.87350
 Alpha virt. eigenvalues --    0.88658   0.89388   0.89729   0.90419   0.91103
 Alpha virt. eigenvalues --    0.91957   0.92841   0.93995   0.94575   0.95294
 Alpha virt. eigenvalues --    0.95826   0.96585   0.97094   0.98113   0.98990
 Alpha virt. eigenvalues --    1.00372   1.01032   1.01279   1.02961   1.03656
 Alpha virt. eigenvalues --    1.04851   1.05722   1.06290   1.06745   1.07988
 Alpha virt. eigenvalues --    1.08888   1.09507   1.10720   1.11676   1.12618
 Alpha virt. eigenvalues --    1.13280   1.14391   1.16624   1.17616   1.18866
 Alpha virt. eigenvalues --    1.19707   1.20753   1.21537   1.21632   1.24000
 Alpha virt. eigenvalues --    1.24430   1.24955   1.26625   1.28182   1.30070
 Alpha virt. eigenvalues --    1.31161   1.31402   1.32600   1.32710   1.33499
 Alpha virt. eigenvalues --    1.34199   1.34821   1.35735   1.36380   1.37598
 Alpha virt. eigenvalues --    1.38226   1.38824   1.39147   1.41466   1.42462
 Alpha virt. eigenvalues --    1.43481   1.43989   1.45896   1.47766   1.48875
 Alpha virt. eigenvalues --    1.51273   1.52611   1.54654   1.56043   1.57316
 Alpha virt. eigenvalues --    1.57758   1.58427   1.59845   1.60622   1.61842
 Alpha virt. eigenvalues --    1.62141   1.62321   1.63172   1.63389   1.63566
 Alpha virt. eigenvalues --    1.64720   1.65410   1.66135   1.66577   1.67302
 Alpha virt. eigenvalues --    1.68409   1.69168   1.69659   1.69715   1.71521
 Alpha virt. eigenvalues --    1.72173   1.72784   1.73018   1.74083   1.74516
 Alpha virt. eigenvalues --    1.75580   1.76211   1.77294   1.77510   1.77887
 Alpha virt. eigenvalues --    1.79632   1.80113   1.80553   1.81251   1.81847
 Alpha virt. eigenvalues --    1.82702   1.82970   1.83768   1.84049   1.84609
 Alpha virt. eigenvalues --    1.85569   1.86475   1.87310   1.87607   1.88156
 Alpha virt. eigenvalues --    1.88991   1.90726   1.91418   1.93077   1.93566
 Alpha virt. eigenvalues --    1.94333   1.94637   1.95402   1.95551   1.96454
 Alpha virt. eigenvalues --    1.96840   1.97946   1.98511   1.99081   2.01162
 Alpha virt. eigenvalues --    2.01529   2.02108   2.02736   2.02984   2.03784
 Alpha virt. eigenvalues --    2.05277   2.08554   2.09432   2.11672   2.11840
 Alpha virt. eigenvalues --    2.12214   2.13623   2.14603   2.15232   2.15582
 Alpha virt. eigenvalues --    2.16311   2.17535   2.18511   2.18630   2.20545
 Alpha virt. eigenvalues --    2.23074   2.23723   2.24252   2.24612   2.25065
 Alpha virt. eigenvalues --    2.26570   2.26984   2.28114   2.28441   2.29917
 Alpha virt. eigenvalues --    2.31321   2.31596   2.32482   2.34339   2.35130
 Alpha virt. eigenvalues --    2.36052   2.36433   2.38079   2.38911   2.42621
 Alpha virt. eigenvalues --    2.43518   2.44307   2.45265   2.45981   2.47000
 Alpha virt. eigenvalues --    2.47203   2.48305   2.49520   2.51283   2.52481
 Alpha virt. eigenvalues --    2.53498   2.54112   2.54573   2.56214   2.57061
 Alpha virt. eigenvalues --    2.57658   2.58830   2.60842   2.61419   2.61696
 Alpha virt. eigenvalues --    2.62824   2.63282   2.65061   2.65948   2.67001
 Alpha virt. eigenvalues --    2.68417   2.71468   2.73057   2.75668   2.76750
 Alpha virt. eigenvalues --    2.78846   2.81507   2.84087   2.87978   2.88650
 Alpha virt. eigenvalues --    2.94247   2.97296   2.98772   3.00108   3.00697
 Alpha virt. eigenvalues --    3.03507   3.06538   3.28473   3.70165   3.76891
 Alpha virt. eigenvalues --    3.77722   3.82879   3.87507   3.91577   3.92982
 Alpha virt. eigenvalues --    3.94997   3.98237   3.99710   4.00027   4.04156
 Alpha virt. eigenvalues --    4.07441   4.10445   4.10690   4.13759   4.15381
 Alpha virt. eigenvalues --    4.18076   4.20520   4.22789   4.23881   4.26727
 Alpha virt. eigenvalues --    4.31903   4.34919   4.36843   4.46317   4.47277
 Alpha virt. eigenvalues --    4.49713   4.57607   4.62632   4.63467
          Condensed to atoms (all electrons):
 Mulliken charges:
               1
     1  N   -0.758336
     2  C   -0.119280
     3  C    0.659650
     4  O   -0.511308
     5  C   -0.396631
     6  C    0.118709
     7  C   -0.222868
     8  C   -0.199203
     9  C   -0.150669
    10  C   -0.185408
    11  C    0.362506
    12  O   -0.615101
    13  H    0.411969
    14  H    0.231884
    15  H    0.193874
    16  H    0.177904
    17  H    0.138279
    18  H    0.149320
    19  H    0.176633
    20  H    0.159319
    21  H    0.426739
    22  H    0.434933
    23  H    0.426645
    24  N   -0.651184
    25  C   -0.022558
    26  C    0.627829
    27  O   -0.503930
    28  C   -0.127249
    29  C   -0.479586
    30  C   -0.454706
    31  H    0.354871
    32  H    0.215867
    33  H    0.157280
    34  H    0.188774
    35  H    0.170471
    36  H    0.116007
    37  H    0.171443
    38  H    0.168233
    39  H    0.175904
    40  N   -0.610688
    41  C   -0.072637
    42  C    0.601331
    43  O   -0.402588
    44  C   -0.268856
    45  C   -0.307801
    46  C   -0.129749
    47  N   -0.646184
    48  C    0.580688
    49  N   -0.639747
    50  N   -0.745854
    51  O   -0.640041
    52  H    0.424888
    53  H    0.334286
    54  H    0.246810
    55  H    0.136568
    56  H    0.192738
    57  H    0.152431
    58  H    0.163413
    59  H    0.154928
    60  H    0.160786
    61  H    0.365717
    62  H    0.279997
    63  H    0.340597
    64  H    0.311942
 Sum of Mulliken charges =   1.00000
 Mulliken charges with hydrogens summed into heavy atoms:
               1
     1  N    0.515210
     2  C    0.112603
     3  C    0.659650
     4  O   -0.511308
     5  C   -0.024853
     6  C    0.118709
     7  C   -0.084589
     8  C   -0.049883
     9  C    0.025964
    10  C   -0.026089
    11  C    0.362506
    12  O   -0.188362
    24  N   -0.296314
    25  C    0.193309
    26  C    0.627829
    27  O   -0.503930
    28  C    0.030031
    29  C   -0.004334
    30  C    0.060875
    40  N   -0.276403
    41  C    0.174173
    42  C    0.601331
    43  O   -0.402588
    44  C    0.060451
    45  C    0.008043
    46  C    0.185965
    47  N   -0.280467
    48  C    0.580688
    49  N   -0.359750
    50  N   -0.093315
    51  O   -0.215152
 Electronic spatial extent (au):  <R**2>=        3290522.2773
 Charge=              1.0000 electrons
 Dipole moment (field-independent basis, Debye):
    X=            147.6322    Y=           -143.0990    Z=            199.4934  Tot=            286.4790
 Quadrupole moment (field-independent basis, Debye-Ang):
   XX=           4328.6255   YY=           4079.4284   ZZ=           8153.3990
   XY=          -4380.5596   XZ=           6146.8606   YZ=          -5946.3883
 Traceless Quadrupole moment (field-independent basis, Debye-Ang):
   XX=          -1191.8589   YY=          -1441.0559   ZZ=           2632.9147
   XY=          -4380.5596   XZ=           6146.8606   YZ=          -5946.3883
 Octapole moment (field-independent basis, Debye-Ang**2):
  XXX=         117796.0908  YYY=        -110037.3212  ZZZ=         327159.3272  XYY=         123634.4805
  XXY=        -127442.3504  XXZ=         180470.5878  XZZ=         251332.6182  YZZ=        -243015.3926
  YYZ=         169372.0676  XYZ=        -182379.9296
 Hexadecapole moment (field-independent basis, Debye-Ang**3):
 XXXX=        2776475.7719 YYYY=        2734237.4115 ZZZZ=       12835708.3360 XXXY=       -3413693.2532
 XXXZ=        4908174.0444 YYYX=       -3268963.4395 YYYZ=       -4554353.8706 ZZZX=       10064221.1712
 ZZZY=       -9742536.2721 XXYY=        3529731.0735 XXZZ=        7361819.8914 YYZZ=        6904143.9915
 XXYZ=       -5308483.6844 YYXZ=        5138645.2101 ZZXY=       -7450639.0628
 N-N= 3.317980738306D+03 E-N=-1.007045648617D+04  KE= 1.472662638346D+03
 Unable to Open any file for archive entry.
 1\1\GINC-LAC-250\SP\RB3LYP\6-31G(d)\C20H33N6O5(1+)\KENGMITH\31-May-202
 2\0\\# B3LYP/6-31G* empiricaldispersion=gd3 guess=read geom=check nosy
 mm integral(ultrafinegrid)\\Candidate Structure: Conf:879 Charge calc 
 in gas phase\\1,1\N,0,32.2405526617,-31.099431907,40.1751317061\C,0,31
 .3437957908,-31.2295635096,41.3891876756\C,0,32.1520870421,-32.2023799
 974,42.2760892005\O,0,32.8524128649,-33.0385091994,41.7074604071\C,0,3
 1.0219121107,-29.8341382112,41.9504380207\C,0,30.5962285185,-28.870758
 5898,40.8619715105\C,0,31.4577737361,-27.8437192882,40.4428063855\C,0,
 29.3665592628,-29.0162580914,40.204470557\C,0,31.1081558224,-26.985733
 4144,39.4061189607\C,0,29.003490184,-28.1657824517,39.1624923787\C,0,2
 9.8746096097,-27.1432469478,38.7572937159\O,0,29.5951128423,-26.277942
 1829,37.7551378298\H,0,31.7697695334,-30.5996597334,39.4137193934\H,0,
 30.4329304683,-31.723211867,41.03606341\H,0,30.2297263778,-29.95456285
 27,42.6999777502\H,0,31.9059782599,-29.4434518746,42.4657277158\H,0,32
 .4039849269,-27.6949180837,40.9592354458\H,0,28.6698597084,-29.7914738
 089,40.5173541732\H,0,31.7632282559,-26.1800456536,39.0918391831\H,0,2
 8.0403733038,-28.2865916348,38.6725263664\H,0,28.7070658305,-26.440483
 6052,37.3983607351\H,0,33.1024705229,-30.5855216449,40.4468473904\H,0,
 32.5350782387,-32.0517620252,39.9082737083\N,0,32.1422961002,-32.02009
 07528,43.609188391\C,0,33.159824788,-32.6914349202,44.4321625664\C,0,3
 4.5784005688,-32.3061538761,43.9519028268\O,0,35.4935700562,-33.110186
 1223,44.0441499496\C,0,32.9271048246,-32.4046128396,45.9367229355\C,0,
 33.083099739,-30.9192241126,46.3041765351\C,0,33.8452409309,-33.281553
 6167,46.8003155873\H,0,31.5204346935,-31.3475098802,44.0366651749\H,0,
 33.0919550369,-33.7675551539,44.2555216184\H,0,31.8875894156,-32.70388
 61769,46.1348137428\H,0,32.8112755307,-30.7635177279,47.3522477575\H,0
 ,34.1191679403,-30.5867796794,46.178186681\H,0,32.4416943857,-30.25332
 80932,45.7094391444\H,0,33.7092175432,-34.3441551715,46.5760004255\H,0
 ,33.6219920911,-33.1246187959,47.860034046\H,0,34.8994996548,-33.04101
 78087,46.632364662\N,0,34.7152971224,-31.0407217861,43.4498950405\C,0,
 35.9651146278,-30.4995740901,42.9462105771\C,0,35.7840985097,-29.70112
 11631,41.6653547006\O,0,36.6746936702,-29.1854222345,41.0492268828\C,0
 ,36.7000223371,-29.6031164096,43.979938038\C,0,37.2482524713,-30.36489
 60192,45.1972085973\C,0,38.5471665944,-31.1385289878,44.9365111408\N,0
 ,38.3551125549,-32.222365164,43.9823124762\C,0,39.4693760387,-32.96694
 97726,43.5583512483\N,0,40.7126428879,-32.7198165049,43.742115742\N,0,
 39.084310376,-34.1142602149,42.8621614925\O,0,34.4559090569,-29.514565
 6585,41.2465084512\H,0,34.542991463,-28.8555199758,40.5276532776\H,0,3
 3.9497621915,-30.3946410034,43.5782747816\H,0,36.6275923691,-31.338821
 4721,42.7089286065\H,0,35.998534997,-28.8246492848,44.3109155789\H,0,3
 7.5209538005,-29.0964799553,43.462052441\H,0,36.4848463299,-31.0426522
 891,45.6005807823\H,0,37.4536673046,-29.6335530842,45.9876489059\H,0,3
 8.947116104,-31.5028182691,45.8972903587\H,0,39.2930357652,-30.4472799
 074,44.5248128913\H,0,37.5489921937,-32.8064782201,44.1926060419\H,0,4
 0.8651428703,-31.9411637374,44.3814756186\H,0,39.8818285035,-34.564524
 9806,42.4281595248\H,0,38.3125396482,-33.985237133,42.2175610498\\Vers
 ion=ES64L-G16RevC.01\HF=-1486.5281791\RMSD=7.791e-10\Dipole=-6.2626598
 ,1.7727029,-1.9535582\Quadrupole=-886.1178474,-1071.3897128,1957.50756
 02,-3256.8386782,4570.0401926,-4420.9939308\PG=C01 [X(C20H33N6O5)]\\@
 The archive entry for this job was punched.


     "IF I COULD JUST GET IT ON PAPER"
 LIFE AND INK, THEY RUN OUT AT THE SAME TIME,
 OR SO SAID MY OLD FRIEND THE SQUID.
     -- JIMMY BUFFETT, 1981
 Job cpu time:       0 days  0 hours  3 minutes 23.6 seconds.
 Elapsed time:       0 days  0 hours  0 minutes 51.7 seconds.
 File lengths (MBytes):  RWF=    264 Int=      0 D2E=      0 Chk=     40 Scr=     16
 Normal termination of Gaussian 16 at Tue May 31 11:51:02 2022.
