 Entering Gaussian System, Link 0=/opt/software/Gaussian/g16-AVX2-C.01/g16/g16
 Input=charge-conf-651.com
 Output=charge-conf-651.log
 Initial command:
 /opt/software/Gaussian/g16-AVX2-C.01/g16/l1.exe "/mnt/gs18/scratch/users/kengmith/Gau-82839.inp" -scrdir="/mnt/gs18/scratch/users/kengmith/"
 Entering Link 1 = /opt/software/Gaussian/g16-AVX2-C.01/g16/l1.exe PID=     82849.
  
 Copyright (c) 1988-2019, Gaussian, Inc.  All Rights Reserved.
  
 This is part of the Gaussian(R) 16 program.  It is based on
 the Gaussian(R) 09 system (copyright 2009, Gaussian, Inc.),
 the Gaussian(R) 03 system (copyright 2003, Gaussian, Inc.),
 the Gaussian(R) 98 system (copyright 1998, Gaussian, Inc.),
 the Gaussian(R) 94 system (copyright 1995, Gaussian, Inc.),
 the Gaussian 92(TM) system (copyright 1992, Gaussian, Inc.),
 the Gaussian 90(TM) system (copyright 1990, Gaussian, Inc.),
 the Gaussian 88(TM) system (copyright 1988, Gaussian, Inc.),
 the Gaussian 86(TM) system (copyright 1986, Carnegie Mellon
 University), and the Gaussian 82(TM) system (copyright 1983,
 Carnegie Mellon University). Gaussian is a federally registered
 trademark of Gaussian, Inc.
  
 This software contains proprietary and confidential information,
 including trade secrets, belonging to Gaussian, Inc.
  
 This software is provided under written license and may be
 used, copied, transmitted, or stored only in accord with that
 written license.
  
 The following legend is applicable only to US Government
 contracts under FAR:
  
                    RESTRICTED RIGHTS LEGEND
  
 Use, reproduction and disclosure by the US Government is
 subject to restrictions as set forth in subparagraphs (a)
 and (c) of the Commercial Computer Software - Restricted
 Rights clause in FAR 52.227-19.
  
 Gaussian, Inc.
 340 Quinnipiac St., Bldg. 40, Wallingford CT 06492
  
  
 ---------------------------------------------------------------
 Warning -- This program may not be used in any manner that
 competes with the business of Gaussian, Inc. or will provide
 assistance to any competitor of Gaussian, Inc.  The licensee
 of this program is prohibited from giving any competitor of
 Gaussian, Inc. access to this program.  By using this program,
 the user acknowledges that Gaussian, Inc. is engaged in the
 business of creating and licensing software in the field of
 computational chemistry and represents and warrants to the
 licensee that it is not a competitor of Gaussian, Inc. and that
 it will not use this program in any manner prohibited above.
 ---------------------------------------------------------------
  

 Cite this work as:
 Gaussian 16, Revision C.01,
 M. J. Frisch, G. W. Trucks, H. B. Schlegel, G. E. Scuseria, 
 M. A. Robb, J. R. Cheeseman, G. Scalmani, V. Barone, 
 G. A. Petersson, H. Nakatsuji, X. Li, M. Caricato, A. V. Marenich, 
 J. Bloino, B. G. Janesko, R. Gomperts, B. Mennucci, H. P. Hratchian, 
 J. V. Ortiz, A. F. Izmaylov, J. L. Sonnenberg, D. Williams-Young, 
 F. Ding, F. Lipparini, F. Egidi, J. Goings, B. Peng, A. Petrone, 
 T. Henderson, D. Ranasinghe, V. G. Zakrzewski, J. Gao, N. Rega, 
 G. Zheng, W. Liang, M. Hada, M. Ehara, K. Toyota, R. Fukuda, 
 J. Hasegawa, M. Ishida, T. Nakajima, Y. Honda, O. Kitao, H. Nakai, 
 T. Vreven, K. Throssell, J. A. Montgomery, Jr., J. E. Peralta, 
 F. Ogliaro, M. J. Bearpark, J. J. Heyd, E. N. Brothers, K. N. Kudin, 
 V. N. Staroverov, T. A. Keith, R. Kobayashi, J. Normand, 
 K. Raghavachari, A. P. Rendell, J. C. Burant, S. S. Iyengar, 
 J. Tomasi, M. Cossi, J. M. Millam, M. Klene, C. Adamo, R. Cammi, 
 J. W. Ochterski, R. L. Martin, K. Morokuma, O. Farkas, 
 J. B. Foresman, and D. J. Fox, Gaussian, Inc., Wallingford CT, 2019.
 
 ******************************************
 Gaussian 16:  ES64L-G16RevC.01  3-Jul-2019
                31-May-2022 
 ******************************************
 %mem=8gb
 %nproc=4
 Will use up to    4 processors via shared memory.
 %chk=conf-651.chk
 ----------------------------------------------------------------------
 # B3LYP/6-31G* empiricaldispersion=gd3 guess=read geom=check nosymm in
 tegral(ultrafinegrid)
 ----------------------------------------------------------------------
 1/29=2,38=1,172=1/1;
 2/12=2,15=1,40=1/2;
 3/5=1,6=6,7=1,11=2,14=-4,25=1,30=1,74=-5,75=-5,116=-2,124=31/1,2,3;
 4/5=1/1;
 5/5=2,38=6/2;
 6/7=2,8=2,9=2,10=2,28=1/1;
 99/5=1,9=1/99;
 ------------------------------------------------------
 Candidate Structure: Conf:651 Charge calc in gas phase
 ------------------------------------------------------
 Structure from the checkpoint file:  "conf-651.chk"
 Charge =  1 Multiplicity = 1
 Redundant internal coordinates found in file.  (old form).
 N,0,32.348408945,-30.6205682498,39.8853974846
 C,0,32.845897121,-31.9590775129,40.383034731
 C,0,34.3627970273,-31.7375746654,40.5694649063
 O,0,34.8950012869,-30.811572643,39.9620165028
 C,0,32.0544609782,-32.3680112452,41.6412106766
 C,0,30.5590158149,-32.270556322,41.4301889953
 C,0,29.8587854043,-31.1215330954,41.8371562176
 C,0,29.8527614048,-33.2875192705,40.7751726832
 C,0,28.495056593,-30.9921106934,41.5989185735
 C,0,28.4859530776,-33.1709953995,40.5333154587
 C,0,27.7993964633,-32.0196423426,40.9455045774
 O,0,26.4721169856,-31.8323664704,40.7465692789
 H,0,32.3915580147,-29.9127961219,40.6669582794
 H,0,32.6687504918,-32.6756067215,39.5739302015
 H,0,32.3400815329,-33.3959910526,41.895227997
 H,0,32.3594126316,-31.7197559589,42.4694579732
 H,0,30.3876017899,-30.3248995992,42.3562479529
 H,0,30.3687525772,-34.1922176896,40.4598511069
 H,0,27.9468324426,-30.1127738641,41.920117322
 H,0,27.9505899946,-33.9751831381,40.0341263418
 H,0,26.0799938335,-32.6085700275,40.3156068389
 H,0,32.9887350841,-30.2814073666,39.1551124963
 H,0,31.3816623366,-30.6871243827,39.5529454313
 N,0,35.0342099162,-32.5081490098,41.4573264368
 C,0,36.3773675016,-32.0796183983,41.8932675871
 C,0,36.2522864277,-30.6585082921,42.4878328759
 O,0,37.0061396633,-29.745148227,42.1655148672
 C,0,37.0423888628,-33.1152502652,42.8297622399
 C,0,36.2592606592,-33.3930153429,44.1235486553
 C,0,38.4828293081,-32.6819036596,43.1467453087
 H,0,34.5826468065,-33.2849434802,41.9200774309
 H,0,36.9988657647,-31.9505264249,41.0044452427
 H,0,37.0841733236,-34.0474031494,42.2488925954
 H,0,35.220103166,-33.7055320648,43.9491228246
 H,0,36.7403070502,-34.2031503301,44.679152644
 H,0,36.2402255693,-32.5130527784,44.7756790709
 H,0,39.0591733591,-32.5127386929,42.2312931529
 H,0,38.9881493401,-33.4621371034,43.7239586643
 H,0,38.5164278297,-31.7579467757,43.7363873839
 N,0,35.2130850882,-30.4727666221,43.3585232201
 C,0,34.7005349427,-29.1259828824,43.6377865567
 C,0,33.9133099469,-28.796059127,42.3636847492
 O,0,32.7519997668,-29.1627082728,42.1937156322
 C,0,33.8485044602,-29.0797601405,44.907058253
 C,0,34.5515348296,-29.593185754,46.1770760186
 C,0,35.8656852982,-28.8882719828,46.5400813473
 N,0,36.9088058384,-29.2299512647,45.5849686164
 C,0,38.153924723,-28.5809887665,45.5880991518
 N,0,38.5492634871,-27.6185915364,46.3321090234
 N,0,38.9928912061,-29.1290805261,44.6099762295
 O,0,34.5792897465,-28.2291594262,41.3657278536
 H,0,35.5428314888,-28.2184430628,41.5498592077
 H,0,34.5526658923,-31.2307088931,43.4713632473
 H,0,35.5696403155,-28.4775329541,43.7416453154
 H,0,32.9262763116,-29.6498876865,44.7381006424
 H,0,33.5391025055,-28.0376279168,45.0530830575
 H,0,34.7374072607,-30.6733236428,46.0903685624
 H,0,33.8525197704,-29.4768048422,47.0128621242
 H,0,36.1437049009,-29.1479264736,47.5742864584
 H,0,35.7232484938,-27.8005121639,46.5132482471
 H,0,36.9970856108,-30.2245071073,45.4100134637
 H,0,37.8994578765,-27.4265999351,47.0949660631
 H,0,39.876412416,-28.6313240645,44.5773812758
 H,0,38.560065694,-29.1946450582,43.6921577057
 Recover connectivity data from disk.
                           ----------------------------
                           !    Current Parameters    !
                           ! (Angstroms and Degrees)  !
 --------------------------                            --------------------------
 ! Name  Definition              Value                                          !
 --------------------------------------------------------------------------------
 ! R1    R(1,2)                  1.5122                                         !
 ! R2    R(1,13)                 1.0553                                         !
 ! R3    R(1,22)                 1.0288                                         !
 ! R4    R(1,23)                 1.0245                                         !
 ! R5    R(2,3)                  1.5443                                         !
 ! R6    R(2,5)                  1.5416                                         !
 ! R7    R(2,14)                 1.0952                                         !
 ! R8    R(3,4)                  1.2287                                         !
 ! R9    R(3,24)                 1.3538                                         !
 ! R10   R(5,6)                  1.5134                                         !
 ! R11   R(5,15)                 1.0967                                         !
 ! R12   R(5,16)                 1.0951                                         !
 ! R13   R(6,7)                  1.4058                                         !
 ! R14   R(6,8)                  1.4007                                         !
 ! R15   R(7,9)                  1.3904                                         !
 ! R16   R(7,17)                 1.088                                          !
 ! R17   R(8,10)                 1.3929                                         !
 ! R18   R(8,18)                 1.0882                                         !
 ! R19   R(9,11)                 1.4024                                         !
 ! R20   R(9,19)                 1.0849                                         !
 ! R21   R(10,11)                1.4025                                         !
 ! R22   R(10,20)                1.0874                                         !
 ! R23   R(11,12)                1.3551                                         !
 ! R24   R(12,21)                0.9706                                         !
 ! R25   R(24,25)                1.4757                                         !
 ! R26   R(24,31)                1.0107                                         !
 ! R27   R(25,26)                1.5455                                         !
 ! R28   R(25,28)                1.5465                                         !
 ! R29   R(25,32)                1.0922                                         !
 ! R30   R(26,27)                1.2274                                         !
 ! R31   R(26,40)                1.3684                                         !
 ! R32   R(28,29)                1.5376                                         !
 ! R33   R(28,30)                1.5372                                         !
 ! R34   R(28,33)                1.0991                                         !
 ! R35   R(29,34)                1.0991                                         !
 ! R36   R(29,35)                1.0938                                         !
 ! R37   R(29,36)                1.0954                                         !
 ! R38   R(30,37)                1.0949                                         !
 ! R39   R(30,38)                1.0942                                         !
 ! R40   R(30,39)                1.0966                                         !
 ! R41   R(40,41)                1.4678                                         !
 ! R42   R(40,53)                1.0116                                         !
 ! R43   R(41,42)                1.5336                                         !
 ! R44   R(41,44)                1.5294                                         !
 ! R45   R(41,54)                1.0893                                         !
 ! R46   R(42,43)                1.2296                                         !
 ! R47   R(42,51)                1.327                                          !
 ! R48   R(44,45)                1.5397                                         !
 ! R49   R(44,55)                1.0973                                         !
 ! R50   R(44,56)                1.0969                                         !
 ! R51   R(45,46)                1.5348                                         !
 ! R52   R(45,57)                1.0994                                         !
 ! R53   R(45,58)                1.0958                                         !
 ! R54   R(46,47)                1.455                                          !
 ! R55   R(46,59)                1.102                                          !
 ! R56   R(46,60)                1.0974                                         !
 ! R57   R(47,48)                1.4041                                         !
 ! R58   R(47,61)                1.0137                                         !
 ! R59   R(48,49)                1.2791                                         !
 ! R60   R(48,50)                1.4004                                         !
 ! R61   R(49,62)                1.0203                                         !
 ! R62   R(50,63)                1.0146                                         !
 ! R63   R(50,64)                1.0169                                         !
 ! R64   R(51,52)                0.981                                          !
 ! A1    A(2,1,13)             109.6626                                         !
 ! A2    A(2,1,22)             108.7021                                         !
 ! A3    A(2,1,23)             111.0837                                         !
 ! A4    A(13,1,22)            106.2108                                         !
 ! A5    A(13,1,23)            108.8136                                         !
 ! A6    A(22,1,23)            112.235                                          !
 ! A7    A(1,2,3)              103.6458                                         !
 ! A8    A(1,2,5)              109.5407                                         !
 ! A9    A(1,2,14)             106.4257                                         !
 ! A10   A(3,2,5)              116.3464                                         !
 ! A11   A(3,2,14)             109.9933                                         !
 ! A12   A(5,2,14)             110.2647                                         !
 ! A13   A(2,3,4)              118.2863                                         !
 ! A14   A(2,3,24)             118.9909                                         !
 ! A15   A(4,3,24)             122.5725                                         !
 ! A16   A(2,5,6)              112.1113                                         !
 ! A17   A(2,5,15)             107.6955                                         !
 ! A18   A(2,5,16)             108.4985                                         !
 ! A19   A(6,5,15)             110.4866                                         !
 ! A20   A(6,5,16)             110.0297                                         !
 ! A21   A(15,5,16)            107.8879                                         !
 ! A22   A(5,6,7)              120.296                                          !
 ! A23   A(5,6,8)              121.1093                                         !
 ! A24   A(7,6,8)              118.5319                                         !
 ! A25   A(6,7,9)              120.9993                                         !
 ! A26   A(6,7,17)             119.6362                                         !
 ! A27   A(9,7,17)             119.3611                                         !
 ! A28   A(6,8,10)             121.0115                                         !
 ! A29   A(6,8,18)             120.0014                                         !
 ! A30   A(10,8,18)            118.981                                          !
 ! A31   A(7,9,11)             119.8785                                         !
 ! A32   A(7,9,19)             121.3558                                         !
 ! A33   A(11,9,19)            118.761                                          !
 ! A34   A(8,10,11)            119.8682                                         !
 ! A35   A(8,10,20)            120.0614                                         !
 ! A36   A(11,10,20)           120.068                                          !
 ! A37   A(9,11,10)            119.7103                                         !
 ! A38   A(9,11,12)            116.9367                                         !
 ! A39   A(10,11,12)           123.353                                          !
 ! A40   A(11,12,21)           110.5107                                         !
 ! A41   A(3,24,25)            118.6745                                         !
 ! A42   A(3,24,31)            121.0749                                         !
 ! A43   A(25,24,31)           119.6428                                         !
 ! A44   A(24,25,26)           107.8779                                         !
 ! A45   A(24,25,28)           112.0739                                         !
 ! A46   A(24,25,32)           108.1698                                         !
 ! A47   A(26,25,28)           114.6818                                         !
 ! A48   A(26,25,32)           104.5031                                         !
 ! A49   A(28,25,32)           109.1013                                         !
 ! A50   A(25,26,27)           122.2436                                         !
 ! A51   A(25,26,40)           115.5337                                         !
 ! A52   A(27,26,40)           122.1764                                         !
 ! A53   A(25,28,29)           114.2973                                         !
 ! A54   A(25,28,30)           109.817                                          !
 ! A55   A(25,28,33)           105.3221                                         !
 ! A56   A(29,28,30)           110.7723                                         !
 ! A57   A(29,28,33)           108.1095                                         !
 ! A58   A(30,28,33)           108.2055                                         !
 ! A59   A(28,29,34)           113.5392                                         !
 ! A60   A(28,29,35)           109.7067                                         !
 ! A61   A(28,29,36)           111.3858                                         !
 ! A62   A(34,29,35)           106.6084                                         !
 ! A63   A(34,29,36)           107.8465                                         !
 ! A64   A(35,29,36)           107.4707                                         !
 ! A65   A(28,30,37)           111.3696                                         !
 ! A66   A(28,30,38)           109.9071                                         !
 ! A67   A(28,30,39)           112.1545                                         !
 ! A68   A(37,30,38)           107.9466                                         !
 ! A69   A(37,30,39)           107.6539                                         !
 ! A70   A(38,30,39)           107.6382                                         !
 ! A71   A(26,40,41)           120.7158                                         !
 ! A72   A(26,40,53)           117.7138                                         !
 ! A73   A(41,40,53)           115.9934                                         !
 ! A74   A(40,41,42)           102.6252                                         !
 ! A75   A(40,41,44)           112.3432                                         !
 ! A76   A(40,41,54)           106.6026                                         !
 ! A77   A(42,41,44)           113.3913                                         !
 ! A78   A(42,41,54)           111.1429                                         !
 ! A79   A(44,41,54)           110.3257                                         !
 ! A80   A(41,42,43)           122.3776                                         !
 ! A81   A(41,42,51)           117.3284                                         !
 ! A82   A(43,42,51)           119.8304                                         !
 ! A83   A(41,44,45)           114.8398                                         !
 ! A84   A(41,44,55)           108.9485                                         !
 ! A85   A(41,44,56)           107.2382                                         !
 ! A86   A(45,44,55)           109.724                                          !
 ! A87   A(45,44,56)           109.6211                                         !
 ! A88   A(55,44,56)           106.0855                                         !
 ! A89   A(44,45,46)           115.6504                                         !
 ! A90   A(44,45,57)           109.8609                                         !
 ! A91   A(44,45,58)           107.6044                                         !
 ! A92   A(46,45,57)           108.9727                                         !
 ! A93   A(46,45,58)           108.4832                                         !
 ! A94   A(57,45,58)           105.804                                          !
 ! A95   A(45,46,47)           110.5321                                         !
 ! A96   A(45,46,59)           109.2552                                         !
 ! A97   A(45,46,60)           109.7757                                         !
 ! A98   A(47,46,59)           112.3251                                         !
 ! A99   A(47,46,60)           108.0455                                         !
 ! A100  A(59,46,60)           106.8139                                         !
 ! A101  A(46,47,48)           121.7181                                         !
 ! A102  A(46,47,61)           113.9618                                         !
 ! A103  A(48,47,61)           112.1251                                         !
 ! A104  A(47,48,49)           128.5459                                         !
 ! A105  A(47,48,50)           110.4151                                         !
 ! A106  A(49,48,50)           121.038                                          !
 ! A107  A(48,49,62)           112.311                                          !
 ! A108  A(48,50,63)           110.6176                                         !
 ! A109  A(48,50,64)           113.6202                                         !
 ! A110  A(63,50,64)           111.9184                                         !
 ! A111  A(42,51,52)           110.8821                                         !
 ! D1    D(13,1,2,3)           -70.521                                          !
 ! D2    D(13,1,2,5)            54.2824                                         !
 ! D3    D(13,1,2,14)          173.4783                                         !
 ! D4    D(22,1,2,3)            45.1972                                         !
 ! D5    D(22,1,2,5)           170.0006                                         !
 ! D6    D(22,1,2,14)          -70.8036                                         !
 ! D7    D(23,1,2,3)           169.1616                                         !
 ! D8    D(23,1,2,5)           -66.035                                          !
 ! D9    D(23,1,2,14)           53.1609                                         !
 ! D10   D(1,2,3,4)            -20.9676                                         !
 ! D11   D(1,2,3,24)           154.6926                                         !
 ! D12   D(5,2,3,4)           -141.2537                                         !
 ! D13   D(5,2,3,24)            34.4065                                         !
 ! D14   D(14,2,3,4)            92.4842                                         !
 ! D15   D(14,2,3,24)          -91.8557                                         !
 ! D16   D(1,2,5,6)             50.6268                                         !
 ! D17   D(1,2,5,15)           172.3733                                         !
 ! D18   D(1,2,5,16)           -71.0932                                         !
 ! D19   D(3,2,5,6)            167.6997                                         !
 ! D20   D(3,2,5,15)           -70.5538                                         !
 ! D21   D(3,2,5,16)            45.9797                                         !
 ! D22   D(14,2,5,6)           -66.1741                                         !
 ! D23   D(14,2,5,15)           55.5724                                         !
 ! D24   D(14,2,5,16)          172.1058                                         !
 ! D25   D(2,3,24,25)         -164.2978                                         !
 ! D26   D(2,3,24,31)            6.7314                                         !
 ! D27   D(4,3,24,25)           11.1668                                         !
 ! D28   D(4,3,24,31)         -177.804                                          !
 ! D29   D(2,5,6,7)            -96.1205                                         !
 ! D30   D(2,5,6,8)             80.9557                                         !
 ! D31   D(15,5,6,7)           143.7447                                         !
 ! D32   D(15,5,6,8)           -39.1791                                         !
 ! D33   D(16,5,6,7)            24.7186                                         !
 ! D34   D(16,5,6,8)          -158.2051                                         !
 ! D35   D(5,6,7,9)            177.2183                                         !
 ! D36   D(5,6,7,17)            -3.4586                                         !
 ! D37   D(8,6,7,9)              0.0676                                         !
 ! D38   D(8,6,7,17)           179.3907                                         !
 ! D39   D(5,6,8,10)          -177.337                                          !
 ! D40   D(5,6,8,18)             3.5678                                         !
 ! D41   D(7,6,8,10)            -0.2104                                         !
 ! D42   D(7,6,8,18)          -179.3056                                         !
 ! D43   D(6,7,9,11)             0.1154                                         !
 ! D44   D(6,7,9,19)           179.3199                                         !
 ! D45   D(17,7,9,11)         -179.2095                                         !
 ! D46   D(17,7,9,19)           -0.005                                          !
 ! D47   D(6,8,10,11)            0.1688                                         !
 ! D48   D(6,8,10,20)         -179.2647                                         !
 ! D49   D(18,8,10,11)         179.273                                          !
 ! D50   D(18,8,10,20)          -0.1604                                         !
 ! D51   D(7,9,11,10)           -0.1585                                         !
 ! D52   D(7,9,11,12)          179.8698                                         !
 ! D53   D(19,9,11,10)        -179.3836                                         !
 ! D54   D(19,9,11,12)           0.6447                                         !
 ! D55   D(8,10,11,9)            0.0181                                         !
 ! D56   D(8,10,11,12)         179.988                                          !
 ! D57   D(20,10,11,9)         179.4515                                         !
 ! D58   D(20,10,11,12)         -0.5786                                         !
 ! D59   D(9,11,12,21)        -178.1399                                         !
 ! D60   D(10,11,12,21)          1.8894                                         !
 ! D61   D(3,24,25,26)          56.694                                          !
 ! D62   D(3,24,25,28)        -176.1289                                         !
 ! D63   D(3,24,25,32)         -55.8142                                         !
 ! D64   D(31,24,25,26)       -114.4667                                         !
 ! D65   D(31,24,25,28)         12.7104                                         !
 ! D66   D(31,24,25,32)        133.0252                                         !
 ! D67   D(24,25,26,27)       -131.5374                                         !
 ! D68   D(24,25,26,40)         46.0365                                         !
 ! D69   D(28,25,26,27)        102.8141                                         !
 ! D70   D(28,25,26,40)        -79.6121                                         !
 ! D71   D(32,25,26,27)        -16.584                                          !
 ! D72   D(32,25,26,40)        160.9899                                         !
 ! D73   D(24,25,28,29)        -60.0176                                         !
 ! D74   D(24,25,28,30)        174.7915                                         !
 ! D75   D(24,25,28,33)         58.4919                                         !
 ! D76   D(26,25,28,29)         63.4144                                         !
 ! D77   D(26,25,28,30)        -61.7766                                         !
 ! D78   D(26,25,28,33)       -178.0761                                         !
 ! D79   D(32,25,28,29)       -179.7892                                         !
 ! D80   D(32,25,28,30)         55.0199                                         !
 ! D81   D(32,25,28,33)        -61.2797                                         !
 ! D82   D(25,26,40,41)       -159.15                                           !
 ! D83   D(25,26,40,53)         -6.5328                                         !
 ! D84   D(27,26,40,41)         18.4257                                         !
 ! D85   D(27,26,40,53)        171.0429                                         !
 ! D86   D(25,28,29,34)         55.2241                                         !
 ! D87   D(25,28,29,35)        174.381                                          !
 ! D88   D(25,28,29,36)        -66.7542                                         !
 ! D89   D(30,28,29,34)        179.9094                                         !
 ! D90   D(30,28,29,35)        -60.9337                                         !
 ! D91   D(30,28,29,36)         57.9311                                         !
 ! D92   D(33,28,29,34)        -61.6915                                         !
 ! D93   D(33,28,29,35)         57.4654                                         !
 ! D94   D(33,28,29,36)        176.3302                                         !
 ! D95   D(25,28,30,37)        -54.6462                                         !
 ! D96   D(25,28,30,38)       -174.224                                          !
 ! D97   D(25,28,30,39)         66.0797                                         !
 ! D98   D(29,28,30,37)        178.1633                                         !
 ! D99   D(29,28,30,38)         58.5855                                         !
 ! D100  D(29,28,30,39)        -61.1107                                         !
 ! D101  D(33,28,30,37)         59.8225                                         !
 ! D102  D(33,28,30,38)        -59.7553                                         !
 ! D103  D(33,28,30,39)       -179.4515                                         !
 ! D104  D(26,40,41,42)         74.7097                                         !
 ! D105  D(26,40,41,44)       -163.1542                                         !
 ! D106  D(26,40,41,54)        -42.1944                                         !
 ! D107  D(53,40,41,42)        -78.3543                                         !
 ! D108  D(53,40,41,44)         43.7818                                         !
 ! D109  D(53,40,41,54)        164.7416                                         !
 ! D110  D(40,41,42,43)         83.93                                           !
 ! D111  D(40,41,42,51)        -88.2354                                         !
 ! D112  D(44,41,42,43)        -37.4925                                         !
 ! D113  D(44,41,42,51)        150.342                                          !
 ! D114  D(54,41,42,43)       -162.4563                                         !
 ! D115  D(54,41,42,51)         25.3783                                         !
 ! D116  D(40,41,44,45)         56.0992                                         !
 ! D117  D(40,41,44,55)        -67.4141                                         !
 ! D118  D(40,41,44,56)        178.1768                                         !
 ! D119  D(42,41,44,45)        171.9011                                         !
 ! D120  D(42,41,44,55)         48.3879                                         !
 ! D121  D(42,41,44,56)        -66.0212                                         !
 ! D122  D(54,41,44,45)        -62.6963                                         !
 ! D123  D(54,41,44,55)        173.7905                                         !
 ! D124  D(54,41,44,56)         59.3814                                         !
 ! D125  D(41,42,51,52)          8.2773                                         !
 ! D126  D(43,42,51,52)       -164.0967                                         !
 ! D127  D(41,44,45,46)         56.7379                                         !
 ! D128  D(41,44,45,57)        -67.1057                                         !
 ! D129  D(41,44,45,58)        178.1597                                         !
 ! D130  D(55,44,45,46)        179.8369                                         !
 ! D131  D(55,44,45,57)         55.9933                                         !
 ! D132  D(55,44,45,58)        -58.7412                                         !
 ! D133  D(56,44,45,46)        -64.0401                                         !
 ! D134  D(56,44,45,57)        172.1163                                         !
 ! D135  D(56,44,45,58)         57.3817                                         !
 ! D136  D(44,45,46,47)        -70.0799                                         !
 ! D137  D(44,45,46,59)        165.8303                                         !
 ! D138  D(44,45,46,60)         49.0095                                         !
 ! D139  D(57,45,46,47)         54.2266                                         !
 ! D140  D(57,45,46,59)        -69.8632                                         !
 ! D141  D(57,45,46,60)        173.316                                          !
 ! D142  D(58,45,46,47)        168.9713                                         !
 ! D143  D(58,45,46,59)         44.8815                                         !
 ! D144  D(58,45,46,60)        -71.9393                                         !
 ! D145  D(45,46,47,48)        171.4187                                         !
 ! D146  D(45,46,47,61)        -49.1879                                         !
 ! D147  D(59,46,47,48)        -66.273                                          !
 ! D148  D(59,46,47,61)         73.1204                                         !
 ! D149  D(60,46,47,48)         51.2864                                         !
 ! D150  D(60,46,47,61)       -169.3202                                         !
 ! D151  D(46,47,48,49)         -2.7316                                         !
 ! D152  D(46,47,48,50)        177.6264                                         !
 ! D153  D(61,47,48,49)       -142.787                                          !
 ! D154  D(61,47,48,50)         37.571                                          !
 ! D155  D(47,48,49,62)          9.9458                                         !
 ! D156  D(50,48,49,62)       -170.4458                                         !
 ! D157  D(47,48,50,63)        177.1111                                         !
 ! D158  D(47,48,50,64)         50.2537                                         !
 ! D159  D(49,48,50,63)         -2.5621                                         !
 ! D160  D(49,48,50,64)       -129.4195                                         !
 --------------------------------------------------------------------------------
 Symmetry turned off by external request.
 Stoichiometry    C20H33N6O5(1+)
 Framework group  C1[X(C20H33N6O5)]
 Deg. of freedom   186
 Full point group                 C1      NOp   1
                          Input orientation:                          
 ---------------------------------------------------------------------
 Center     Atomic      Atomic             Coordinates (Angstroms)
 Number     Number       Type             X           Y           Z
 ---------------------------------------------------------------------
      1          7           0       32.348409  -30.620568   39.885397
      2          6           0       32.845897  -31.959078   40.383035
      3          6           0       34.362797  -31.737575   40.569465
      4          8           0       34.895001  -30.811573   39.962017
      5          6           0       32.054461  -32.368011   41.641211
      6          6           0       30.559016  -32.270556   41.430189
      7          6           0       29.858785  -31.121533   41.837156
      8          6           0       29.852761  -33.287519   40.775173
      9          6           0       28.495057  -30.992111   41.598919
     10          6           0       28.485953  -33.170995   40.533315
     11          6           0       27.799396  -32.019642   40.945505
     12          8           0       26.472117  -31.832366   40.746569
     13          1           0       32.391558  -29.912796   40.666958
     14          1           0       32.668750  -32.675607   39.573930
     15          1           0       32.340082  -33.395991   41.895228
     16          1           0       32.359413  -31.719756   42.469458
     17          1           0       30.387602  -30.324900   42.356248
     18          1           0       30.368753  -34.192218   40.459851
     19          1           0       27.946832  -30.112774   41.920117
     20          1           0       27.950590  -33.975183   40.034126
     21          1           0       26.079994  -32.608570   40.315607
     22          1           0       32.988735  -30.281407   39.155112
     23          1           0       31.381662  -30.687124   39.552945
     24          7           0       35.034210  -32.508149   41.457326
     25          6           0       36.377368  -32.079618   41.893268
     26          6           0       36.252286  -30.658508   42.487833
     27          8           0       37.006140  -29.745148   42.165515
     28          6           0       37.042389  -33.115250   42.829762
     29          6           0       36.259261  -33.393015   44.123549
     30          6           0       38.482829  -32.681904   43.146745
     31          1           0       34.582647  -33.284943   41.920077
     32          1           0       36.998866  -31.950526   41.004445
     33          1           0       37.084173  -34.047403   42.248893
     34          1           0       35.220103  -33.705532   43.949123
     35          1           0       36.740307  -34.203150   44.679153
     36          1           0       36.240226  -32.513053   44.775679
     37          1           0       39.059173  -32.512739   42.231293
     38          1           0       38.988149  -33.462137   43.723959
     39          1           0       38.516428  -31.757947   43.736387
     40          7           0       35.213085  -30.472767   43.358523
     41          6           0       34.700535  -29.125983   43.637787
     42          6           0       33.913310  -28.796059   42.363685
     43          8           0       32.752000  -29.162708   42.193716
     44          6           0       33.848504  -29.079760   44.907058
     45          6           0       34.551535  -29.593186   46.177076
     46          6           0       35.865685  -28.888272   46.540081
     47          7           0       36.908806  -29.229951   45.584969
     48          6           0       38.153925  -28.580989   45.588099
     49          7           0       38.549263  -27.618592   46.332109
     50          7           0       38.992891  -29.129081   44.609976
     51          8           0       34.579290  -28.229159   41.365728
     52          1           0       35.542831  -28.218443   41.549859
     53          1           0       34.552666  -31.230709   43.471363
     54          1           0       35.569640  -28.477533   43.741645
     55          1           0       32.926276  -29.649888   44.738101
     56          1           0       33.539103  -28.037628   45.053083
     57          1           0       34.737407  -30.673324   46.090369
     58          1           0       33.852520  -29.476805   47.012862
     59          1           0       36.143705  -29.147926   47.574286
     60          1           0       35.723248  -27.800512   46.513248
     61          1           0       36.997086  -30.224507   45.410013
     62          1           0       37.899458  -27.426600   47.094966
     63          1           0       39.876412  -28.631324   44.577381
     64          1           0       38.560066  -29.194645   43.692158
 ---------------------------------------------------------------------
 Rotational constants (GHZ):           0.2603178           0.0764221           0.0693834
 Standard basis: 6-31G(d) (6D, 7F)
   531 basis functions,  1000 primitive gaussians,   531 cartesian basis functions
   117 alpha electrons      117 beta electrons
       nuclear repulsion energy      3413.1746889544 Hartrees.
 NAtoms=   64 NActive=   64 NUniq=   64 SFac= 1.00D+00 NAtFMM=   60 NAOKFM=T Big=T
 Integral buffers will be    131072 words long.
 Raffenetti 2 integral format.
 Two-electron integral symmetry is turned off.
 Nuclear repulsion after empirical dispersion term =     3413.0836558417 Hartrees.
 One-electron integrals computed using PRISM.
 NBasis=   531 RedAO= T EigKep=  4.34D-04  NBF=   531
 NBsUse=   531 1.00D-06 EigRej= -1.00D+00 NBFU=   531
 Initial guess from the checkpoint file:  "conf-651.chk"
 B after Tr=     0.000000    0.000000    0.000000
         Rot=    1.000000    0.000000    0.000000    0.000000 Ang=   0.00 deg.
 Requested convergence on RMS density matrix=1.00D-08 within 128 cycles.
 Requested convergence on MAX density matrix=1.00D-06.
 Requested convergence on             energy=1.00D-06.
 No special actions if energy rises.
 SCF Done:  E(RB3LYP) =  -1486.54877705     A.U. after    3 cycles
            NFock=  3  Conv=0.94D-09     -V/T= 2.0094

 **********************************************************************

            Population analysis using the SCF Density.

 **********************************************************************

 Alpha  occ. eigenvalues --  -19.32618 -19.28347 -19.28167 -19.27225 -19.25323
 Alpha  occ. eigenvalues --  -14.58505 -14.51430 -14.49837 -14.42653 -14.40079
 Alpha  occ. eigenvalues --  -14.35310 -10.46002 -10.44537 -10.42226 -10.41025
 Alpha  occ. eigenvalues --  -10.36339 -10.36229 -10.36194 -10.34695 -10.34574
 Alpha  occ. eigenvalues --  -10.32056 -10.31561 -10.31128 -10.31118 -10.30771
 Alpha  occ. eigenvalues --  -10.30766 -10.30248 -10.29827 -10.29622 -10.29611
 Alpha  occ. eigenvalues --  -10.27501  -1.24089  -1.19892  -1.17082  -1.16490
 Alpha  occ. eigenvalues --   -1.15586  -1.13192  -1.07934  -1.05906  -1.04436
 Alpha  occ. eigenvalues --   -0.97589  -0.96058  -0.94168  -0.92237  -0.91051
 Alpha  occ. eigenvalues --   -0.90452  -0.86764  -0.86264  -0.85227  -0.82947
 Alpha  occ. eigenvalues --   -0.79992  -0.79319  -0.77890  -0.75326  -0.74559
 Alpha  occ. eigenvalues --   -0.73963  -0.73563  -0.72199  -0.71342  -0.70741
 Alpha  occ. eigenvalues --   -0.70445  -0.69613  -0.67662  -0.66234  -0.65583
 Alpha  occ. eigenvalues --   -0.65390  -0.63420  -0.62161  -0.61844  -0.61000
 Alpha  occ. eigenvalues --   -0.60579  -0.59676  -0.59647  -0.58394  -0.58116
 Alpha  occ. eigenvalues --   -0.58045  -0.57747  -0.56732  -0.55595  -0.55298
 Alpha  occ. eigenvalues --   -0.55190  -0.54664  -0.54189  -0.53754  -0.53563
 Alpha  occ. eigenvalues --   -0.52872  -0.52719  -0.52218  -0.51700  -0.51433
 Alpha  occ. eigenvalues --   -0.51119  -0.49965  -0.49688  -0.49349  -0.48979
 Alpha  occ. eigenvalues --   -0.48635  -0.47716  -0.47047  -0.45821  -0.45779
 Alpha  occ. eigenvalues --   -0.45584  -0.45127  -0.44912  -0.44810  -0.44498
 Alpha  occ. eigenvalues --   -0.44406  -0.43246  -0.42710  -0.41791  -0.41067
 Alpha  occ. eigenvalues --   -0.38652  -0.38019  -0.36795  -0.33176  -0.33128
 Alpha  occ. eigenvalues --   -0.32314  -0.30071
 Alpha virt. eigenvalues --   -0.14664  -0.13917  -0.11997  -0.11396  -0.10981
 Alpha virt. eigenvalues --   -0.08081  -0.07097  -0.05404  -0.04036  -0.03093
 Alpha virt. eigenvalues --   -0.02880  -0.02426  -0.01871  -0.01432  -0.01109
 Alpha virt. eigenvalues --   -0.00632   0.00099   0.00532   0.01629   0.01820
 Alpha virt. eigenvalues --    0.02288   0.02691   0.03701   0.03936   0.03998
 Alpha virt. eigenvalues --    0.04521   0.05005   0.05282   0.05675   0.06190
 Alpha virt. eigenvalues --    0.06786   0.06879   0.07246   0.07305   0.07727
 Alpha virt. eigenvalues --    0.08310   0.08648   0.09466   0.09682   0.09703
 Alpha virt. eigenvalues --    0.10104   0.10601   0.10917   0.11389   0.11900
 Alpha virt. eigenvalues --    0.12728   0.13143   0.13254   0.14036   0.14382
 Alpha virt. eigenvalues --    0.15090   0.15531   0.16094   0.16770   0.17301
 Alpha virt. eigenvalues --    0.18968   0.20038   0.21327   0.22239   0.22674
 Alpha virt. eigenvalues --    0.22871   0.23702   0.24296   0.24557   0.26326
 Alpha virt. eigenvalues --    0.27179   0.27472   0.29341   0.34206   0.34709
 Alpha virt. eigenvalues --    0.35456   0.36210   0.37633   0.38250   0.39258
 Alpha virt. eigenvalues --    0.40527   0.40942   0.41267   0.41509   0.41913
 Alpha virt. eigenvalues --    0.42312   0.42654   0.42950   0.43650   0.44151
 Alpha virt. eigenvalues --    0.45105   0.45453   0.46327   0.46654   0.46864
 Alpha virt. eigenvalues --    0.47074   0.47558   0.48389   0.49434   0.49957
 Alpha virt. eigenvalues --    0.50104   0.50595   0.50738   0.51513   0.51916
 Alpha virt. eigenvalues --    0.52384   0.52481   0.53069   0.53695   0.54093
 Alpha virt. eigenvalues --    0.55022   0.55196   0.56077   0.56387   0.57028
 Alpha virt. eigenvalues --    0.57910   0.58170   0.58948   0.59315   0.60059
 Alpha virt. eigenvalues --    0.60964   0.61530   0.62663   0.63731   0.64463
 Alpha virt. eigenvalues --    0.64865   0.65214   0.65807   0.66249   0.66729
 Alpha virt. eigenvalues --    0.67574   0.68111   0.68405   0.68690   0.69562
 Alpha virt. eigenvalues --    0.70228   0.70782   0.71370   0.71872   0.71978
 Alpha virt. eigenvalues --    0.72705   0.73048   0.73530   0.73888   0.74152
 Alpha virt. eigenvalues --    0.74962   0.75494   0.75889   0.76665   0.77077
 Alpha virt. eigenvalues --    0.77665   0.78067   0.78222   0.78972   0.79561
 Alpha virt. eigenvalues --    0.80043   0.80173   0.80969   0.81818   0.82388
 Alpha virt. eigenvalues --    0.82700   0.82822   0.83023   0.83911   0.84326
 Alpha virt. eigenvalues --    0.84706   0.85130   0.85919   0.86069   0.86396
 Alpha virt. eigenvalues --    0.86697   0.87275   0.87500   0.87635   0.88675
 Alpha virt. eigenvalues --    0.89396   0.90554   0.91307   0.91630   0.92798
 Alpha virt. eigenvalues --    0.93434   0.93821   0.94687   0.95266   0.95867
 Alpha virt. eigenvalues --    0.96317   0.96662   0.98815   0.99680   1.00468
 Alpha virt. eigenvalues --    1.01240   1.01595   1.03695   1.04216   1.05948
 Alpha virt. eigenvalues --    1.06821   1.07467   1.08826   1.09452   1.10673
 Alpha virt. eigenvalues --    1.10822   1.11822   1.12902   1.13148   1.13723
 Alpha virt. eigenvalues --    1.14630   1.15373   1.16993   1.18488   1.18708
 Alpha virt. eigenvalues --    1.21107   1.22081   1.22502   1.23591   1.24475
 Alpha virt. eigenvalues --    1.25475   1.26137   1.26601   1.27826   1.29051
 Alpha virt. eigenvalues --    1.30263   1.31328   1.31815   1.32549   1.33470
 Alpha virt. eigenvalues --    1.34822   1.35418   1.35800   1.36724   1.37135
 Alpha virt. eigenvalues --    1.37897   1.39531   1.39850   1.40910   1.41706
 Alpha virt. eigenvalues --    1.43240   1.44609   1.45145   1.46181   1.48360
 Alpha virt. eigenvalues --    1.49823   1.51740   1.53173   1.55359   1.55798
 Alpha virt. eigenvalues --    1.57539   1.58560   1.59389   1.61002   1.61605
 Alpha virt. eigenvalues --    1.62670   1.62851   1.63202   1.63880   1.65408
 Alpha virt. eigenvalues --    1.66066   1.66644   1.66824   1.67321   1.68013
 Alpha virt. eigenvalues --    1.69130   1.69920   1.70072   1.71070   1.72020
 Alpha virt. eigenvalues --    1.72508   1.72732   1.73116   1.74343   1.74534
 Alpha virt. eigenvalues --    1.75356   1.76653   1.77373   1.77559   1.77959
 Alpha virt. eigenvalues --    1.78948   1.80449   1.81602   1.82280   1.82395
 Alpha virt. eigenvalues --    1.83605   1.83623   1.84179   1.85067   1.85322
 Alpha virt. eigenvalues --    1.86148   1.86697   1.88126   1.88144   1.88827
 Alpha virt. eigenvalues --    1.90587   1.91007   1.91593   1.92514   1.93490
 Alpha virt. eigenvalues --    1.94102   1.95267   1.95723   1.96661   1.96907
 Alpha virt. eigenvalues --    1.97759   1.98230   2.00051   2.00938   2.01796
 Alpha virt. eigenvalues --    2.02413   2.02780   2.03249   2.05087   2.06233
 Alpha virt. eigenvalues --    2.07036   2.07928   2.10713   2.12696   2.13160
 Alpha virt. eigenvalues --    2.14251   2.14992   2.15155   2.15438   2.16998
 Alpha virt. eigenvalues --    2.17761   2.18701   2.19740   2.20176   2.20869
 Alpha virt. eigenvalues --    2.21171   2.22649   2.24029   2.24401   2.26053
 Alpha virt. eigenvalues --    2.26958   2.28813   2.29042   2.29811   2.30261
 Alpha virt. eigenvalues --    2.31934   2.33843   2.33959   2.35284   2.36787
 Alpha virt. eigenvalues --    2.37596   2.38379   2.39333   2.39414   2.41356
 Alpha virt. eigenvalues --    2.42141   2.44612   2.46336   2.46913   2.47239
 Alpha virt. eigenvalues --    2.48138   2.49288   2.50053   2.51088   2.51182
 Alpha virt. eigenvalues --    2.53500   2.54089   2.54885   2.55228   2.56515
 Alpha virt. eigenvalues --    2.57484   2.58630   2.59667   2.60381   2.62344
 Alpha virt. eigenvalues --    2.62649   2.64366   2.64732   2.65544   2.67460
 Alpha virt. eigenvalues --    2.70087   2.72855   2.75011   2.77567   2.78707
 Alpha virt. eigenvalues --    2.79657   2.84258   2.85710   2.89139   2.91514
 Alpha virt. eigenvalues --    2.93695   2.94676   2.95353   3.00001   3.00969
 Alpha virt. eigenvalues --    3.01629   3.03942   3.29953   3.71004   3.79690
 Alpha virt. eigenvalues --    3.83913   3.84196   3.86636   3.89247   3.96200
 Alpha virt. eigenvalues --    3.98512   3.99692   3.99737   4.01944   4.08449
 Alpha virt. eigenvalues --    4.08559   4.10746   4.13402   4.17366   4.20184
 Alpha virt. eigenvalues --    4.20958   4.22132   4.22614   4.23369   4.30059
 Alpha virt. eigenvalues --    4.32662   4.33886   4.36473   4.43568   4.49039
 Alpha virt. eigenvalues --    4.54376   4.57516   4.62366   4.63996
          Condensed to atoms (all electrons):
 Mulliken charges:
               1
     1  N   -0.758005
     2  C   -0.116898
     3  C    0.652530
     4  O   -0.509845
     5  C   -0.395458
     6  C    0.120185
     7  C   -0.229421
     8  C   -0.191337
     9  C   -0.154539
    10  C   -0.187168
    11  C    0.361704
    12  O   -0.618449
    13  H    0.447412
    14  H    0.225741
    15  H    0.175912
    16  H    0.181899
    17  H    0.169569
    18  H    0.141851
    19  H    0.173862
    20  H    0.153011
    21  H    0.423807
    22  H    0.421668
    23  H    0.409719
    24  N   -0.651066
    25  C   -0.018986
    26  C    0.612052
    27  O   -0.527497
    28  C   -0.123674
    29  C   -0.482674
    30  C   -0.473100
    31  H    0.351453
    32  H    0.216146
    33  H    0.163589
    34  H    0.122520
    35  H    0.192720
    36  H    0.163054
    37  H    0.170028
    38  H    0.173697
    39  H    0.181487
    40  N   -0.591123
    41  C   -0.055234
    42  C    0.638799
    43  O   -0.522576
    44  C   -0.297398
    45  C   -0.294438
    46  C   -0.132438
    47  N   -0.622800
    48  C    0.559544
    49  N   -0.625405
    50  N   -0.775581
    51  O   -0.543483
    52  H    0.458368
    53  H    0.339557
    54  H    0.221220
    55  H    0.158243
    56  H    0.177214
    57  H    0.137635
    58  H    0.172765
    59  H    0.161525
    60  H    0.164555
    61  H    0.331045
    62  H    0.282783
    63  H    0.342487
    64  H    0.347241
 Sum of Mulliken charges =   1.00000
 Mulliken charges with hydrogens summed into heavy atoms:
               1
     1  N    0.520795
     2  C    0.108843
     3  C    0.652530
     4  O   -0.509845
     5  C   -0.037648
     6  C    0.120185
     7  C   -0.059851
     8  C   -0.049486
     9  C    0.019322
    10  C   -0.034157
    11  C    0.361704
    12  O   -0.194642
    24  N   -0.299613
    25  C    0.197160
    26  C    0.612052
    27  O   -0.527497
    28  C    0.039915
    29  C   -0.004380
    30  C    0.052111
    40  N   -0.251566
    41  C    0.165986
    42  C    0.638799
    43  O   -0.522576
    44  C    0.038058
    45  C    0.015963
    46  C    0.193642
    47  N   -0.291755
    48  C    0.559544
    49  N   -0.342622
    50  N   -0.085853
    51  O   -0.085115
 Electronic spatial extent (au):  <R**2>=        3295863.1470
 Charge=              1.0000 electrons
 Dipole moment (field-independent basis, Debye):
    X=            155.6290    Y=           -154.8489    Z=            199.2481  Tot=            296.4766
 Quadrupole moment (field-independent basis, Debye-Ang):
   XX=           4881.8062   YY=           4821.5572   ZZ=           8107.8194
   XY=          -5026.8165   XZ=           6467.0882   YZ=          -6421.8244
 Traceless Quadrupole moment (field-independent basis, Debye-Ang):
   XX=          -1055.2547   YY=          -1115.5037   ZZ=           2170.7585
   XY=          -5026.8165   XZ=           6467.0882   YZ=          -6421.8244
 Octapole moment (field-independent basis, Debye-Ang**2):
  XXX=         146688.2277  YYY=        -145228.5961  ZZZ=         322662.0632  XYY=         156478.9373
  XXY=        -158448.9833  XXZ=         202886.1587  XZZ=         263293.1642  YZZ=        -261484.1308
  YYZ=         199669.1975  XYZ=        -208913.0634
 Hexadecapole moment (field-independent basis, Debye-Ang**3):
 XXXX=        4127619.4325 YYYY=        4220344.4386 ZZZZ=       12490874.2737 XXXY=       -4805624.5450
 XXXZ=        6082454.6558 YYYX=       -4703294.3306 YYYZ=       -5998842.0206 ZZZX=       10466808.2168
 ZZZY=      -10424981.1443 XXYY=        4936151.2806 XXZZ=        8240328.0836 YYZZ=        8118313.4225
 XXYZ=       -6589759.0843 YYXZ=        6495539.7210 ZZXY=       -8515702.1093
 N-N= 3.413083655842D+03 E-N=-1.026049142547D+04  KE= 1.472703940077D+03
 Unable to Open any file for archive entry.
 1\1\GINC-AMR-037\SP\RB3LYP\6-31G(d)\C20H33N6O5(1+)\KENGMITH\31-May-202
 2\0\\# B3LYP/6-31G* empiricaldispersion=gd3 guess=read geom=check nosy
 mm integral(ultrafinegrid)\\Candidate Structure: Conf:651 Charge calc 
 in gas phase\\1,1\N,0,32.348408945,-30.6205682498,39.8853974846\C,0,32
 .845897121,-31.9590775129,40.383034731\C,0,34.3627970273,-31.737574665
 4,40.5694649063\O,0,34.8950012869,-30.811572643,39.9620165028\C,0,32.0
 544609782,-32.3680112452,41.6412106766\C,0,30.5590158149,-32.270556322
 ,41.4301889953\C,0,29.8587854043,-31.1215330954,41.8371562176\C,0,29.8
 527614048,-33.2875192705,40.7751726832\C,0,28.495056593,-30.9921106934
 ,41.5989185735\C,0,28.4859530776,-33.1709953995,40.5333154587\C,0,27.7
 993964633,-32.0196423426,40.9455045774\O,0,26.4721169856,-31.832366470
 4,40.7465692789\H,0,32.3915580147,-29.9127961219,40.6669582794\H,0,32.
 6687504918,-32.6756067215,39.5739302015\H,0,32.3400815329,-33.39599105
 26,41.895227997\H,0,32.3594126316,-31.7197559589,42.4694579732\H,0,30.
 3876017899,-30.3248995992,42.3562479529\H,0,30.3687525772,-34.19221768
 96,40.4598511069\H,0,27.9468324426,-30.1127738641,41.920117322\H,0,27.
 9505899946,-33.9751831381,40.0341263418\H,0,26.0799938335,-32.60857002
 75,40.3156068389\H,0,32.9887350841,-30.2814073666,39.1551124963\H,0,31
 .3816623366,-30.6871243827,39.5529454313\N,0,35.0342099162,-32.5081490
 098,41.4573264368\C,0,36.3773675016,-32.0796183983,41.8932675871\C,0,3
 6.2522864277,-30.6585082921,42.4878328759\O,0,37.0061396633,-29.745148
 227,42.1655148672\C,0,37.0423888628,-33.1152502652,42.8297622399\C,0,3
 6.2592606592,-33.3930153429,44.1235486553\C,0,38.4828293081,-32.681903
 6596,43.1467453087\H,0,34.5826468065,-33.2849434802,41.9200774309\H,0,
 36.9988657647,-31.9505264249,41.0044452427\H,0,37.0841733236,-34.04740
 31494,42.2488925954\H,0,35.220103166,-33.7055320648,43.9491228246\H,0,
 36.7403070502,-34.2031503301,44.679152644\H,0,36.2402255693,-32.513052
 7784,44.7756790709\H,0,39.0591733591,-32.5127386929,42.2312931529\H,0,
 38.9881493401,-33.4621371034,43.7239586643\H,0,38.5164278297,-31.75794
 67757,43.7363873839\N,0,35.2130850882,-30.4727666221,43.3585232201\C,0
 ,34.7005349427,-29.1259828824,43.6377865567\C,0,33.9133099469,-28.7960
 59127,42.3636847492\O,0,32.7519997668,-29.1627082728,42.1937156322\C,0
 ,33.8485044602,-29.0797601405,44.907058253\C,0,34.5515348296,-29.59318
 5754,46.1770760186\C,0,35.8656852982,-28.8882719828,46.5400813473\N,0,
 36.9088058384,-29.2299512647,45.5849686164\C,0,38.153924723,-28.580988
 7665,45.5880991518\N,0,38.5492634871,-27.6185915364,46.3321090234\N,0,
 38.9928912061,-29.1290805261,44.6099762295\O,0,34.5792897465,-28.22915
 94262,41.3657278536\H,0,35.5428314888,-28.2184430628,41.5498592077\H,0
 ,34.5526658923,-31.2307088931,43.4713632473\H,0,35.5696403155,-28.4775
 329541,43.7416453154\H,0,32.9262763116,-29.6498876865,44.7381006424\H,
 0,33.5391025055,-28.0376279168,45.0530830575\H,0,34.7374072607,-30.673
 3236428,46.0903685624\H,0,33.8525197704,-29.4768048422,47.0128621242\H
 ,0,36.1437049009,-29.1479264736,47.5742864584\H,0,35.7232484938,-27.80
 05121639,46.5132482471\H,0,36.9970856108,-30.2245071073,45.4100134637\
 H,0,37.8994578765,-27.4265999351,47.0949660631\H,0,39.876412416,-28.63
 13240645,44.5773812758\H,0,38.560065694,-29.1946450582,43.6921577057\\
 Version=ES64L-G16RevC.01\HF=-1486.548777\RMSD=9.356e-10\Dipole=-3.0999
 086,-2.7803529,-2.2142767\Quadrupole=-784.5560327,-829.3496953,1613.90
 5728,-3737.3148879,4808.1215873,-4774.4690326\PG=C01 [X(C20H33N6O5)]\\
 @
 The archive entry for this job was punched.


 THE REASON MAN'S BEST FRIEND IS A DOG IS BECAUSE
 HE WAGS HIS TAIL INSTEAD OF HIS TONGUE.
 Job cpu time:       0 days  0 hours  2 minutes 36.5 seconds.
 Elapsed time:       0 days  0 hours  0 minutes 39.6 seconds.
 File lengths (MBytes):  RWF=    264 Int=      0 D2E=      0 Chk=     40 Scr=     16
 Normal termination of Gaussian 16 at Tue May 31 11:32:17 2022.
