 Entering Gaussian System, Link 0=/opt/software/Gaussian/g16-AVX2-C.01/g16/g16
 Input=charge-conf-34.com
 Output=charge-conf-34.log
 Initial command:
 /opt/software/Gaussian/g16-AVX2-C.01/g16/l1.exe "/mnt/gs18/scratch/users/kengmith/Gau-70321.inp" -scrdir="/mnt/gs18/scratch/users/kengmith/"
 Entering Link 1 = /opt/software/Gaussian/g16-AVX2-C.01/g16/l1.exe PID=     70331.
  
 Copyright (c) 1988-2019, Gaussian, Inc.  All Rights Reserved.
  
 This is part of the Gaussian(R) 16 program.  It is based on
 the Gaussian(R) 09 system (copyright 2009, Gaussian, Inc.),
 the Gaussian(R) 03 system (copyright 2003, Gaussian, Inc.),
 the Gaussian(R) 98 system (copyright 1998, Gaussian, Inc.),
 the Gaussian(R) 94 system (copyright 1995, Gaussian, Inc.),
 the Gaussian 92(TM) system (copyright 1992, Gaussian, Inc.),
 the Gaussian 90(TM) system (copyright 1990, Gaussian, Inc.),
 the Gaussian 88(TM) system (copyright 1988, Gaussian, Inc.),
 the Gaussian 86(TM) system (copyright 1986, Carnegie Mellon
 University), and the Gaussian 82(TM) system (copyright 1983,
 Carnegie Mellon University). Gaussian is a federally registered
 trademark of Gaussian, Inc.
  
 This software contains proprietary and confidential information,
 including trade secrets, belonging to Gaussian, Inc.
  
 This software is provided under written license and may be
 used, copied, transmitted, or stored only in accord with that
 written license.
  
 The following legend is applicable only to US Government
 contracts under FAR:
  
                    RESTRICTED RIGHTS LEGEND
  
 Use, reproduction and disclosure by the US Government is
 subject to restrictions as set forth in subparagraphs (a)
 and (c) of the Commercial Computer Software - Restricted
 Rights clause in FAR 52.227-19.
  
 Gaussian, Inc.
 340 Quinnipiac St., Bldg. 40, Wallingford CT 06492
  
  
 ---------------------------------------------------------------
 Warning -- This program may not be used in any manner that
 competes with the business of Gaussian, Inc. or will provide
 assistance to any competitor of Gaussian, Inc.  The licensee
 of this program is prohibited from giving any competitor of
 Gaussian, Inc. access to this program.  By using this program,
 the user acknowledges that Gaussian, Inc. is engaged in the
 business of creating and licensing software in the field of
 computational chemistry and represents and warrants to the
 licensee that it is not a competitor of Gaussian, Inc. and that
 it will not use this program in any manner prohibited above.
 ---------------------------------------------------------------
  

 Cite this work as:
 Gaussian 16, Revision C.01,
 M. J. Frisch, G. W. Trucks, H. B. Schlegel, G. E. Scuseria, 
 M. A. Robb, J. R. Cheeseman, G. Scalmani, V. Barone, 
 G. A. Petersson, H. Nakatsuji, X. Li, M. Caricato, A. V. Marenich, 
 J. Bloino, B. G. Janesko, R. Gomperts, B. Mennucci, H. P. Hratchian, 
 J. V. Ortiz, A. F. Izmaylov, J. L. Sonnenberg, D. Williams-Young, 
 F. Ding, F. Lipparini, F. Egidi, J. Goings, B. Peng, A. Petrone, 
 T. Henderson, D. Ranasinghe, V. G. Zakrzewski, J. Gao, N. Rega, 
 G. Zheng, W. Liang, M. Hada, M. Ehara, K. Toyota, R. Fukuda, 
 J. Hasegawa, M. Ishida, T. Nakajima, Y. Honda, O. Kitao, H. Nakai, 
 T. Vreven, K. Throssell, J. A. Montgomery, Jr., J. E. Peralta, 
 F. Ogliaro, M. J. Bearpark, J. J. Heyd, E. N. Brothers, K. N. Kudin, 
 V. N. Staroverov, T. A. Keith, R. Kobayashi, J. Normand, 
 K. Raghavachari, A. P. Rendell, J. C. Burant, S. S. Iyengar, 
 J. Tomasi, M. Cossi, J. M. Millam, M. Klene, C. Adamo, R. Cammi, 
 J. W. Ochterski, R. L. Martin, K. Morokuma, O. Farkas, 
 J. B. Foresman, and D. J. Fox, Gaussian, Inc., Wallingford CT, 2019.
 
 ******************************************
 Gaussian 16:  ES64L-G16RevC.01  3-Jul-2019
                31-May-2022 
 ******************************************
 %mem=8gb
 %nproc=4
 Will use up to    4 processors via shared memory.
 %chk=conf-34.chk
 ----------------------------------------------------------------------
 # B3LYP/6-31G* empiricaldispersion=gd3 guess=read geom=check nosymm in
 tegral(ultrafinegrid)
 ----------------------------------------------------------------------
 1/29=2,38=1,172=1/1;
 2/12=2,15=1,40=1/2;
 3/5=1,6=6,7=1,11=2,14=-4,25=1,30=1,74=-5,75=-5,116=-2,124=31/1,2,3;
 4/5=1/1;
 5/5=2,38=6/2;
 6/7=2,8=2,9=2,10=2,28=1/1;
 99/5=1,9=1/99;
 -----------------------------------------------------
 Candidate Structure: Conf:34 Charge calc in gas phase
 -----------------------------------------------------
 Structure from the checkpoint file:  "conf-34.chk"
 Charge =  1 Multiplicity = 1
 Redundant internal coordinates found in file.  (old form).
 N,0,32.6346254041,-30.3173614181,42.7164302005
 C,0,32.2607453939,-31.7382462919,42.3670082692
 C,0,33.4285552791,-32.2690667074,41.5202380881
 O,0,33.4836710097,-31.9557164583,40.3366930161
 C,0,31.8809732128,-32.5011336928,43.648361056
 C,0,30.7459203046,-31.8255829132,44.3879258953
 C,0,31.0002807893,-30.9628893042,45.4622539825
 C,0,29.4153778685,-32.0027208365,43.974893099
 C,0,29.9599799567,-30.2985324298,46.1135126457
 C,0,28.3706977963,-31.348712997,44.6143420438
 C,0,28.6385343932,-30.4919120148,45.6925621798
 O,0,27.572486131,-29.8868310561,46.2754753636
 H,0,31.808961866,-29.8467568184,43.1025134233
 H,0,31.4031778783,-31.6729711849,41.6943483546
 H,0,31.6128638715,-33.5248081769,43.3623952984
 H,0,32.754874349,-32.5650647293,44.3105627757
 H,0,32.0223907991,-30.8137408125,45.8065388244
 H,0,29.1927848006,-32.6734989806,43.1478947705
 H,0,30.173221291,-29.6428086035,46.9547891793
 H,0,27.3405674641,-31.4923480754,44.3059855261
 H,0,27.8608173284,-29.3513533311,47.0314793715
 H,0,33.3386744976,-30.3256278022,43.4730656177
 H,0,33.0796828381,-29.6717295106,41.8992793794
 N,0,34.4210441116,-32.9517766314,42.1500038564
 C,0,35.7679231193,-32.9916939632,41.5606633607
 C,0,36.3793609734,-31.5666806628,41.6554946167
 O,0,36.8397220553,-31.0018838019,40.6720354395
 C,0,36.6354215019,-34.1290239699,42.1467846541
 C,0,36.8544437398,-34.0539927535,43.666908882
 C,0,37.9815656308,-34.1841267307,41.4090153971
 H,0,34.2989647423,-33.2382029057,43.1110962991
 H,0,35.6452494853,-33.1627373476,40.4902208156
 H,0,36.0818371295,-35.0524748602,41.9290720348
 H,0,37.4662567632,-33.1879751201,43.9413308101
 H,0,35.9182358207,-34.0115024715,44.2415134457
 H,0,37.3825948567,-34.9498840894,44.0069972785
 H,0,38.5673038313,-35.0418927545,41.7534153267
 H,0,38.5717913295,-33.2788093482,41.5923433062
 H,0,37.8426371467,-34.2791897483,40.3271434956
 N,0,36.3108902291,-31.0001953394,42.8988616638
 C,0,36.2847417371,-29.5572960461,43.1627790381
 C,0,35.5693786986,-29.3983802624,44.500751619
 O,0,34.6615102456,-30.1461981981,44.8569350137
 C,0,37.6137416313,-28.7933102611,43.0025693438
 C,0,37.8521010594,-28.1989028901,41.5989602424
 C,0,36.708128203,-27.289057451,41.0627552627
 N,0,35.8995655583,-27.8979561128,40.0011238589
 C,0,34.8015592688,-28.6957476532,40.1637246202
 N,0,33.9171518213,-28.5717891897,41.1363422321
 N,0,34.631641969,-29.6441883132,39.2009635315
 O,0,35.9361108898,-28.3363155699,45.2108476621
 H,0,35.3760430754,-28.2972945041,46.0112827775
 H,0,35.8385145117,-31.5456610535,43.6062552834
 H,0,35.5462511648,-29.1190193,42.473312882
 H,0,38.4382650369,-29.463020013,43.2681627272
 H,0,37.6269903288,-27.973577555,43.7263377489
 H,0,38.0234196004,-29.0046605736,40.8827023307
 H,0,38.7741416137,-27.6090906886,41.6529575218
 H,0,37.1288630595,-26.3707625213,40.6435016722
 H,0,36.0436288468,-26.9644730289,41.8707179217
 H,0,36.4045620176,-28.0655160195,39.1394140594
 H,0,33.9942428089,-27.6678893589,41.6005911007
 H,0,33.8320075567,-30.2513112198,39.3439697103
 H,0,35.4651815373,-30.1723219026,38.9636917662
 Recover connectivity data from disk.
                           ----------------------------
                           !    Current Parameters    !
                           ! (Angstroms and Degrees)  !
 --------------------------                            --------------------------
 ! Name  Definition              Value                                          !
 --------------------------------------------------------------------------------
 ! R1    R(1,2)                  1.5102                                         !
 ! R2    R(1,13)                 1.0258                                         !
 ! R3    R(1,22)                 1.0336                                         !
 ! R4    R(1,23)                 1.1325                                         !
 ! R5    R(2,3)                  1.5371                                         !
 ! R6    R(2,5)                  1.5389                                         !
 ! R7    R(2,14)                 1.0919                                         !
 ! R8    R(3,4)                  1.2256                                         !
 ! R9    R(3,24)                 1.3593                                         !
 ! R10   R(5,6)                  1.5138                                         !
 ! R11   R(5,15)                 1.0962                                         !
 ! R12   R(5,16)                 1.0983                                         !
 ! R13   R(6,7)                  1.4011                                         !
 ! R14   R(6,8)                  1.4044                                         !
 ! R15   R(7,9)                  1.3956                                         !
 ! R16   R(7,17)                 1.0888                                         !
 ! R17   R(8,10)                 1.3885                                         !
 ! R18   R(8,18)                 1.0878                                         !
 ! R19   R(9,11)                 1.4003                                         !
 ! R20   R(9,19)                 1.0877                                         !
 ! R21   R(10,11)                1.403                                          !
 ! R22   R(10,20)                1.0848                                         !
 ! R23   R(11,12)                1.3573                                         !
 ! R24   R(12,21)                0.9703                                         !
 ! R25   R(24,25)                1.4707                                         !
 ! R26   R(24,31)                1.0103                                         !
 ! R27   R(25,26)                1.5535                                         !
 ! R28   R(25,28)                1.5458                                         !
 ! R29   R(25,32)                1.0909                                         !
 ! R30   R(26,27)                1.224                                          !
 ! R31   R(26,40)                1.368                                          !
 ! R32   R(28,29)                1.5377                                         !
 ! R33   R(28,30)                1.536                                          !
 ! R34   R(28,33)                1.0985                                         !
 ! R35   R(29,34)                1.0953                                         !
 ! R36   R(29,35)                1.0993                                         !
 ! R37   R(29,36)                1.0942                                         !
 ! R38   R(30,37)                1.0943                                         !
 ! R39   R(30,38)                1.0962                                         !
 ! R40   R(30,39)                1.0949                                         !
 ! R41   R(40,41)                1.4671                                         !
 ! R42   R(40,53)                1.0105                                         !
 ! R43   R(41,42)                1.5255                                         !
 ! R44   R(41,44)                1.5413                                         !
 ! R45   R(41,54)                1.1013                                         !
 ! R46   R(42,43)                1.229                                          !
 ! R47   R(42,51)                1.3292                                         !
 ! R48   R(44,45)                1.5428                                         !
 ! R49   R(44,55)                1.0949                                         !
 ! R50   R(44,56)                1.0936                                         !
 ! R51   R(45,46)                1.5569                                         !
 ! R52   R(45,57)                1.0916                                         !
 ! R53   R(45,58)                1.0959                                         !
 ! R54   R(46,47)                1.4668                                         !
 ! R55   R(46,59)                1.0936                                         !
 ! R56   R(46,60)                1.0953                                         !
 ! R57   R(47,48)                1.3669                                         !
 ! R58   R(47,61)                1.0127                                         !
 ! R59   R(48,49)                1.3204                                         !
 ! R60   R(48,50)                1.3621                                         !
 ! R61   R(49,62)                1.0191                                         !
 ! R62   R(50,63)                1.0141                                         !
 ! R63   R(50,64)                1.0149                                         !
 ! R64   R(51,52)                0.9777                                         !
 ! A1    A(2,1,13)             108.6295                                         !
 ! A2    A(2,1,22)             109.2986                                         !
 ! A3    A(2,1,23)             117.82                                           !
 ! A4    A(13,1,22)            106.0471                                         !
 ! A5    A(13,1,23)            109.0464                                         !
 ! A6    A(22,1,23)            105.3712                                         !
 ! A7    A(1,2,3)              105.3246                                         !
 ! A8    A(1,2,5)              109.5642                                         !
 ! A9    A(1,2,14)             106.3041                                         !
 ! A10   A(3,2,5)              118.3601                                         !
 ! A11   A(3,2,14)             106.1402                                         !
 ! A12   A(5,2,14)             110.4129                                         !
 ! A13   A(2,3,4)              118.5473                                         !
 ! A14   A(2,3,24)             118.2262                                         !
 ! A15   A(4,3,24)             122.8875                                         !
 ! A16   A(2,5,6)              111.7526                                         !
 ! A17   A(2,5,15)             107.8245                                         !
 ! A18   A(2,5,16)             109.5438                                         !
 ! A19   A(6,5,15)             111.1495                                         !
 ! A20   A(6,5,16)             109.1481                                         !
 ! A21   A(15,5,16)            107.3102                                         !
 ! A22   A(5,6,7)              120.8803                                         !
 ! A23   A(5,6,8)              120.6902                                         !
 ! A24   A(7,6,8)              118.37                                           !
 ! A25   A(6,7,9)              121.0369                                         !
 ! A26   A(6,7,17)             119.8164                                         !
 ! A27   A(9,7,17)             119.1426                                         !
 ! A28   A(6,8,10)             121.1953                                         !
 ! A29   A(6,8,18)             119.6837                                         !
 ! A30   A(10,8,18)            119.1161                                         !
 ! A31   A(7,9,11)             119.8291                                         !
 ! A32   A(7,9,19)             120.1157                                         !
 ! A33   A(11,9,19)            120.0498                                         !
 ! A34   A(8,10,11)            119.8634                                         !
 ! A35   A(8,10,20)            121.4103                                         !
 ! A36   A(11,10,20)           118.7229                                         !
 ! A37   A(9,11,10)            119.7039                                         !
 ! A38   A(9,11,12)            123.402                                          !
 ! A39   A(10,11,12)           116.8941                                         !
 ! A40   A(11,12,21)           110.319                                          !
 ! A41   A(3,24,25)            119.7781                                         !
 ! A42   A(3,24,31)            119.6639                                         !
 ! A43   A(25,24,31)           118.9588                                         !
 ! A44   A(24,25,26)           108.1243                                         !
 ! A45   A(24,25,28)           112.4554                                         !
 ! A46   A(24,25,32)           107.1254                                         !
 ! A47   A(26,25,28)           115.5217                                         !
 ! A48   A(26,25,32)           104.3571                                         !
 ! A49   A(28,25,32)           108.6501                                         !
 ! A50   A(25,26,27)           121.4833                                         !
 ! A51   A(25,26,40)           114.5573                                         !
 ! A52   A(27,26,40)           123.9186                                         !
 ! A53   A(25,28,29)           114.7634                                         !
 ! A54   A(25,28,30)           109.6385                                         !
 ! A55   A(25,28,33)           105.1028                                         !
 ! A56   A(29,28,30)           110.5943                                         !
 ! A57   A(29,28,33)           107.9836                                         !
 ! A58   A(30,28,33)           108.4396                                         !
 ! A59   A(28,29,34)           111.4596                                         !
 ! A60   A(28,29,35)           113.4108                                         !
 ! A61   A(28,29,36)           109.6379                                         !
 ! A62   A(34,29,35)           108.3124                                         !
 ! A63   A(34,29,36)           107.4514                                         !
 ! A64   A(35,29,36)           106.2759                                         !
 ! A65   A(28,30,37)           110.2458                                         !
 ! A66   A(28,30,38)           111.2183                                         !
 ! A67   A(28,30,39)           111.5003                                         !
 ! A68   A(37,30,38)           107.8506                                         !
 ! A69   A(37,30,39)           108.1101                                         !
 ! A70   A(38,30,39)           107.7754                                         !
 ! A71   A(26,40,41)           124.8655                                         !
 ! A72   A(26,40,53)           115.8569                                         !
 ! A73   A(41,40,53)           113.3686                                         !
 ! A74   A(40,41,42)           105.5806                                         !
 ! A75   A(40,41,44)           116.9649                                         !
 ! A76   A(40,41,54)           106.9023                                         !
 ! A77   A(42,41,44)           116.3515                                         !
 ! A78   A(42,41,54)           101.1386                                         !
 ! A79   A(44,41,54)           108.4134                                         !
 ! A80   A(41,42,43)           122.4951                                         !
 ! A81   A(41,42,51)           114.9873                                         !
 ! A82   A(43,42,51)           122.3577                                         !
 ! A83   A(41,44,45)           114.7562                                         !
 ! A84   A(41,44,55)           108.7186                                         !
 ! A85   A(41,44,56)           108.2521                                         !
 ! A86   A(45,44,55)           109.8762                                         !
 ! A87   A(45,44,56)           108.1462                                         !
 ! A88   A(55,44,56)           106.7867                                         !
 ! A89   A(44,45,46)           115.1481                                         !
 ! A90   A(44,45,57)           109.6825                                         !
 ! A91   A(44,45,58)           107.009                                          !
 ! A92   A(46,45,57)           108.7049                                         !
 ! A93   A(46,45,58)           108.7027                                         !
 ! A94   A(57,45,58)           107.3108                                         !
 ! A95   A(45,46,47)           114.3118                                         !
 ! A96   A(45,46,59)           109.8797                                         !
 ! A97   A(45,46,60)           111.4009                                         !
 ! A98   A(47,46,59)           106.449                                          !
 ! A99   A(47,46,60)           108.8129                                         !
 ! A100  A(59,46,60)           105.5066                                         !
 ! A101  A(46,47,48)           126.7955                                         !
 ! A102  A(46,47,61)           114.1821                                         !
 ! A103  A(48,47,61)           113.903                                          !
 ! A104  A(47,48,49)           124.809                                          !
 ! A105  A(47,48,50)           114.9934                                         !
 ! A106  A(49,48,50)           120.1624                                         !
 ! A107  A(48,49,62)           111.6024                                         !
 ! A108  A(48,50,63)           114.5535                                         !
 ! A109  A(48,50,64)           115.1594                                         !
 ! A110  A(63,50,64)           111.6556                                         !
 ! A111  A(42,51,52)           108.1324                                         !
 ! D1    D(13,1,2,3)           167.6884                                         !
 ! D2    D(13,1,2,5)           -63.9893                                         !
 ! D3    D(13,1,2,14)           55.3258                                         !
 ! D4    D(22,1,2,3)           -77.0264                                         !
 ! D5    D(22,1,2,5)            51.2959                                         !
 ! D6    D(22,1,2,14)          170.611                                          !
 ! D7    D(23,1,2,3)            43.1282                                         !
 ! D8    D(23,1,2,5)           171.4506                                         !
 ! D9    D(23,1,2,14)          -69.2344                                         !
 ! D10   D(1,2,3,4)            -79.4891                                         !
 ! D11   D(1,2,3,24)            94.0211                                         !
 ! D12   D(5,2,3,4)            157.658                                          !
 ! D13   D(5,2,3,24)           -28.8318                                         !
 ! D14   D(14,2,3,4)            32.9891                                         !
 ! D15   D(14,2,3,24)         -153.5007                                         !
 ! D16   D(1,2,5,6)             57.4118                                         !
 ! D17   D(1,2,5,15)           179.8472                                         !
 ! D18   D(1,2,5,16)           -63.6786                                         !
 ! D19   D(3,2,5,6)            178.1134                                         !
 ! D20   D(3,2,5,15)           -59.4512                                         !
 ! D21   D(3,2,5,16)            57.023                                          !
 ! D22   D(14,2,5,6)           -59.3419                                         !
 ! D23   D(14,2,5,15)           63.0936                                         !
 ! D24   D(14,2,5,16)          179.5677                                         !
 ! D25   D(2,3,24,25)         -154.6371                                         !
 ! D26   D(2,3,24,31)           10.8004                                         !
 ! D27   D(4,3,24,25)           18.5727                                         !
 ! D28   D(4,3,24,31)         -175.9898                                         !
 ! D29   D(2,5,6,7)            -97.0768                                         !
 ! D30   D(2,5,6,8)             80.0724                                         !
 ! D31   D(15,5,6,7)           142.4101                                         !
 ! D32   D(15,5,6,8)           -40.4407                                         !
 ! D33   D(16,5,6,7)            24.2429                                         !
 ! D34   D(16,5,6,8)          -158.6078                                         !
 ! D35   D(5,6,7,9)            177.5197                                         !
 ! D36   D(5,6,7,17)            -3.2225                                         !
 ! D37   D(8,6,7,9)              0.3058                                         !
 ! D38   D(8,6,7,17)           179.5636                                         !
 ! D39   D(5,6,8,10)          -177.5666                                         !
 ! D40   D(5,6,8,18)             3.2466                                         !
 ! D41   D(7,6,8,10)            -0.3471                                         !
 ! D42   D(7,6,8,18)          -179.5339                                         !
 ! D43   D(6,7,9,11)            -0.0009                                         !
 ! D44   D(6,7,9,19)           179.1528                                         !
 ! D45   D(17,7,9,11)         -179.2636                                         !
 ! D46   D(17,7,9,19)           -0.1099                                         !
 ! D47   D(6,8,10,11)            0.0822                                         !
 ! D48   D(6,8,10,20)         -179.244                                          !
 ! D49   D(18,8,10,11)         179.2735                                         !
 ! D50   D(18,8,10,20)          -0.0527                                         !
 ! D51   D(7,9,11,10)           -0.2703                                         !
 ! D52   D(7,9,11,12)          179.7859                                         !
 ! D53   D(19,9,11,10)        -179.4246                                         !
 ! D54   D(19,9,11,12)           0.6316                                         !
 ! D55   D(8,10,11,9)            0.2304                                         !
 ! D56   D(8,10,11,12)        -179.8223                                         !
 ! D57   D(20,10,11,9)         179.5746                                         !
 ! D58   D(20,10,11,12)         -0.478                                          !
 ! D59   D(9,11,12,21)          -2.6452                                         !
 ! D60   D(10,11,12,21)        177.4096                                         !
 ! D61   D(3,24,25,26)          68.7075                                         !
 ! D62   D(3,24,25,28)        -162.55                                           !
 ! D63   D(3,24,25,32)         -43.247                                          !
 ! D64   D(31,24,25,26)        -96.8325                                         !
 ! D65   D(31,24,25,28)         31.9101                                         !
 ! D66   D(31,24,25,32)        151.213                                          !
 ! D67   D(24,25,26,27)       -127.3264                                         !
 ! D68   D(24,25,26,40)         50.4382                                         !
 ! D69   D(28,25,26,27)        105.6863                                         !
 ! D70   D(28,25,26,40)        -76.5492                                         !
 ! D71   D(32,25,26,27)        -13.5226                                         !
 ! D72   D(32,25,26,40)        164.2419                                         !
 ! D73   D(24,25,28,29)        -59.4129                                         !
 ! D74   D(24,25,28,30)        175.4243                                         !
 ! D75   D(24,25,28,33)         59.0549                                         !
 ! D76   D(26,25,28,29)         65.36                                           !
 ! D77   D(26,25,28,30)        -59.8028                                         !
 ! D78   D(26,25,28,33)       -176.1722                                         !
 ! D79   D(32,25,28,29)       -177.8227                                         !
 ! D80   D(32,25,28,30)         57.0145                                         !
 ! D81   D(32,25,28,33)        -59.355                                          !
 ! D82   D(25,26,40,41)       -153.6149                                         !
 ! D83   D(25,26,40,53)         -2.5862                                         !
 ! D84   D(27,26,40,41)         24.0878                                         !
 ! D85   D(27,26,40,53)        175.1164                                         !
 ! D86   D(25,28,29,34)        -67.272                                          !
 ! D87   D(25,28,29,35)         55.2811                                         !
 ! D88   D(25,28,29,36)        173.8855                                         !
 ! D89   D(30,28,29,34)         57.3891                                         !
 ! D90   D(30,28,29,35)        179.9423                                         !
 ! D91   D(30,28,29,36)        -61.4534                                         !
 ! D92   D(33,28,29,34)        175.8936                                         !
 ! D93   D(33,28,29,35)        -61.5532                                         !
 ! D94   D(33,28,29,36)         57.0512                                         !
 ! D95   D(25,28,30,37)       -174.889                                          !
 ! D96   D(25,28,30,38)         65.5283                                         !
 ! D97   D(25,28,30,39)        -54.7974                                         !
 ! D98   D(29,28,30,37)         57.5799                                         !
 ! D99   D(29,28,30,38)        -62.0027                                         !
 ! D100  D(29,28,30,39)        177.6716                                         !
 ! D101  D(33,28,30,37)        -60.6467                                         !
 ! D102  D(33,28,30,38)        179.7706                                         !
 ! D103  D(33,28,30,39)         59.4449                                         !
 ! D104  D(26,40,41,42)        153.9735                                         !
 ! D105  D(26,40,41,44)        -74.8122                                         !
 ! D106  D(26,40,41,54)         46.8557                                         !
 ! D107  D(53,40,41,42)          2.3217                                         !
 ! D108  D(53,40,41,44)        133.5361                                         !
 ! D109  D(53,40,41,54)       -104.7961                                         !
 ! D110  D(40,41,42,43)        -33.5026                                         !
 ! D111  D(40,41,42,51)        150.9972                                         !
 ! D112  D(44,41,42,43)       -165.0664                                         !
 ! D113  D(44,41,42,51)         19.4334                                         !
 ! D114  D(54,41,42,43)         77.753                                          !
 ! D115  D(54,41,42,51)        -97.7472                                         !
 ! D116  D(40,41,44,45)         91.6021                                         !
 ! D117  D(40,41,44,55)        -31.872                                          !
 ! D118  D(40,41,44,56)       -147.52                                           !
 ! D119  D(42,41,44,45)       -142.3606                                         !
 ! D120  D(42,41,44,55)         94.1653                                         !
 ! D121  D(42,41,44,56)        -21.4827                                         !
 ! D122  D(54,41,44,45)        -29.2737                                         !
 ! D123  D(54,41,44,55)       -152.7478                                         !
 ! D124  D(54,41,44,56)         91.6042                                         !
 ! D125  D(41,42,51,52)        176.0766                                         !
 ! D126  D(43,42,51,52)          0.5695                                         !
 ! D127  D(41,44,45,46)         53.7518                                         !
 ! D128  D(41,44,45,57)        -69.2172                                         !
 ! D129  D(41,44,45,58)        174.6854                                         !
 ! D130  D(55,44,45,46)        176.6056                                         !
 ! D131  D(55,44,45,57)         53.6366                                         !
 ! D132  D(55,44,45,58)        -62.4608                                         !
 ! D133  D(56,44,45,46)        -67.1842                                         !
 ! D134  D(56,44,45,57)        169.8468                                         !
 ! D135  D(56,44,45,58)         53.7494                                         !
 ! D136  D(44,45,46,47)       -106.798                                          !
 ! D137  D(44,45,46,59)        133.6138                                         !
 ! D138  D(44,45,46,60)         17.0587                                         !
 ! D139  D(57,45,46,47)         16.6905                                         !
 ! D140  D(57,45,46,59)       -102.8977                                         !
 ! D141  D(57,45,46,60)        140.5472                                         !
 ! D142  D(58,45,46,47)        133.1958                                         !
 ! D143  D(58,45,46,59)         13.6076                                         !
 ! D144  D(58,45,46,60)       -102.9475                                         !
 ! D145  D(45,46,47,48)         86.982                                          !
 ! D146  D(45,46,47,61)        -65.959                                          !
 ! D147  D(59,46,47,48)       -151.5218                                         !
 ! D148  D(59,46,47,61)         55.5372                                         !
 ! D149  D(60,46,47,48)        -38.2511                                         !
 ! D150  D(60,46,47,61)        168.8079                                         !
 ! D151  D(46,47,48,49)         34.0454                                         !
 ! D152  D(46,47,48,50)       -148.1197                                         !
 ! D153  D(61,47,48,49)       -172.95                                           !
 ! D154  D(61,47,48,50)          4.8848                                         !
 ! D155  D(47,48,49,62)         15.8374                                         !
 ! D156  D(50,48,49,62)       -161.8929                                         !
 ! D157  D(47,48,50,63)        178.1368                                         !
 ! D158  D(47,48,50,64)         46.6212                                         !
 ! D159  D(49,48,50,63)         -3.9193                                         !
 ! D160  D(49,48,50,64)       -135.4349                                         !
 --------------------------------------------------------------------------------
 Symmetry turned off by external request.
 Stoichiometry    C20H33N6O5(1+)
 Framework group  C1[X(C20H33N6O5)]
 Deg. of freedom   186
 Full point group                 C1      NOp   1
                          Input orientation:                          
 ---------------------------------------------------------------------
 Center     Atomic      Atomic             Coordinates (Angstroms)
 Number     Number       Type             X           Y           Z
 ---------------------------------------------------------------------
      1          7           0       32.634625  -30.317361   42.716430
      2          6           0       32.260745  -31.738246   42.367008
      3          6           0       33.428555  -32.269067   41.520238
      4          8           0       33.483671  -31.955716   40.336693
      5          6           0       31.880973  -32.501134   43.648361
      6          6           0       30.745920  -31.825583   44.387926
      7          6           0       31.000281  -30.962889   45.462254
      8          6           0       29.415378  -32.002721   43.974893
      9          6           0       29.959980  -30.298532   46.113513
     10          6           0       28.370698  -31.348713   44.614342
     11          6           0       28.638534  -30.491912   45.692562
     12          8           0       27.572486  -29.886831   46.275475
     13          1           0       31.808962  -29.846757   43.102513
     14          1           0       31.403178  -31.672971   41.694348
     15          1           0       31.612864  -33.524808   43.362395
     16          1           0       32.754874  -32.565065   44.310563
     17          1           0       32.022391  -30.813741   45.806539
     18          1           0       29.192785  -32.673499   43.147895
     19          1           0       30.173221  -29.642809   46.954789
     20          1           0       27.340567  -31.492348   44.305986
     21          1           0       27.860817  -29.351353   47.031479
     22          1           0       33.338674  -30.325628   43.473066
     23          1           0       33.079683  -29.671730   41.899279
     24          7           0       34.421044  -32.951777   42.150004
     25          6           0       35.767923  -32.991694   41.560663
     26          6           0       36.379361  -31.566681   41.655495
     27          8           0       36.839722  -31.001884   40.672035
     28          6           0       36.635422  -34.129024   42.146785
     29          6           0       36.854444  -34.053993   43.666909
     30          6           0       37.981566  -34.184127   41.409015
     31          1           0       34.298965  -33.238203   43.111096
     32          1           0       35.645249  -33.162737   40.490221
     33          1           0       36.081837  -35.052475   41.929072
     34          1           0       37.466257  -33.187975   43.941331
     35          1           0       35.918236  -34.011502   44.241513
     36          1           0       37.382595  -34.949884   44.006997
     37          1           0       38.567304  -35.041893   41.753415
     38          1           0       38.571791  -33.278809   41.592343
     39          1           0       37.842637  -34.279190   40.327143
     40          7           0       36.310890  -31.000195   42.898862
     41          6           0       36.284742  -29.557296   43.162779
     42          6           0       35.569379  -29.398380   44.500752
     43          8           0       34.661510  -30.146198   44.856935
     44          6           0       37.613742  -28.793310   43.002569
     45          6           0       37.852101  -28.198903   41.598960
     46          6           0       36.708128  -27.289057   41.062755
     47          7           0       35.899566  -27.897956   40.001124
     48          6           0       34.801559  -28.695748   40.163725
     49          7           0       33.917152  -28.571789   41.136342
     50          7           0       34.631642  -29.644188   39.200964
     51          8           0       35.936111  -28.336316   45.210848
     52          1           0       35.376043  -28.297295   46.011283
     53          1           0       35.838515  -31.545661   43.606255
     54          1           0       35.546251  -29.119019   42.473313
     55          1           0       38.438265  -29.463020   43.268163
     56          1           0       37.626990  -27.973578   43.726338
     57          1           0       38.023420  -29.004661   40.882702
     58          1           0       38.774142  -27.609091   41.652958
     59          1           0       37.128863  -26.370763   40.643502
     60          1           0       36.043629  -26.964473   41.870718
     61          1           0       36.404562  -28.065516   39.139414
     62          1           0       33.994243  -27.667889   41.600591
     63          1           0       33.832008  -30.251311   39.343970
     64          1           0       35.465182  -30.172322   38.963692
 ---------------------------------------------------------------------
 Rotational constants (GHZ):           0.2010409           0.0911634           0.0823276
 Standard basis: 6-31G(d) (6D, 7F)
   531 basis functions,  1000 primitive gaussians,   531 cartesian basis functions
   117 alpha electrons      117 beta electrons
       nuclear repulsion energy      3458.1954467798 Hartrees.
 NAtoms=   64 NActive=   64 NUniq=   64 SFac= 1.00D+00 NAtFMM=   60 NAOKFM=T Big=T
 Integral buffers will be    131072 words long.
 Raffenetti 2 integral format.
 Two-electron integral symmetry is turned off.
 Nuclear repulsion after empirical dispersion term =     3458.1039436575 Hartrees.
 One-electron integrals computed using PRISM.
 NBasis=   531 RedAO= T EigKep=  4.31D-04  NBF=   531
 NBsUse=   531 1.00D-06 EigRej= -1.00D+00 NBFU=   531
 Initial guess from the checkpoint file:  "conf-34.chk"
 B after Tr=     0.000000    0.000000    0.000000
         Rot=    1.000000    0.000000    0.000000    0.000000 Ang=   0.00 deg.
 Requested convergence on RMS density matrix=1.00D-08 within 128 cycles.
 Requested convergence on MAX density matrix=1.00D-06.
 Requested convergence on             energy=1.00D-06.
 No special actions if energy rises.
 SCF Done:  E(RB3LYP) =  -1486.56629585     A.U. after    1 cycles
            NFock=  1  Conv=0.73D-08     -V/T= 2.0094

 **********************************************************************

            Population analysis using the SCF Density.

 **********************************************************************

 Alpha  occ. eigenvalues --  -19.34413 -19.29091 -19.27157 -19.24897 -19.23627
 Alpha  occ. eigenvalues --  -14.53815 -14.49342 -14.48005 -14.46103 -14.43819
 Alpha  occ. eigenvalues --  -14.41652 -10.47090 -10.42214 -10.40509 -10.40339
 Alpha  occ. eigenvalues --  -10.37847 -10.36291 -10.35023 -10.34650 -10.33065
 Alpha  occ. eigenvalues --  -10.32580 -10.30730 -10.30198 -10.29949 -10.29742
 Alpha  occ. eigenvalues --  -10.29495 -10.29186 -10.28568 -10.28428 -10.28350
 Alpha  occ. eigenvalues --  -10.26959  -1.25676  -1.17238  -1.16400  -1.15428
 Alpha  occ. eigenvalues --   -1.15230  -1.09428  -1.08922  -1.06054  -1.04219
 Alpha  occ. eigenvalues --   -0.99291  -0.96127  -0.95620  -0.92490  -0.90959
 Alpha  occ. eigenvalues --   -0.90231  -0.85881  -0.85149  -0.84762  -0.81760
 Alpha  occ. eigenvalues --   -0.79640  -0.78846  -0.77869  -0.75641  -0.72787
 Alpha  occ. eigenvalues --   -0.72393  -0.71678  -0.70339  -0.70054  -0.69284
 Alpha  occ. eigenvalues --   -0.68833  -0.68590  -0.66507  -0.65781  -0.65163
 Alpha  occ. eigenvalues --   -0.64518  -0.63610  -0.62792  -0.62162  -0.61477
 Alpha  occ. eigenvalues --   -0.60598  -0.59428  -0.58707  -0.58233  -0.57710
 Alpha  occ. eigenvalues --   -0.57377  -0.57177  -0.56568  -0.55866  -0.55053
 Alpha  occ. eigenvalues --   -0.54636  -0.54121  -0.53756  -0.53239  -0.52667
 Alpha  occ. eigenvalues --   -0.52443  -0.52168  -0.51448  -0.51110  -0.50917
 Alpha  occ. eigenvalues --   -0.50609  -0.50099  -0.49506  -0.49096  -0.48526
 Alpha  occ. eigenvalues --   -0.48027  -0.47646  -0.46823  -0.46466  -0.46065
 Alpha  occ. eigenvalues --   -0.45389  -0.44622  -0.44544  -0.44062  -0.43733
 Alpha  occ. eigenvalues --   -0.43643  -0.43176  -0.42118  -0.40811  -0.40341
 Alpha  occ. eigenvalues --   -0.38430  -0.37386  -0.35838  -0.35762  -0.35545
 Alpha  occ. eigenvalues --   -0.34371  -0.31975
 Alpha virt. eigenvalues --   -0.14176  -0.12776  -0.10740  -0.10182  -0.09578
 Alpha virt. eigenvalues --   -0.07176  -0.06855  -0.05415  -0.03804  -0.02107
 Alpha virt. eigenvalues --   -0.01785  -0.01007  -0.00806  -0.00323   0.00250
 Alpha virt. eigenvalues --    0.00970   0.01378   0.02150   0.02327   0.02884
 Alpha virt. eigenvalues --    0.03389   0.03789   0.03987   0.04242   0.05070
 Alpha virt. eigenvalues --    0.05111   0.05445   0.05777   0.06275   0.06642
 Alpha virt. eigenvalues --    0.07101   0.07631   0.07839   0.08298   0.08632
 Alpha virt. eigenvalues --    0.08799   0.09197   0.09761   0.09866   0.10290
 Alpha virt. eigenvalues --    0.10391   0.10563   0.11349   0.11639   0.12353
 Alpha virt. eigenvalues --    0.12809   0.13101   0.13793   0.14156   0.14905
 Alpha virt. eigenvalues --    0.15194   0.15785   0.16789   0.17745   0.18555
 Alpha virt. eigenvalues --    0.19388   0.20290   0.20872   0.21269   0.23155
 Alpha virt. eigenvalues --    0.24197   0.24433   0.25025   0.25588   0.26985
 Alpha virt. eigenvalues --    0.27909   0.29759   0.31410   0.34518   0.34838
 Alpha virt. eigenvalues --    0.35935   0.37536   0.38496   0.39136   0.39637
 Alpha virt. eigenvalues --    0.39931   0.41369   0.41649   0.42311   0.42828
 Alpha virt. eigenvalues --    0.42976   0.43273   0.43826   0.43942   0.44509
 Alpha virt. eigenvalues --    0.45684   0.45798   0.46308   0.47123   0.47883
 Alpha virt. eigenvalues --    0.48152   0.48816   0.49159   0.49674   0.50458
 Alpha virt. eigenvalues --    0.50656   0.50957   0.51591   0.52063   0.52769
 Alpha virt. eigenvalues --    0.52858   0.53037   0.54300   0.54927   0.55008
 Alpha virt. eigenvalues --    0.55489   0.56115   0.56649   0.57026   0.57808
 Alpha virt. eigenvalues --    0.58140   0.58698   0.59111   0.59859   0.60372
 Alpha virt. eigenvalues --    0.61167   0.61584   0.62566   0.63121   0.63717
 Alpha virt. eigenvalues --    0.64812   0.64968   0.65486   0.65952   0.66431
 Alpha virt. eigenvalues --    0.67487   0.68175   0.69085   0.69653   0.70046
 Alpha virt. eigenvalues --    0.70870   0.71454   0.72719   0.73110   0.73851
 Alpha virt. eigenvalues --    0.74212   0.74385   0.74835   0.75153   0.75597
 Alpha virt. eigenvalues --    0.75818   0.76115   0.76425   0.77264   0.77928
 Alpha virt. eigenvalues --    0.78323   0.79026   0.79448   0.79616   0.80019
 Alpha virt. eigenvalues --    0.80566   0.80790   0.81373   0.81731   0.81914
 Alpha virt. eigenvalues --    0.82425   0.82660   0.83420   0.83924   0.84432
 Alpha virt. eigenvalues --    0.84894   0.85226   0.86189   0.86733   0.87126
 Alpha virt. eigenvalues --    0.87264   0.87448   0.87813   0.88728   0.88987
 Alpha virt. eigenvalues --    0.89590   0.89925   0.90205   0.90695   0.92219
 Alpha virt. eigenvalues --    0.93264   0.93995   0.94690   0.95250   0.96611
 Alpha virt. eigenvalues --    0.97167   0.97601   0.98976   0.99842   1.00214
 Alpha virt. eigenvalues --    1.01811   1.02315   1.03794   1.05187   1.05731
 Alpha virt. eigenvalues --    1.06369   1.07418   1.09116   1.09405   1.09980
 Alpha virt. eigenvalues --    1.10897   1.11986   1.13186   1.14134   1.14621
 Alpha virt. eigenvalues --    1.15120   1.16606   1.17015   1.17282   1.19342
 Alpha virt. eigenvalues --    1.20973   1.22022   1.22239   1.24793   1.25340
 Alpha virt. eigenvalues --    1.26163   1.27151   1.27702   1.29784   1.30985
 Alpha virt. eigenvalues --    1.32287   1.33503   1.33938   1.35306   1.35576
 Alpha virt. eigenvalues --    1.35760   1.36258   1.37036   1.37827   1.40101
 Alpha virt. eigenvalues --    1.40596   1.40942   1.41489   1.42386   1.43367
 Alpha virt. eigenvalues --    1.45496   1.46613   1.46989   1.48444   1.49552
 Alpha virt. eigenvalues --    1.50293   1.51709   1.53395   1.55910   1.56922
 Alpha virt. eigenvalues --    1.57825   1.58978   1.59467   1.60910   1.61397
 Alpha virt. eigenvalues --    1.62518   1.63530   1.64017   1.64346   1.65363
 Alpha virt. eigenvalues --    1.65791   1.66528   1.67284   1.67597   1.68794
 Alpha virt. eigenvalues --    1.69116   1.70053   1.70400   1.70979   1.71153
 Alpha virt. eigenvalues --    1.72425   1.73021   1.73614   1.74066   1.76301
 Alpha virt. eigenvalues --    1.77351   1.77556   1.77878   1.78711   1.79397
 Alpha virt. eigenvalues --    1.80175   1.80666   1.81505   1.82344   1.83111
 Alpha virt. eigenvalues --    1.84136   1.84440   1.84801   1.85182   1.86409
 Alpha virt. eigenvalues --    1.86805   1.87422   1.87776   1.89204   1.89260
 Alpha virt. eigenvalues --    1.90125   1.90983   1.91809   1.92644   1.94042
 Alpha virt. eigenvalues --    1.94938   1.95169   1.96567   1.96813   1.97656
 Alpha virt. eigenvalues --    1.98187   1.98738   1.99873   2.00165   2.02172
 Alpha virt. eigenvalues --    2.02758   2.03251   2.04043   2.04711   2.06231
 Alpha virt. eigenvalues --    2.07395   2.07826   2.09320   2.11107   2.12701
 Alpha virt. eigenvalues --    2.14647   2.15636   2.16011   2.16374   2.16619
 Alpha virt. eigenvalues --    2.17063   2.19236   2.20234   2.21016   2.21419
 Alpha virt. eigenvalues --    2.22390   2.22915   2.24037   2.25368   2.26251
 Alpha virt. eigenvalues --    2.28015   2.28574   2.30080   2.30692   2.31203
 Alpha virt. eigenvalues --    2.31982   2.33146   2.33657   2.35944   2.37867
 Alpha virt. eigenvalues --    2.39207   2.39883   2.40852   2.41348   2.42135
 Alpha virt. eigenvalues --    2.42379   2.44430   2.45231   2.46608   2.47738
 Alpha virt. eigenvalues --    2.48141   2.49115   2.49752   2.50499   2.51337
 Alpha virt. eigenvalues --    2.51940   2.53588   2.55209   2.55832   2.56333
 Alpha virt. eigenvalues --    2.57443   2.58336   2.60596   2.61711   2.62304
 Alpha virt. eigenvalues --    2.64367   2.64712   2.65034   2.67335   2.68705
 Alpha virt. eigenvalues --    2.70576   2.72454   2.74671   2.76009   2.79463
 Alpha virt. eigenvalues --    2.82646   2.85429   2.87186   2.88706   2.90173
 Alpha virt. eigenvalues --    2.92223   2.93704   2.95831   2.97101   3.01950
 Alpha virt. eigenvalues --    3.03600   3.06710   3.31145   3.74874   3.76970
 Alpha virt. eigenvalues --    3.82893   3.84897   3.86043   3.90939   3.94641
 Alpha virt. eigenvalues --    3.99476   4.01914   4.02978   4.04118   4.06383
 Alpha virt. eigenvalues --    4.10546   4.12065   4.12462   4.15453   4.17430
 Alpha virt. eigenvalues --    4.20555   4.22164   4.24061   4.27767   4.28443
 Alpha virt. eigenvalues --    4.32188   4.37675   4.38659   4.46294   4.55617
 Alpha virt. eigenvalues --    4.56178   4.59170   4.63699   4.65695
          Condensed to atoms (all electrons):
 Mulliken charges:
               1
     1  N   -0.828626
     2  C   -0.070144
     3  C    0.627182
     4  O   -0.510059
     5  C   -0.396514
     6  C    0.135532
     7  C   -0.224647
     8  C   -0.186330
     9  C   -0.189306
    10  C   -0.152737
    11  C    0.359992
    12  O   -0.621382
    13  H    0.389506
    14  H    0.216324
    15  H    0.195950
    16  H    0.158561
    17  H    0.145937
    18  H    0.147673
    19  H    0.140415
    20  H    0.171855
    21  H    0.419794
    22  H    0.412447
    23  H    0.448641
    24  N   -0.635201
    25  C   -0.053251
    26  C    0.610453
    27  O   -0.516711
    28  C   -0.104022
    29  C   -0.485350
    30  C   -0.455975
    31  H    0.349971
    32  H    0.209021
    33  H    0.164413
    34  H    0.165069
    35  H    0.128408
    36  H    0.186480
    37  H    0.170356
    38  H    0.163267
    39  H    0.167902
    40  N   -0.614930
    41  C   -0.028849
    42  C    0.575957
    43  O   -0.506360
    44  C   -0.293069
    45  C   -0.285480
    46  C   -0.170297
    47  N   -0.572145
    48  C    0.688884
    49  N   -0.783756
    50  N   -0.742997
    51  O   -0.529082
    52  H    0.437386
    53  H    0.337400
    54  H    0.200679
    55  H    0.174997
    56  H    0.183107
    57  H    0.193741
    58  H    0.161835
    59  H    0.186184
    60  H    0.148896
    61  H    0.344596
    62  H    0.303760
    63  H    0.376930
    64  H    0.357718
 Sum of Mulliken charges =   1.00000
 Mulliken charges with hydrogens summed into heavy atoms:
               1
     1  N    0.421968
     2  C    0.146181
     3  C    0.627182
     4  O   -0.510059
     5  C   -0.042003
     6  C    0.135532
     7  C   -0.078710
     8  C   -0.038657
     9  C   -0.048890
    10  C    0.019117
    11  C    0.359992
    12  O   -0.201588
    24  N   -0.285230
    25  C    0.155769
    26  C    0.610453
    27  O   -0.516711
    28  C    0.060391
    29  C   -0.005393
    30  C    0.045550
    40  N   -0.277530
    41  C    0.171830
    42  C    0.575957
    43  O   -0.506360
    44  C    0.065036
    45  C    0.070097
    46  C    0.164783
    47  N   -0.227549
    48  C    0.688884
    49  N   -0.479996
    50  N   -0.008348
    51  O   -0.091696
 Electronic spatial extent (au):  <R**2>=        3306712.4844
 Charge=              1.0000 electrons
 Dipole moment (field-independent basis, Debye):
    X=            164.7118    Y=           -145.6113    Z=            209.8825  Tot=            303.9462
 Quadrupole moment (field-independent basis, Debye-Ang):
   XX=           5503.9288   YY=           4267.8242   ZZ=           9010.1930
   XY=          -4991.6784   XZ=           7179.7381   YZ=          -6356.2794
 Traceless Quadrupole moment (field-independent basis, Debye-Ang):
   XX=           -756.7199   YY=          -1992.8245   ZZ=           2749.5444
   XY=          -4991.6784   XZ=           7179.7381   YZ=          -6356.2794
 Octapole moment (field-independent basis, Debye-Ang**2):
  XXX=         178908.8239  YYY=        -120285.0828  ZZZ=         380169.5863  XYY=         146339.3486
  XXY=        -166650.2831  XXZ=         239467.4194  XZZ=         307478.8903  YZZ=        -272446.4090
  YYZ=         186231.4415  XYZ=        -217419.5924
 Hexadecapole moment (field-independent basis, Debye-Ang**3):
 XXXX=        5623439.2709 YYYY=        3218896.2904 ZZZZ=       15753667.5780 XXXY=       -5408742.9426
 XXXZ=        7774707.8268 YYYX=       -4128472.8875 YYYZ=       -5250375.2761 ZZZX=       12942118.2661
 ZZZY=      -11469792.6668 XXYY=        4877463.0631 XXZZ=       10229802.1010 YYZZ=        7968435.6671
 XXYZ=       -7246700.6057 YYXZ=        6373207.2875 ZZXY=       -9298973.5768
 N-N= 3.458103943657D+03 E-N=-1.035138263933D+04  KE= 1.472692040501D+03
 Unable to Open any file for archive entry.
 1\1\GINC-AMR-091\SP\RB3LYP\6-31G(d)\C20H33N6O5(1+)\KENGMITH\31-May-202
 2\0\\# B3LYP/6-31G* empiricaldispersion=gd3 guess=read geom=check nosy
 mm integral(ultrafinegrid)\\Candidate Structure: Conf:34 Charge calc i
 n gas phase\\1,1\N,0,32.6346254041,-30.3173614181,42.7164302005\C,0,32
 .2607453939,-31.7382462919,42.3670082692\C,0,33.4285552791,-32.2690667
 074,41.5202380881\O,0,33.4836710097,-31.9557164583,40.3366930161\C,0,3
 1.8809732128,-32.5011336928,43.648361056\C,0,30.7459203046,-31.8255829
 132,44.3879258953\C,0,31.0002807893,-30.9628893042,45.4622539825\C,0,2
 9.4153778685,-32.0027208365,43.974893099\C,0,29.9599799567,-30.2985324
 298,46.1135126457\C,0,28.3706977963,-31.348712997,44.6143420438\C,0,28
 .6385343932,-30.4919120148,45.6925621798\O,0,27.572486131,-29.88683105
 61,46.2754753636\H,0,31.808961866,-29.8467568184,43.1025134233\H,0,31.
 4031778783,-31.6729711849,41.6943483546\H,0,31.6128638715,-33.52480817
 69,43.3623952984\H,0,32.754874349,-32.5650647293,44.3105627757\H,0,32.
 0223907991,-30.8137408125,45.8065388244\H,0,29.1927848006,-32.67349898
 06,43.1478947705\H,0,30.173221291,-29.6428086035,46.9547891793\H,0,27.
 3405674641,-31.4923480754,44.3059855261\H,0,27.8608173284,-29.35135333
 11,47.0314793715\H,0,33.3386744976,-30.3256278022,43.4730656177\H,0,33
 .0796828381,-29.6717295106,41.8992793794\N,0,34.4210441116,-32.9517766
 314,42.1500038564\C,0,35.7679231193,-32.9916939632,41.5606633607\C,0,3
 6.3793609734,-31.5666806628,41.6554946167\O,0,36.8397220553,-31.001883
 8019,40.6720354395\C,0,36.6354215019,-34.1290239699,42.1467846541\C,0,
 36.8544437398,-34.0539927535,43.666908882\C,0,37.9815656308,-34.184126
 7307,41.4090153971\H,0,34.2989647423,-33.2382029057,43.1110962991\H,0,
 35.6452494853,-33.1627373476,40.4902208156\H,0,36.0818371295,-35.05247
 48602,41.9290720348\H,0,37.4662567632,-33.1879751201,43.9413308101\H,0
 ,35.9182358207,-34.0115024715,44.2415134457\H,0,37.3825948567,-34.9498
 840894,44.0069972785\H,0,38.5673038313,-35.0418927545,41.7534153267\H,
 0,38.5717913295,-33.2788093482,41.5923433062\H,0,37.8426371467,-34.279
 1897483,40.3271434956\N,0,36.3108902291,-31.0001953394,42.8988616638\C
 ,0,36.2847417371,-29.5572960461,43.1627790381\C,0,35.5693786986,-29.39
 83802624,44.500751619\O,0,34.6615102456,-30.1461981981,44.8569350137\C
 ,0,37.6137416313,-28.7933102611,43.0025693438\C,0,37.8521010594,-28.19
 89028901,41.5989602424\C,0,36.708128203,-27.289057451,41.0627552627\N,
 0,35.8995655583,-27.8979561128,40.0011238589\C,0,34.8015592688,-28.695
 7476532,40.1637246202\N,0,33.9171518213,-28.5717891897,41.1363422321\N
 ,0,34.631641969,-29.6441883132,39.2009635315\O,0,35.9361108898,-28.336
 3155699,45.2108476621\H,0,35.3760430754,-28.2972945041,46.0112827775\H
 ,0,35.8385145117,-31.5456610535,43.6062552834\H,0,35.5462511648,-29.11
 90193,42.473312882\H,0,38.4382650369,-29.463020013,43.2681627272\H,0,3
 7.6269903288,-27.973577555,43.7263377489\H,0,38.0234196004,-29.0046605
 736,40.8827023307\H,0,38.7741416137,-27.6090906886,41.6529575218\H,0,3
 7.1288630595,-26.3707625213,40.6435016722\H,0,36.0436288468,-26.964473
 0289,41.8707179217\H,0,36.4045620176,-28.0655160195,39.1394140594\H,0,
 33.9942428089,-27.6678893589,41.6005911007\H,0,33.8320075567,-30.25131
 12198,39.3439697103\H,0,35.4651815373,-30.1723219026,38.9636917662\\Ve
 rsion=ES64L-G16RevC.01\HF=-1486.5662958\RMSD=7.257e-09\Dipole=0.339615
 9,0.8301763,1.7141542\Quadrupole=-562.6026625,-1481.6161771,2044.21883
 97,-3711.1905644,5337.9593074,-4725.7379392\PG=C01 [X(C20H33N6O5)]\\@
 The archive entry for this job was punched.


 DEPRESSION IS WAITING FOR YOUR SHIP TO COME IN,
 AND FINDING OUT IT'S THE TITANIC.
 Job cpu time:       0 days  0 hours  1 minutes 10.9 seconds.
 Elapsed time:       0 days  0 hours  0 minutes 18.1 seconds.
 File lengths (MBytes):  RWF=    264 Int=      0 D2E=      0 Chk=     40 Scr=     16
 Normal termination of Gaussian 16 at Tue May 31 11:31:56 2022.
