 Entering Gaussian System, Link 0=/opt/software/Gaussian/g16-AVX2-C.01/g16/g16
 Input=charge-conf-780.com
 Output=charge-conf-780.log
 Initial command:
 /opt/software/Gaussian/g16-AVX2-C.01/g16/l1.exe "/mnt/gs18/scratch/users/kengmith/Gau-82134.inp" -scrdir="/mnt/gs18/scratch/users/kengmith/"
 Entering Link 1 = /opt/software/Gaussian/g16-AVX2-C.01/g16/l1.exe PID=     82144.
  
 Copyright (c) 1988-2019, Gaussian, Inc.  All Rights Reserved.
  
 This is part of the Gaussian(R) 16 program.  It is based on
 the Gaussian(R) 09 system (copyright 2009, Gaussian, Inc.),
 the Gaussian(R) 03 system (copyright 2003, Gaussian, Inc.),
 the Gaussian(R) 98 system (copyright 1998, Gaussian, Inc.),
 the Gaussian(R) 94 system (copyright 1995, Gaussian, Inc.),
 the Gaussian 92(TM) system (copyright 1992, Gaussian, Inc.),
 the Gaussian 90(TM) system (copyright 1990, Gaussian, Inc.),
 the Gaussian 88(TM) system (copyright 1988, Gaussian, Inc.),
 the Gaussian 86(TM) system (copyright 1986, Carnegie Mellon
 University), and the Gaussian 82(TM) system (copyright 1983,
 Carnegie Mellon University). Gaussian is a federally registered
 trademark of Gaussian, Inc.
  
 This software contains proprietary and confidential information,
 including trade secrets, belonging to Gaussian, Inc.
  
 This software is provided under written license and may be
 used, copied, transmitted, or stored only in accord with that
 written license.
  
 The following legend is applicable only to US Government
 contracts under FAR:
  
                    RESTRICTED RIGHTS LEGEND
  
 Use, reproduction and disclosure by the US Government is
 subject to restrictions as set forth in subparagraphs (a)
 and (c) of the Commercial Computer Software - Restricted
 Rights clause in FAR 52.227-19.
  
 Gaussian, Inc.
 340 Quinnipiac St., Bldg. 40, Wallingford CT 06492
  
  
 ---------------------------------------------------------------
 Warning -- This program may not be used in any manner that
 competes with the business of Gaussian, Inc. or will provide
 assistance to any competitor of Gaussian, Inc.  The licensee
 of this program is prohibited from giving any competitor of
 Gaussian, Inc. access to this program.  By using this program,
 the user acknowledges that Gaussian, Inc. is engaged in the
 business of creating and licensing software in the field of
 computational chemistry and represents and warrants to the
 licensee that it is not a competitor of Gaussian, Inc. and that
 it will not use this program in any manner prohibited above.
 ---------------------------------------------------------------
  

 Cite this work as:
 Gaussian 16, Revision C.01,
 M. J. Frisch, G. W. Trucks, H. B. Schlegel, G. E. Scuseria, 
 M. A. Robb, J. R. Cheeseman, G. Scalmani, V. Barone, 
 G. A. Petersson, H. Nakatsuji, X. Li, M. Caricato, A. V. Marenich, 
 J. Bloino, B. G. Janesko, R. Gomperts, B. Mennucci, H. P. Hratchian, 
 J. V. Ortiz, A. F. Izmaylov, J. L. Sonnenberg, D. Williams-Young, 
 F. Ding, F. Lipparini, F. Egidi, J. Goings, B. Peng, A. Petrone, 
 T. Henderson, D. Ranasinghe, V. G. Zakrzewski, J. Gao, N. Rega, 
 G. Zheng, W. Liang, M. Hada, M. Ehara, K. Toyota, R. Fukuda, 
 J. Hasegawa, M. Ishida, T. Nakajima, Y. Honda, O. Kitao, H. Nakai, 
 T. Vreven, K. Throssell, J. A. Montgomery, Jr., J. E. Peralta, 
 F. Ogliaro, M. J. Bearpark, J. J. Heyd, E. N. Brothers, K. N. Kudin, 
 V. N. Staroverov, T. A. Keith, R. Kobayashi, J. Normand, 
 K. Raghavachari, A. P. Rendell, J. C. Burant, S. S. Iyengar, 
 J. Tomasi, M. Cossi, J. M. Millam, M. Klene, C. Adamo, R. Cammi, 
 J. W. Ochterski, R. L. Martin, K. Morokuma, O. Farkas, 
 J. B. Foresman, and D. J. Fox, Gaussian, Inc., Wallingford CT, 2019.
 
 ******************************************
 Gaussian 16:  ES64L-G16RevC.01  3-Jul-2019
                31-May-2022 
 ******************************************
 %mem=8gb
 %nproc=4
 Will use up to    4 processors via shared memory.
 %chk=conf-780.chk
 ----------------------------------------------------------------------
 # B3LYP/6-31G* empiricaldispersion=gd3 guess=read geom=check nosymm in
 tegral(ultrafinegrid)
 ----------------------------------------------------------------------
 1/29=2,38=1,172=1/1;
 2/12=2,15=1,40=1/2;
 3/5=1,6=6,7=1,11=2,14=-4,25=1,30=1,74=-5,75=-5,116=-2,124=31/1,2,3;
 4/5=1/1;
 5/5=2,38=6/2;
 6/7=2,8=2,9=2,10=2,28=1/1;
 99/5=1,9=1/99;
 ------------------------------------------------------
 Candidate Structure: Conf:780 Charge calc in gas phase
 ------------------------------------------------------
 Structure from the checkpoint file:  "conf-780.chk"
 Charge =  1 Multiplicity = 1
 Redundant internal coordinates found in file.  (old form).
 N,0,33.8627336022,-32.613206207,45.0218010358
 C,0,34.8964705114,-31.5182362638,45.1169269608
 C,0,35.6683540052,-31.6223951302,43.7827688929
 O,0,35.6167646969,-32.6833866211,43.1651690332
 C,0,34.1886153078,-30.1745993994,45.3805713972
 C,0,33.1869361831,-30.2783116988,46.5091338067
 C,0,31.8285816749,-30.5122261314,46.2336195985
 C,0,33.5988150858,-30.2220396276,47.8467720865
 C,0,30.9081629204,-30.6822888006,47.262021456
 C,0,32.6861257943,-30.3871531305,48.8858175498
 C,0,31.33289793,-30.618266075,48.5972412985
 O,0,30.3858056836,-30.789121196,49.5513585998
 H,0,34.3274302178,-33.4406018824,44.6188395107
 H,0,35.5549372866,-31.7841168822,45.9507479978
 H,0,34.9612552072,-29.4321992817,45.6144112531
 H,0,33.6914814481,-29.8506146504,44.4604792433
 H,0,31.485299299,-30.5461264171,45.2015810705
 H,0,34.6439426029,-30.0360901504,48.0863929436
 H,0,29.8563741323,-30.851542974,47.0565406406
 H,0,33.0203190365,-30.3285497383,49.9190798284
 H,0,30.7734230465,-30.6972963645,50.436634999
 H,0,33.4118558169,-32.7994035484,45.9208889767
 H,0,33.1452504519,-32.3354340471,44.3078341896
 N,0,36.2906335868,-30.5175086846,43.3112063145
 C,0,36.8028667468,-30.517179862,41.9298863571
 C,0,35.630798586,-30.7714814603,40.9470063772
 O,0,35.7538011198,-31.4991816422,39.9786848468
 C,0,37.5983917524,-29.2205078578,41.6362773318
 C,0,36.7664471803,-27.9322627998,41.7573206335
 C,0,38.2568254088,-29.3148241922,40.2509952039
 H,0,36.354416614,-29.6768545011,43.8673262252
 H,0,37.4571363115,-31.3807684453,41.7911423934
 H,0,38.397660157,-29.1889680742,42.3906631378
 H,0,36.2654437451,-27.8262608137,42.7303180942
 H,0,37.4147844722,-27.0588276027,41.6422494806
 H,0,36.001094529,-27.8802266406,40.9747989772
 H,0,37.506174147,-29.3725247033,39.4549978874
 H,0,38.8938698232,-30.2014063404,40.1699602095
 H,0,38.8765852832,-28.4316822237,40.0685802195
 N,0,34.4606522674,-30.1145425239,41.2554746773
 C,0,33.1305092562,-30.5490149027,40.8184254722
 C,0,32.3939172147,-30.8221566035,42.1328336621
 O,0,32.5419267456,-31.8645530463,42.7460461219
 C,0,32.4707807689,-29.5445420868,39.8615853451
 C,0,33.2001618534,-29.4437029318,38.5085104947
 C,0,32.9461038275,-30.6088176554,37.543342894
 N,0,33.4544150508,-31.8750554477,38.054783929
 C,0,33.2536172665,-33.0389648438,37.2887434404
 N,0,32.5076874239,-33.1961056946,36.2599500178
 N,0,34.0059274123,-34.1094188306,37.7728741139
 O,0,31.6832249139,-29.8252243728,42.6968628754
 H,0,31.5695616678,-29.0785785047,42.0806207923
 H,0,34.4987163719,-29.4679643915,42.0322001934
 H,0,33.2440697734,-31.5089673863,40.3111344837
 H,0,32.4702896702,-28.5427971151,40.3251302429
 H,0,31.4226850693,-29.8313470233,39.7002860625
 H,0,34.2771746612,-29.3322612878,38.6891130372
 H,0,32.8757087936,-28.5247953442,38.007825833
 H,0,33.3838315493,-30.3523278842,36.5643938721
 H,0,31.864790544,-30.7149714359,37.3868916876
 H,0,34.3986799601,-31.8136026418,38.4325977079
 H,0,32.1327011374,-32.3159247698,35.9087964692
 H,0,33.7528914232,-34.974054201,37.3081297211
 H,0,34.018245873,-34.2041354131,38.7821457847
 Recover connectivity data from disk.
                           ----------------------------
                           !    Current Parameters    !
                           ! (Angstroms and Degrees)  !
 --------------------------                            --------------------------
 ! Name  Definition              Value                                          !
 --------------------------------------------------------------------------------
 ! R1    R(1,2)                  1.5088                                         !
 ! R2    R(1,13)                 1.031                                          !
 ! R3    R(1,22)                 1.0229                                         !
 ! R4    R(1,23)                 1.0496                                         !
 ! R5    R(2,3)                  1.5449                                         !
 ! R6    R(2,5)                  1.5414                                         !
 ! R7    R(2,14)                 1.0952                                         !
 ! R8    R(3,4)                  1.2287                                         !
 ! R9    R(3,24)                 1.3529                                         !
 ! R10   R(5,6)                  1.5125                                         !
 ! R11   R(5,15)                 1.0967                                         !
 ! R12   R(5,16)                 1.0948                                         !
 ! R13   R(6,7)                  1.4056                                         !
 ! R14   R(6,8)                  1.4007                                         !
 ! R15   R(7,9)                  1.3906                                         !
 ! R16   R(7,17)                 1.0882                                         !
 ! R17   R(8,10)                 1.3928                                         !
 ! R18   R(8,18)                 1.0882                                         !
 ! R19   R(9,11)                 1.4026                                         !
 ! R20   R(9,19)                 1.085                                          !
 ! R21   R(10,11)                1.4028                                         !
 ! R22   R(10,20)                1.0875                                         !
 ! R23   R(11,12)                1.3552                                         !
 ! R24   R(12,21)                0.9708                                         !
 ! R25   R(24,25)                1.4732                                         !
 ! R26   R(24,31)                1.01                                           !
 ! R27   R(25,26)                1.5506                                         !
 ! R28   R(25,28)                1.5493                                         !
 ! R29   R(25,32)                1.0923                                         !
 ! R30   R(26,27)                1.2175                                         !
 ! R31   R(26,40)                1.3769                                         !
 ! R32   R(28,29)                1.5383                                         !
 ! R33   R(28,30)                1.5367                                         !
 ! R34   R(28,33)                1.0995                                         !
 ! R35   R(29,34)                1.0995                                         !
 ! R36   R(29,35)                1.0938                                         !
 ! R37   R(29,36)                1.0958                                         !
 ! R38   R(30,37)                1.0956                                         !
 ! R39   R(30,38)                1.0947                                         !
 ! R40   R(30,39)                1.0942                                         !
 ! R41   R(40,41)                1.466                                          !
 ! R42   R(40,53)                1.0113                                         !
 ! R43   R(41,42)                1.5313                                         !
 ! R44   R(41,44)                1.5361                                         !
 ! R45   R(41,54)                1.0917                                         !
 ! R46   R(42,43)                1.2184                                         !
 ! R47   R(42,51)                1.348                                          !
 ! R48   R(44,45)                1.5404                                         !
 ! R49   R(44,55)                1.1038                                         !
 ! R50   R(44,56)                1.0985                                         !
 ! R51   R(45,46)                1.5341                                         !
 ! R52   R(45,57)                1.0977                                         !
 ! R53   R(45,58)                1.0956                                         !
 ! R54   R(46,47)                1.4572                                         !
 ! R55   R(46,59)                1.1026                                         !
 ! R56   R(46,60)                1.0977                                         !
 ! R57   R(47,48)                1.4078                                         !
 ! R58   R(47,61)                1.0189                                         !
 ! R59   R(48,49)                1.2804                                         !
 ! R60   R(48,50)                1.3951                                         !
 ! R61   R(49,62)                1.0191                                         !
 ! R62   R(50,63)                1.0137                                         !
 ! R63   R(50,64)                1.0138                                         !
 ! R64   R(51,52)                0.9748                                         !
 ! A1    A(2,1,13)             107.3517                                         !
 ! A2    A(2,1,22)             112.2515                                         !
 ! A3    A(2,1,23)             108.612                                          !
 ! A4    A(13,1,22)            113.3371                                         !
 ! A5    A(13,1,23)            104.7515                                         !
 ! A6    A(22,1,23)            110.1667                                         !
 ! A7    A(1,2,3)              103.8239                                         !
 ! A8    A(1,2,5)              109.1928                                         !
 ! A9    A(1,2,14)             106.4827                                         !
 ! A10   A(3,2,5)              115.8447                                         !
 ! A11   A(3,2,14)             109.9208                                         !
 ! A12   A(5,2,14)             110.9462                                         !
 ! A13   A(2,3,4)              118.1196                                         !
 ! A14   A(2,3,24)             118.409                                          !
 ! A15   A(4,3,24)             123.3189                                         !
 ! A16   A(2,5,6)              111.8374                                         !
 ! A17   A(2,5,15)             107.6389                                         !
 ! A18   A(2,5,16)             108.8282                                         !
 ! A19   A(6,5,15)             110.7248                                         !
 ! A20   A(6,5,16)             110.2813                                         !
 ! A21   A(15,5,16)            107.3831                                         !
 ! A22   A(5,6,7)              120.341                                          !
 ! A23   A(5,6,8)              121.0                                            !
 ! A24   A(7,6,8)              118.5562                                         !
 ! A25   A(6,7,9)              120.9998                                         !
 ! A26   A(6,7,17)             119.7323                                         !
 ! A27   A(9,7,17)             119.261                                          !
 ! A28   A(6,8,10)             120.9946                                         !
 ! A29   A(6,8,18)             119.9686                                         !
 ! A30   A(10,8,18)            119.0334                                         !
 ! A31   A(7,9,11)             119.8679                                         !
 ! A32   A(7,9,19)             121.3777                                         !
 ! A33   A(11,9,19)            118.749                                          !
 ! A34   A(8,10,11)            119.8805                                         !
 ! A35   A(8,10,20)            120.0679                                         !
 ! A36   A(11,10,20)           120.0496                                         !
 ! A37   A(9,11,10)            119.7001                                         !
 ! A38   A(9,11,12)            116.9261                                         !
 ! A39   A(10,11,12)           123.3738                                         !
 ! A40   A(11,12,21)           110.5529                                         !
 ! A41   A(3,24,25)            119.1378                                         !
 ! A42   A(3,24,31)            121.1236                                         !
 ! A43   A(25,24,31)           119.6126                                         !
 ! A44   A(24,25,26)           109.3577                                         !
 ! A45   A(24,25,28)           110.8791                                         !
 ! A46   A(24,25,32)           109.0979                                         !
 ! A47   A(26,25,28)           113.9063                                         !
 ! A48   A(26,25,32)           104.0388                                         !
 ! A49   A(28,25,32)           109.2724                                         !
 ! A50   A(25,26,27)           121.721                                          !
 ! A51   A(25,26,40)           114.9674                                         !
 ! A52   A(27,26,40)           123.3115                                         !
 ! A53   A(25,28,29)           114.0966                                         !
 ! A54   A(25,28,30)           109.8448                                         !
 ! A55   A(25,28,33)           105.4999                                         !
 ! A56   A(29,28,30)           110.7359                                         !
 ! A57   A(29,28,33)           108.3687                                         !
 ! A58   A(30,28,33)           107.9867                                         !
 ! A59   A(28,29,34)           113.3779                                         !
 ! A60   A(28,29,35)           109.8693                                         !
 ! A61   A(28,29,36)           111.1803                                         !
 ! A62   A(34,29,35)           106.6298                                         !
 ! A63   A(34,29,36)           108.0051                                         !
 ! A64   A(35,29,36)           107.5137                                         !
 ! A65   A(28,30,37)           111.3832                                         !
 ! A66   A(28,30,38)           111.4552                                         !
 ! A67   A(28,30,39)           110.086                                          !
 ! A68   A(37,30,38)           107.5935                                         !
 ! A69   A(37,30,39)           108.0256                                         !
 ! A70   A(38,30,39)           108.162                                          !
 ! A71   A(26,40,41)           124.256                                          !
 ! A72   A(26,40,53)           116.4292                                         !
 ! A73   A(41,40,53)           116.9104                                         !
 ! A74   A(40,41,42)           103.4985                                         !
 ! A75   A(40,41,44)           112.4318                                         !
 ! A76   A(40,41,54)           107.744                                          !
 ! A77   A(42,41,44)           116.405                                          !
 ! A78   A(42,41,54)           106.9815                                         !
 ! A79   A(44,41,54)           109.2821                                         !
 ! A80   A(41,42,43)           121.7476                                         !
 ! A81   A(41,42,51)           118.7408                                         !
 ! A82   A(43,42,51)           119.0902                                         !
 ! A83   A(41,44,45)           112.7415                                         !
 ! A84   A(41,44,55)           109.3929                                         !
 ! A85   A(41,44,56)           109.2986                                         !
 ! A86   A(45,44,55)           108.0397                                         !
 ! A87   A(45,44,56)           109.8687                                         !
 ! A88   A(55,44,56)           107.3483                                         !
 ! A89   A(44,45,46)           115.1175                                         !
 ! A90   A(44,45,57)           109.0678                                         !
 ! A91   A(44,45,58)           108.4268                                         !
 ! A92   A(46,45,57)           110.065                                          !
 ! A93   A(46,45,58)           107.4832                                         !
 ! A94   A(57,45,58)           106.2956                                         !
 ! A95   A(45,46,47)           112.4185                                         !
 ! A96   A(45,46,59)           108.4309                                         !
 ! A97   A(45,46,60)           109.0405                                         !
 ! A98   A(47,46,59)           112.0416                                         !
 ! A99   A(47,46,60)           108.036                                          !
 ! A100  A(59,46,60)           106.6795                                         !
 ! A101  A(46,47,48)           118.5355                                         !
 ! A102  A(46,47,61)           113.6421                                         !
 ! A103  A(48,47,61)           112.5709                                         !
 ! A104  A(47,48,49)           128.4453                                         !
 ! A105  A(47,48,50)           111.6317                                         !
 ! A106  A(49,48,50)           119.9214                                         !
 ! A107  A(48,49,62)           112.6562                                         !
 ! A108  A(48,50,63)           111.1472                                         !
 ! A109  A(48,50,64)           115.0701                                         !
 ! A110  A(63,50,64)           112.319                                          !
 ! A111  A(42,51,52)           111.312                                          !
 ! D1    D(13,1,2,3)            42.0609                                         !
 ! D2    D(13,1,2,5)           166.1868                                         !
 ! D3    D(13,1,2,14)          -73.9619                                         !
 ! D4    D(22,1,2,3)           167.2487                                         !
 ! D5    D(22,1,2,5)           -68.6254                                         !
 ! D6    D(22,1,2,14)           51.2259                                         !
 ! D7    D(23,1,2,3)           -70.6894                                         !
 ! D8    D(23,1,2,5)            53.4365                                         !
 ! D9    D(23,1,2,14)          173.2878                                         !
 ! D10   D(1,2,3,4)            -20.97                                           !
 ! D11   D(1,2,3,24)           154.6929                                         !
 ! D12   D(5,2,3,4)           -140.6642                                         !
 ! D13   D(5,2,3,24)            34.9986                                         !
 ! D14   D(14,2,3,4)            92.6058                                         !
 ! D15   D(14,2,3,24)          -91.7314                                         !
 ! D16   D(1,2,5,6)             48.6883                                         !
 ! D17   D(1,2,5,15)           170.5224                                         !
 ! D18   D(1,2,5,16)           -73.3966                                         !
 ! D19   D(3,2,5,6)            165.4147                                         !
 ! D20   D(3,2,5,15)           -72.7512                                         !
 ! D21   D(3,2,5,16)            43.3298                                         !
 ! D22   D(14,2,5,6)           -68.3721                                         !
 ! D23   D(14,2,5,15)           53.462                                          !
 ! D24   D(14,2,5,16)          169.5429                                         !
 ! D25   D(2,3,24,25)         -168.1076                                         !
 ! D26   D(2,3,24,31)            7.794                                          !
 ! D27   D(4,3,24,25)            7.3143                                         !
 ! D28   D(4,3,24,31)         -176.7841                                         !
 ! D29   D(2,5,6,7)            -95.537                                          !
 ! D30   D(2,5,6,8)             80.7236                                         !
 ! D31   D(15,5,6,7)           144.4202                                         !
 ! D32   D(15,5,6,8)           -39.3192                                         !
 ! D33   D(16,5,6,7)            25.7111                                         !
 ! D34   D(16,5,6,8)          -158.0283                                         !
 ! D35   D(5,6,7,9)            176.4757                                         !
 ! D36   D(5,6,7,17)            -4.4834                                         !
 ! D37   D(8,6,7,9)              0.1248                                         !
 ! D38   D(8,6,7,17)           179.1657                                         !
 ! D39   D(5,6,8,10)          -176.6266                                         !
 ! D40   D(5,6,8,18)             4.0511                                         !
 ! D41   D(7,6,8,10)            -0.3007                                         !
 ! D42   D(7,6,8,18)          -179.623                                          !
 ! D43   D(6,7,9,11)             0.1284                                         !
 ! D44   D(6,7,9,19)           179.2722                                         !
 ! D45   D(17,7,9,11)         -178.9169                                         !
 ! D46   D(17,7,9,19)            0.2269                                         !
 ! D47   D(6,8,10,11)            0.2216                                         !
 ! D48   D(6,8,10,20)         -179.2546                                         !
 ! D49   D(18,8,10,11)         179.5501                                         !
 ! D50   D(18,8,10,20)           0.0739                                         !
 ! D51   D(7,9,11,10)           -0.2101                                         !
 ! D52   D(7,9,11,12)          179.8457                                         !
 ! D53   D(19,9,11,10)        -179.3764                                         !
 ! D54   D(19,9,11,12)           0.6794                                         !
 ! D55   D(8,10,11,9)            0.0373                                         !
 ! D56   D(8,10,11,12)         179.9777                                         !
 ! D57   D(20,10,11,9)         179.5136                                         !
 ! D58   D(20,10,11,12)         -0.546                                          !
 ! D59   D(9,11,12,21)        -178.0734                                         !
 ! D60   D(10,11,12,21)          1.9847                                         !
 ! D61   D(3,24,25,26)          59.1922                                         !
 ! D62   D(3,24,25,28)        -174.3861                                         !
 ! D63   D(3,24,25,32)         -53.9948                                         !
 ! D64   D(31,24,25,26)       -116.7724                                         !
 ! D65   D(31,24,25,28)          9.6493                                         !
 ! D66   D(31,24,25,32)        130.0406                                         !
 ! D67   D(24,25,26,27)       -139.0813                                         !
 ! D68   D(24,25,26,40)         41.0178                                         !
 ! D69   D(28,25,26,27)         96.2427                                         !
 ! D70   D(28,25,26,40)        -83.6582                                         !
 ! D71   D(32,25,26,27)        -22.6379                                         !
 ! D72   D(32,25,26,40)        157.4612                                         !
 ! D73   D(24,25,28,29)        -61.4875                                         !
 ! D74   D(24,25,28,30)        173.4995                                         !
 ! D75   D(24,25,28,33)         57.3465                                         !
 ! D76   D(26,25,28,29)         62.3704                                         !
 ! D77   D(26,25,28,30)        -62.6425                                         !
 ! D78   D(26,25,28,33)       -178.7955                                         !
 ! D79   D(32,25,28,29)        178.2249                                         !
 ! D80   D(32,25,28,30)         53.212                                          !
 ! D81   D(32,25,28,33)        -62.941                                          !
 ! D82   D(25,26,40,41)       -156.2457                                         !
 ! D83   D(25,26,40,53)          5.5589                                         !
 ! D84   D(27,26,40,41)         23.8552                                         !
 ! D85   D(27,26,40,53)       -174.3403                                         !
 ! D86   D(25,28,29,34)         54.8023                                         !
 ! D87   D(25,28,29,35)        173.9943                                         !
 ! D88   D(25,28,29,36)        -67.1115                                         !
 ! D89   D(30,28,29,34)        179.3407                                         !
 ! D90   D(30,28,29,35)        -61.4672                                         !
 ! D91   D(30,28,29,36)         57.427                                          !
 ! D92   D(33,28,29,34)        -62.3897                                         !
 ! D93   D(33,28,29,35)         56.8023                                         !
 ! D94   D(33,28,29,36)        175.6965                                         !
 ! D95   D(25,28,30,37)         64.1453                                         !
 ! D96   D(25,28,30,38)        -56.0309                                         !
 ! D97   D(25,28,30,39)       -176.0517                                         !
 ! D98   D(29,28,30,37)        -62.7784                                         !
 ! D99   D(29,28,30,38)        177.0454                                         !
 ! D100  D(29,28,30,39)         57.0247                                         !
 ! D101  D(33,28,30,37)        178.72                                           !
 ! D102  D(33,28,30,38)         58.5438                                         !
 ! D103  D(33,28,30,39)        -61.477                                          !
 ! D104  D(26,40,41,42)        118.589                                          !
 ! D105  D(26,40,41,44)       -114.978                                          !
 ! D106  D(26,40,41,54)          5.499                                          !
 ! D107  D(53,40,41,42)        -43.1359                                         !
 ! D108  D(53,40,41,44)         83.2971                                         !
 ! D109  D(53,40,41,54)       -156.2259                                         !
 ! D110  D(40,41,42,43)        -80.9876                                         !
 ! D111  D(40,41,42,51)         91.4923                                         !
 ! D112  D(44,41,42,43)        155.1417                                         !
 ! D113  D(44,41,42,51)        -32.3784                                         !
 ! D114  D(54,41,42,43)         32.6542                                         !
 ! D115  D(54,41,42,51)       -154.8659                                         !
 ! D116  D(40,41,44,45)         66.8851                                         !
 ! D117  D(40,41,44,55)        -53.3486                                         !
 ! D118  D(40,41,44,56)       -170.6195                                         !
 ! D119  D(42,41,44,45)       -173.9771                                         !
 ! D120  D(42,41,44,55)         65.7892                                         !
 ! D121  D(42,41,44,56)        -51.4818                                         !
 ! D122  D(54,41,44,45)        -52.701                                          !
 ! D123  D(54,41,44,55)       -172.9346                                         !
 ! D124  D(54,41,44,56)         69.7944                                         !
 ! D125  D(41,42,51,52)         12.3431                                         !
 ! D126  D(43,42,51,52)       -174.9738                                         !
 ! D127  D(41,44,45,46)         76.3049                                         !
 ! D128  D(41,44,45,57)        -47.9557                                         !
 ! D129  D(41,44,45,58)       -163.3021                                         !
 ! D130  D(55,44,45,46)       -162.6868                                         !
 ! D131  D(55,44,45,57)         73.0525                                         !
 ! D132  D(55,44,45,58)        -42.2938                                         !
 ! D133  D(56,44,45,46)        -45.87                                           !
 ! D134  D(56,44,45,57)       -170.1307                                         !
 ! D135  D(56,44,45,58)         74.5229                                         !
 ! D136  D(44,45,46,47)        -64.3825                                         !
 ! D137  D(44,45,46,59)        171.1878                                         !
 ! D138  D(44,45,46,60)         55.3988                                         !
 ! D139  D(57,45,46,47)         59.3526                                         !
 ! D140  D(57,45,46,59)        -65.0771                                         !
 ! D141  D(57,45,46,60)        179.1339                                         !
 ! D142  D(58,45,46,47)        174.7085                                         !
 ! D143  D(58,45,46,59)         50.2788                                         !
 ! D144  D(58,45,46,60)        -65.5102                                         !
 ! D145  D(45,46,47,48)        178.1002                                         !
 ! D146  D(45,46,47,61)        -46.2592                                         !
 ! D147  D(59,46,47,48)        -59.4876                                         !
 ! D148  D(59,46,47,61)         76.1529                                         !
 ! D149  D(60,46,47,48)         57.7372                                         !
 ! D150  D(60,46,47,61)       -166.6223                                         !
 ! D151  D(46,47,48,49)        -10.9205                                         !
 ! D152  D(46,47,48,50)        168.6197                                         !
 ! D153  D(61,47,48,49)       -147.0045                                         !
 ! D154  D(61,47,48,50)         32.5357                                         !
 ! D155  D(47,48,49,62)          9.1452                                         !
 ! D156  D(50,48,49,62)       -170.3616                                         !
 ! D157  D(47,48,50,63)        171.421                                          !
 ! D158  D(47,48,50,64)         42.335                                          !
 ! D159  D(49,48,50,63)         -8.9945                                         !
 ! D160  D(49,48,50,64)       -138.0805                                         !
 --------------------------------------------------------------------------------
 Symmetry turned off by external request.
 Stoichiometry    C20H33N6O5(1+)
 Framework group  C1[X(C20H33N6O5)]
 Deg. of freedom   186
 Full point group                 C1      NOp   1
                          Input orientation:                          
 ---------------------------------------------------------------------
 Center     Atomic      Atomic             Coordinates (Angstroms)
 Number     Number       Type             X           Y           Z
 ---------------------------------------------------------------------
      1          7           0       33.862734  -32.613206   45.021801
      2          6           0       34.896471  -31.518236   45.116927
      3          6           0       35.668354  -31.622395   43.782769
      4          8           0       35.616765  -32.683387   43.165169
      5          6           0       34.188615  -30.174599   45.380571
      6          6           0       33.186936  -30.278312   46.509134
      7          6           0       31.828582  -30.512226   46.233620
      8          6           0       33.598815  -30.222040   47.846772
      9          6           0       30.908163  -30.682289   47.262021
     10          6           0       32.686126  -30.387153   48.885818
     11          6           0       31.332898  -30.618266   48.597241
     12          8           0       30.385806  -30.789121   49.551359
     13          1           0       34.327430  -33.440602   44.618840
     14          1           0       35.554937  -31.784117   45.950748
     15          1           0       34.961255  -29.432199   45.614411
     16          1           0       33.691481  -29.850615   44.460479
     17          1           0       31.485299  -30.546126   45.201581
     18          1           0       34.643943  -30.036090   48.086393
     19          1           0       29.856374  -30.851543   47.056541
     20          1           0       33.020319  -30.328550   49.919080
     21          1           0       30.773423  -30.697296   50.436635
     22          1           0       33.411856  -32.799404   45.920889
     23          1           0       33.145250  -32.335434   44.307834
     24          7           0       36.290634  -30.517509   43.311206
     25          6           0       36.802867  -30.517180   41.929886
     26          6           0       35.630799  -30.771481   40.947006
     27          8           0       35.753801  -31.499182   39.978685
     28          6           0       37.598392  -29.220508   41.636277
     29          6           0       36.766447  -27.932263   41.757321
     30          6           0       38.256825  -29.314824   40.250995
     31          1           0       36.354417  -29.676855   43.867326
     32          1           0       37.457136  -31.380768   41.791142
     33          1           0       38.397660  -29.188968   42.390663
     34          1           0       36.265444  -27.826261   42.730318
     35          1           0       37.414784  -27.058828   41.642249
     36          1           0       36.001095  -27.880227   40.974799
     37          1           0       37.506174  -29.372525   39.454998
     38          1           0       38.893870  -30.201406   40.169960
     39          1           0       38.876585  -28.431682   40.068580
     40          7           0       34.460652  -30.114543   41.255475
     41          6           0       33.130509  -30.549015   40.818425
     42          6           0       32.393917  -30.822157   42.132834
     43          8           0       32.541927  -31.864553   42.746046
     44          6           0       32.470781  -29.544542   39.861585
     45          6           0       33.200162  -29.443703   38.508510
     46          6           0       32.946104  -30.608818   37.543343
     47          7           0       33.454415  -31.875055   38.054784
     48          6           0       33.253617  -33.038965   37.288743
     49          7           0       32.507687  -33.196106   36.259950
     50          7           0       34.005927  -34.109419   37.772874
     51          8           0       31.683225  -29.825224   42.696863
     52          1           0       31.569562  -29.078579   42.080621
     53          1           0       34.498716  -29.467964   42.032200
     54          1           0       33.244070  -31.508967   40.311134
     55          1           0       32.470290  -28.542797   40.325130
     56          1           0       31.422685  -29.831347   39.700286
     57          1           0       34.277175  -29.332261   38.689113
     58          1           0       32.875709  -28.524795   38.007826
     59          1           0       33.383832  -30.352328   36.564394
     60          1           0       31.864791  -30.714971   37.386892
     61          1           0       34.398680  -31.813603   38.432598
     62          1           0       32.132701  -32.315925   35.908796
     63          1           0       33.752891  -34.974054   37.308130
     64          1           0       34.018246  -34.204135   38.782146
 ---------------------------------------------------------------------
 Rotational constants (GHZ):           0.2201000           0.0757963           0.0660641
 Standard basis: 6-31G(d) (6D, 7F)
   531 basis functions,  1000 primitive gaussians,   531 cartesian basis functions
   117 alpha electrons      117 beta electrons
       nuclear repulsion energy      3348.3199369913 Hartrees.
 NAtoms=   64 NActive=   64 NUniq=   64 SFac= 1.00D+00 NAtFMM=   60 NAOKFM=T Big=T
 Integral buffers will be    131072 words long.
 Raffenetti 2 integral format.
 Two-electron integral symmetry is turned off.
 Nuclear repulsion after empirical dispersion term =     3348.2345846985 Hartrees.
 One-electron integrals computed using PRISM.
 NBasis=   531 RedAO= T EigKep=  4.29D-04  NBF=   531
 NBsUse=   531 1.00D-06 EigRej= -1.00D+00 NBFU=   531
 Initial guess from the checkpoint file:  "conf-780.chk"
 B after Tr=     0.000000    0.000000    0.000000
         Rot=    1.000000    0.000000    0.000000    0.000000 Ang=   0.00 deg.
 Requested convergence on RMS density matrix=1.00D-08 within 128 cycles.
 Requested convergence on MAX density matrix=1.00D-06.
 Requested convergence on             energy=1.00D-06.
 No special actions if energy rises.
 SCF Done:  E(RB3LYP) =  -1486.53231369     A.U. after    1 cycles
            NFock=  1  Conv=0.47D-08     -V/T= 2.0094

 **********************************************************************

            Population analysis using the SCF Density.

 **********************************************************************

 Alpha  occ. eigenvalues --  -19.34620 -19.28810 -19.28279 -19.26854 -19.24240
 Alpha  occ. eigenvalues --  -14.58616 -14.51130 -14.49085 -14.40888 -14.39060
 Alpha  occ. eigenvalues --  -14.33788 -10.46893 -10.44195 -10.41319 -10.40910
 Alpha  occ. eigenvalues --  -10.36319 -10.36318 -10.35879 -10.34804 -10.33241
 Alpha  occ. eigenvalues --  -10.31879 -10.31662 -10.31401 -10.31236 -10.30869
 Alpha  occ. eigenvalues --  -10.30373 -10.30009 -10.29756 -10.29676 -10.29020
 Alpha  occ. eigenvalues --  -10.27522  -1.25088  -1.19506  -1.16685  -1.16591
 Alpha  occ. eigenvalues --   -1.16147  -1.13361  -1.07567  -1.05266  -1.03020
 Alpha  occ. eigenvalues --   -0.97700  -0.94959  -0.94015  -0.92116  -0.90805
 Alpha  occ. eigenvalues --   -0.89209  -0.86744  -0.86385  -0.85022  -0.82647
 Alpha  occ. eigenvalues --   -0.79974  -0.79283  -0.78107  -0.75803  -0.74532
 Alpha  occ. eigenvalues --   -0.74361  -0.73758  -0.71795  -0.71093  -0.70763
 Alpha  occ. eigenvalues --   -0.70298  -0.69373  -0.67961  -0.65742  -0.65651
 Alpha  occ. eigenvalues --   -0.64330  -0.63642  -0.61493  -0.61411  -0.60531
 Alpha  occ. eigenvalues --   -0.60225  -0.59744  -0.59478  -0.58669  -0.58279
 Alpha  occ. eigenvalues --   -0.57527  -0.57206  -0.56402  -0.55828  -0.55559
 Alpha  occ. eigenvalues --   -0.55065  -0.54664  -0.54073  -0.53682  -0.53406
 Alpha  occ. eigenvalues --   -0.52533  -0.51909  -0.51708  -0.51341  -0.50928
 Alpha  occ. eigenvalues --   -0.50656  -0.49990  -0.49566  -0.49257  -0.48799
 Alpha  occ. eigenvalues --   -0.48289  -0.47778  -0.47093  -0.46682  -0.45606
 Alpha  occ. eigenvalues --   -0.45457  -0.45252  -0.44949  -0.44789  -0.44607
 Alpha  occ. eigenvalues --   -0.43923  -0.42736  -0.41869  -0.41261  -0.40776
 Alpha  occ. eigenvalues --   -0.37964  -0.37056  -0.36927  -0.33280  -0.31688
 Alpha  occ. eigenvalues --   -0.30887  -0.28600
 Alpha virt. eigenvalues --   -0.15213  -0.13749  -0.12119  -0.11087  -0.09635
 Alpha virt. eigenvalues --   -0.08424  -0.07326  -0.06773  -0.03975  -0.02910
 Alpha virt. eigenvalues --   -0.02598  -0.02498  -0.01495  -0.01338  -0.00460
 Alpha virt. eigenvalues --   -0.00023   0.00543   0.00904   0.01712   0.01940
 Alpha virt. eigenvalues --    0.02202   0.02734   0.03284   0.04033   0.04245
 Alpha virt. eigenvalues --    0.04323   0.04880   0.05397   0.05646   0.06421
 Alpha virt. eigenvalues --    0.06716   0.07230   0.07391   0.07648   0.08050
 Alpha virt. eigenvalues --    0.08308   0.08781   0.09158   0.09520   0.09668
 Alpha virt. eigenvalues --    0.10250   0.10579   0.10906   0.11332   0.11702
 Alpha virt. eigenvalues --    0.12476   0.12519   0.13273   0.13711   0.14146
 Alpha virt. eigenvalues --    0.15082   0.15223   0.16082   0.16825   0.17986
 Alpha virt. eigenvalues --    0.18675   0.20143   0.21665   0.22039   0.22289
 Alpha virt. eigenvalues --    0.22939   0.23590   0.24086   0.24543   0.25607
 Alpha virt. eigenvalues --    0.27929   0.28382   0.29868   0.33813   0.35599
 Alpha virt. eigenvalues --    0.36712   0.36863   0.37837   0.38515   0.39718
 Alpha virt. eigenvalues --    0.40004   0.40851   0.41111   0.41709   0.42060
 Alpha virt. eigenvalues --    0.42236   0.42765   0.43508   0.44079   0.44301
 Alpha virt. eigenvalues --    0.45520   0.46166   0.46698   0.47024   0.47405
 Alpha virt. eigenvalues --    0.47460   0.48347   0.49095   0.49431   0.49551
 Alpha virt. eigenvalues --    0.50095   0.50828   0.50977   0.51664   0.52430
 Alpha virt. eigenvalues --    0.52793   0.53075   0.53621   0.53770   0.54333
 Alpha virt. eigenvalues --    0.55222   0.55404   0.56556   0.57176   0.57838
 Alpha virt. eigenvalues --    0.58166   0.58735   0.59064   0.59600   0.59865
 Alpha virt. eigenvalues --    0.60767   0.61779   0.63305   0.64083   0.64632
 Alpha virt. eigenvalues --    0.64968   0.65147   0.65569   0.66051   0.66776
 Alpha virt. eigenvalues --    0.67099   0.68019   0.68981   0.69071   0.69735
 Alpha virt. eigenvalues --    0.70374   0.70543   0.71491   0.71886   0.72383
 Alpha virt. eigenvalues --    0.72397   0.72732   0.73076   0.74061   0.74479
 Alpha virt. eigenvalues --    0.74621   0.75261   0.75814   0.76361   0.77453
 Alpha virt. eigenvalues --    0.77670   0.77902   0.78310   0.78506   0.79108
 Alpha virt. eigenvalues --    0.79524   0.80059   0.80511   0.81068   0.81969
 Alpha virt. eigenvalues --    0.82066   0.82609   0.82799   0.83141   0.83816
 Alpha virt. eigenvalues --    0.84335   0.84582   0.85441   0.85708   0.86126
 Alpha virt. eigenvalues --    0.86335   0.86593   0.86990   0.87421   0.88291
 Alpha virt. eigenvalues --    0.89495   0.90211   0.90738   0.91340   0.92113
 Alpha virt. eigenvalues --    0.92951   0.93211   0.94010   0.94558   0.95441
 Alpha virt. eigenvalues --    0.95978   0.96239   0.97097   0.97900   0.98893
 Alpha virt. eigenvalues --    1.00167   1.01017   1.02195   1.02889   1.03550
 Alpha virt. eigenvalues --    1.03830   1.05520   1.06146   1.07633   1.08684
 Alpha virt. eigenvalues --    1.10073   1.10560   1.11412   1.12299   1.13948
 Alpha virt. eigenvalues --    1.14738   1.16028   1.16530   1.17499   1.20008
 Alpha virt. eigenvalues --    1.20844   1.20945   1.22025   1.23038   1.24057
 Alpha virt. eigenvalues --    1.25209   1.26579   1.27445   1.30115   1.31025
 Alpha virt. eigenvalues --    1.31184   1.31530   1.32581   1.33470   1.33688
 Alpha virt. eigenvalues --    1.34605   1.35043   1.35273   1.36650   1.37748
 Alpha virt. eigenvalues --    1.39410   1.39897   1.40104   1.40646   1.42007
 Alpha virt. eigenvalues --    1.42522   1.44215   1.45403   1.48972   1.50496
 Alpha virt. eigenvalues --    1.52091   1.53050   1.53898   1.55525   1.55599
 Alpha virt. eigenvalues --    1.57315   1.58221   1.60162   1.61232   1.61971
 Alpha virt. eigenvalues --    1.62251   1.62821   1.63366   1.63533   1.64314
 Alpha virt. eigenvalues --    1.65385   1.66096   1.66731   1.67308   1.67501
 Alpha virt. eigenvalues --    1.67931   1.68997   1.69342   1.69877   1.70511
 Alpha virt. eigenvalues --    1.71897   1.72729   1.74010   1.74235   1.75212
 Alpha virt. eigenvalues --    1.75877   1.76438   1.77207   1.77853   1.78821
 Alpha virt. eigenvalues --    1.80018   1.80977   1.81257   1.81731   1.82579
 Alpha virt. eigenvalues --    1.83966   1.84067   1.84904   1.85140   1.85501
 Alpha virt. eigenvalues --    1.86101   1.86887   1.87379   1.87943   1.88569
 Alpha virt. eigenvalues --    1.89720   1.90684   1.92317   1.93069   1.93286
 Alpha virt. eigenvalues --    1.94361   1.94873   1.95453   1.95936   1.96670
 Alpha virt. eigenvalues --    1.97896   1.98506   1.98938   1.99759   2.01537
 Alpha virt. eigenvalues --    2.02350   2.02820   2.03551   2.04217   2.04348
 Alpha virt. eigenvalues --    2.06264   2.08855   2.10947   2.11462   2.12508
 Alpha virt. eigenvalues --    2.13526   2.14796   2.14937   2.15142   2.16566
 Alpha virt. eigenvalues --    2.17577   2.19482   2.19730   2.20564   2.21159
 Alpha virt. eigenvalues --    2.22150   2.22948   2.24061   2.24458   2.25937
 Alpha virt. eigenvalues --    2.26161   2.27251   2.28527   2.29678   2.29861
 Alpha virt. eigenvalues --    2.30816   2.33026   2.33376   2.34913   2.35698
 Alpha virt. eigenvalues --    2.36664   2.39129   2.39286   2.41037   2.42328
 Alpha virt. eigenvalues --    2.43714   2.44689   2.45899   2.46705   2.47061
 Alpha virt. eigenvalues --    2.48006   2.49441   2.49817   2.50232   2.51124
 Alpha virt. eigenvalues --    2.53760   2.54111   2.54912   2.55326   2.56239
 Alpha virt. eigenvalues --    2.58170   2.58782   2.59333   2.61891   2.62135
 Alpha virt. eigenvalues --    2.62254   2.64144   2.65565   2.66773   2.67352
 Alpha virt. eigenvalues --    2.68691   2.71553   2.74584   2.75615   2.77744
 Alpha virt. eigenvalues --    2.79709   2.83576   2.85544   2.89168   2.91386
 Alpha virt. eigenvalues --    2.93332   2.95270   2.97221   2.99769   3.00741
 Alpha virt. eigenvalues --    3.01727   3.05024   3.29820   3.71930   3.77189
 Alpha virt. eigenvalues --    3.80481   3.84000   3.86894   3.87754   3.94230
 Alpha virt. eigenvalues --    3.95402   3.99154   3.99611   4.02369   4.05557
 Alpha virt. eigenvalues --    4.06238   4.11292   4.13485   4.15916   4.16842
 Alpha virt. eigenvalues --    4.19440   4.22214   4.23091   4.23789   4.29119
 Alpha virt. eigenvalues --    4.31316   4.36332   4.39170   4.45621   4.47816
 Alpha virt. eigenvalues --    4.51587   4.55113   4.62523   4.63991
          Condensed to atoms (all electrons):
 Mulliken charges:
               1
     1  N   -0.755330
     2  C   -0.119740
     3  C    0.660304
     4  O   -0.505008
     5  C   -0.400738
     6  C    0.124677
     7  C   -0.232363
     8  C   -0.192234
     9  C   -0.156649
    10  C   -0.187356
    11  C    0.361548
    12  O   -0.618432
    13  H    0.422258
    14  H    0.225714
    15  H    0.178061
    16  H    0.174365
    17  H    0.166921
    18  H    0.142627
    19  H    0.173749
    20  H    0.153417
    21  H    0.423996
    22  H    0.412206
    23  H    0.453246
    24  N   -0.654027
    25  C   -0.028550
    26  C    0.625294
    27  O   -0.487626
    28  C   -0.124485
    29  C   -0.478464
    30  C   -0.455047
    31  H    0.350842
    32  H    0.217015
    33  H    0.160275
    34  H    0.117984
    35  H    0.190096
    36  H    0.165426
    37  H    0.169921
    38  H    0.173590
    39  H    0.170345
    40  N   -0.605800
    41  C   -0.051087
    42  C    0.609775
    43  O   -0.489820
    44  C   -0.297331
    45  C   -0.302673
    46  C   -0.129559
    47  N   -0.651500
    48  C    0.579250
    49  N   -0.638885
    50  N   -0.744733
    51  O   -0.560602
    52  H    0.443986
    53  H    0.327806
    54  H    0.244733
    55  H    0.125810
    56  H    0.173208
    57  H    0.160873
    58  H    0.166654
    59  H    0.159771
    60  H    0.157756
    61  H    0.368597
    62  H    0.280004
    63  H    0.340927
    64  H    0.315011
 Sum of Mulliken charges =   1.00000
 Mulliken charges with hydrogens summed into heavy atoms:
               1
     1  N    0.532379
     2  C    0.105974
     3  C    0.660304
     4  O   -0.505008
     5  C   -0.048312
     6  C    0.124677
     7  C   -0.065442
     8  C   -0.049608
     9  C    0.017100
    10  C   -0.033939
    11  C    0.361548
    12  O   -0.194436
    24  N   -0.303185
    25  C    0.188465
    26  C    0.625294
    27  O   -0.487626
    28  C    0.035790
    29  C   -0.004957
    30  C    0.058809
    40  N   -0.277994
    41  C    0.193646
    42  C    0.609775
    43  O   -0.489820
    44  C    0.001686
    45  C    0.024855
    46  C    0.187969
    47  N   -0.282903
    48  C    0.579250
    49  N   -0.358881
    50  N   -0.088795
    51  O   -0.116617
 Electronic spatial extent (au):  <R**2>=        3287422.2464
 Charge=              1.0000 electrons
 Dipole moment (field-independent basis, Debye):
    X=            164.7371    Y=           -143.1653    Z=            217.1728  Tot=            307.8939
 Quadrupole moment (field-independent basis, Debye-Ang):
   XX=           5487.2041   YY=           4094.9126   ZZ=           9656.9786
   XY=          -4908.4267   XZ=           7442.7633   YZ=          -6517.3292
 Traceless Quadrupole moment (field-independent basis, Debye-Ang):
   XX=           -925.8277   YY=          -2318.1191   ZZ=           3243.9468
   XY=          -4908.4267   XZ=           7442.7633   YZ=          -6517.3292
 Octapole moment (field-independent basis, Debye-Ang**2):
  XXX=         177252.0712  YYY=        -111288.5985  ZZZ=         423794.9042  XYY=         140407.7951
  XXY=        -163210.2465  XXZ=         248150.8403  XZZ=         330721.4066  YZZ=        -291358.6840
  YYZ=         188350.8683  XYZ=        -223242.4713
 Hexadecapole moment (field-independent basis, Debye-Ang**3):
 XXXX=        5523326.8402 YYYY=        2810796.9618 ZZZZ=       18390899.3463 XXXY=       -5254734.5691
 XXXZ=        8040147.8953 YYYX=       -3818816.5263 YYYZ=       -5202479.2296 ZZZX=       14503718.9470
 ZZZY=      -12842928.4562 XXYY=        4655044.3268 XXZZ=       11028868.3518 YYZZ=        8483030.8684
 XXYZ=       -7431479.5442 YYXZ=        6451148.6706 ZZXY=       -9972029.9083
 N-N= 3.348234584698D+03 E-N=-1.013125544906D+04  KE= 1.472669679234D+03
 Unable to Open any file for archive entry.
 1\1\GINC-AMR-038\SP\RB3LYP\6-31G(d)\C20H33N6O5(1+)\KENGMITH\31-May-202
 2\0\\# B3LYP/6-31G* empiricaldispersion=gd3 guess=read geom=check nosy
 mm integral(ultrafinegrid)\\Candidate Structure: Conf:780 Charge calc 
 in gas phase\\1,1\N,0,33.8627336022,-32.613206207,45.0218010358\C,0,34
 .8964705114,-31.5182362638,45.1169269608\C,0,35.6683540052,-31.6223951
 302,43.7827688929\O,0,35.6167646969,-32.6833866211,43.1651690332\C,0,3
 4.1886153078,-30.1745993994,45.3805713972\C,0,33.1869361831,-30.278311
 6988,46.5091338067\C,0,31.8285816749,-30.5122261314,46.2336195985\C,0,
 33.5988150858,-30.2220396276,47.8467720865\C,0,30.9081629204,-30.68228
 88006,47.262021456\C,0,32.6861257943,-30.3871531305,48.8858175498\C,0,
 31.33289793,-30.618266075,48.5972412985\O,0,30.3858056836,-30.78912119
 6,49.5513585998\H,0,34.3274302178,-33.4406018824,44.6188395107\H,0,35.
 5549372866,-31.7841168822,45.9507479978\H,0,34.9612552072,-29.43219928
 17,45.6144112531\H,0,33.6914814481,-29.8506146504,44.4604792433\H,0,31
 .485299299,-30.5461264171,45.2015810705\H,0,34.6439426029,-30.03609015
 04,48.0863929436\H,0,29.8563741323,-30.851542974,47.0565406406\H,0,33.
 0203190365,-30.3285497383,49.9190798284\H,0,30.7734230465,-30.69729636
 45,50.436634999\H,0,33.4118558169,-32.7994035484,45.9208889767\H,0,33.
 1452504519,-32.3354340471,44.3078341896\N,0,36.2906335868,-30.51750868
 46,43.3112063145\C,0,36.8028667468,-30.517179862,41.9298863571\C,0,35.
 630798586,-30.7714814603,40.9470063772\O,0,35.7538011198,-31.499181642
 2,39.9786848468\C,0,37.5983917524,-29.2205078578,41.6362773318\C,0,36.
 7664471803,-27.9322627998,41.7573206335\C,0,38.2568254088,-29.31482419
 22,40.2509952039\H,0,36.354416614,-29.6768545011,43.8673262252\H,0,37.
 4571363115,-31.3807684453,41.7911423934\H,0,38.397660157,-29.188968074
 2,42.3906631378\H,0,36.2654437451,-27.8262608137,42.7303180942\H,0,37.
 4147844722,-27.0588276027,41.6422494806\H,0,36.001094529,-27.880226640
 6,40.9747989772\H,0,37.506174147,-29.3725247033,39.4549978874\H,0,38.8
 938698232,-30.2014063404,40.1699602095\H,0,38.8765852832,-28.431682223
 7,40.0685802195\N,0,34.4606522674,-30.1145425239,41.2554746773\C,0,33.
 1305092562,-30.5490149027,40.8184254722\C,0,32.3939172147,-30.82215660
 35,42.1328336621\O,0,32.5419267456,-31.8645530463,42.7460461219\C,0,32
 .4707807689,-29.5445420868,39.8615853451\C,0,33.2001618534,-29.4437029
 318,38.5085104947\C,0,32.9461038275,-30.6088176554,37.543342894\N,0,33
 .4544150508,-31.8750554477,38.054783929\C,0,33.2536172665,-33.03896484
 38,37.2887434404\N,0,32.5076874239,-33.1961056946,36.2599500178\N,0,34
 .0059274123,-34.1094188306,37.7728741139\O,0,31.6832249139,-29.8252243
 728,42.6968628754\H,0,31.5695616678,-29.0785785047,42.0806207923\H,0,3
 4.4987163719,-29.4679643915,42.0322001934\H,0,33.2440697734,-31.508967
 3863,40.3111344837\H,0,32.4702896702,-28.5427971151,40.3251302429\H,0,
 31.4226850693,-29.8313470233,39.7002860625\H,0,34.2771746612,-29.33226
 12878,38.6891130372\H,0,32.8757087936,-28.5247953442,38.007825833\H,0,
 33.3838315493,-30.3523278842,36.5643938721\H,0,31.864790544,-30.714971
 4359,37.3868916876\H,0,34.3986799601,-31.8136026418,38.4325977079\H,0,
 32.1327011374,-32.3159247698,35.9087964692\H,0,33.7528914232,-34.97405
 4201,37.3081297211\H,0,34.018245873,-34.2041354131,38.7821457847\\Vers
 ion=ES64L-G16RevC.01\HF=-1486.5323137\RMSD=4.725e-09\Dipole=0.6716717,
 1.9803351,5.0223024\Quadrupole=-688.3301824,-1723.4647715,2411.7949539
 ,-3649.2949467,5533.5120665,-4845.4745039\PG=C01 [X(C20H33N6O5)]\\@
 The archive entry for this job was punched.


 LIFE IS A CONTINUAL STRUGGLE AGAINST THE TENDENCY TO PRODUCE ENTROPY.
 Job cpu time:       0 days  0 hours  1 minutes  5.3 seconds.
 Elapsed time:       0 days  0 hours  0 minutes 16.8 seconds.
 File lengths (MBytes):  RWF=    264 Int=      0 D2E=      0 Chk=     40 Scr=     16
 Normal termination of Gaussian 16 at Tue May 31 11:31:54 2022.
