 Entering Gaussian System, Link 0=/opt/software/Gaussian/g16-AVX2-C.01/g16/g16
 Input=charge-conf-876.com
 Output=charge-conf-876.log
 Initial command:
 /opt/software/Gaussian/g16-AVX2-C.01/g16/l1.exe "/mnt/gs18/scratch/users/kengmith/Gau-114405.inp" -scrdir="/mnt/gs18/scratch/users/kengmith/"
 Entering Link 1 = /opt/software/Gaussian/g16-AVX2-C.01/g16/l1.exe PID=    114415.
  
 Copyright (c) 1988-2019, Gaussian, Inc.  All Rights Reserved.
  
 This is part of the Gaussian(R) 16 program.  It is based on
 the Gaussian(R) 09 system (copyright 2009, Gaussian, Inc.),
 the Gaussian(R) 03 system (copyright 2003, Gaussian, Inc.),
 the Gaussian(R) 98 system (copyright 1998, Gaussian, Inc.),
 the Gaussian(R) 94 system (copyright 1995, Gaussian, Inc.),
 the Gaussian 92(TM) system (copyright 1992, Gaussian, Inc.),
 the Gaussian 90(TM) system (copyright 1990, Gaussian, Inc.),
 the Gaussian 88(TM) system (copyright 1988, Gaussian, Inc.),
 the Gaussian 86(TM) system (copyright 1986, Carnegie Mellon
 University), and the Gaussian 82(TM) system (copyright 1983,
 Carnegie Mellon University). Gaussian is a federally registered
 trademark of Gaussian, Inc.
  
 This software contains proprietary and confidential information,
 including trade secrets, belonging to Gaussian, Inc.
  
 This software is provided under written license and may be
 used, copied, transmitted, or stored only in accord with that
 written license.
  
 The following legend is applicable only to US Government
 contracts under FAR:
  
                    RESTRICTED RIGHTS LEGEND
  
 Use, reproduction and disclosure by the US Government is
 subject to restrictions as set forth in subparagraphs (a)
 and (c) of the Commercial Computer Software - Restricted
 Rights clause in FAR 52.227-19.
  
 Gaussian, Inc.
 340 Quinnipiac St., Bldg. 40, Wallingford CT 06492
  
  
 ---------------------------------------------------------------
 Warning -- This program may not be used in any manner that
 competes with the business of Gaussian, Inc. or will provide
 assistance to any competitor of Gaussian, Inc.  The licensee
 of this program is prohibited from giving any competitor of
 Gaussian, Inc. access to this program.  By using this program,
 the user acknowledges that Gaussian, Inc. is engaged in the
 business of creating and licensing software in the field of
 computational chemistry and represents and warrants to the
 licensee that it is not a competitor of Gaussian, Inc. and that
 it will not use this program in any manner prohibited above.
 ---------------------------------------------------------------
  

 Cite this work as:
 Gaussian 16, Revision C.01,
 M. J. Frisch, G. W. Trucks, H. B. Schlegel, G. E. Scuseria, 
 M. A. Robb, J. R. Cheeseman, G. Scalmani, V. Barone, 
 G. A. Petersson, H. Nakatsuji, X. Li, M. Caricato, A. V. Marenich, 
 J. Bloino, B. G. Janesko, R. Gomperts, B. Mennucci, H. P. Hratchian, 
 J. V. Ortiz, A. F. Izmaylov, J. L. Sonnenberg, D. Williams-Young, 
 F. Ding, F. Lipparini, F. Egidi, J. Goings, B. Peng, A. Petrone, 
 T. Henderson, D. Ranasinghe, V. G. Zakrzewski, J. Gao, N. Rega, 
 G. Zheng, W. Liang, M. Hada, M. Ehara, K. Toyota, R. Fukuda, 
 J. Hasegawa, M. Ishida, T. Nakajima, Y. Honda, O. Kitao, H. Nakai, 
 T. Vreven, K. Throssell, J. A. Montgomery, Jr., J. E. Peralta, 
 F. Ogliaro, M. J. Bearpark, J. J. Heyd, E. N. Brothers, K. N. Kudin, 
 V. N. Staroverov, T. A. Keith, R. Kobayashi, J. Normand, 
 K. Raghavachari, A. P. Rendell, J. C. Burant, S. S. Iyengar, 
 J. Tomasi, M. Cossi, J. M. Millam, M. Klene, C. Adamo, R. Cammi, 
 J. W. Ochterski, R. L. Martin, K. Morokuma, O. Farkas, 
 J. B. Foresman, and D. J. Fox, Gaussian, Inc., Wallingford CT, 2019.
 
 ******************************************
 Gaussian 16:  ES64L-G16RevC.01  3-Jul-2019
                31-May-2022 
 ******************************************
 %mem=8gb
 %nproc=4
 Will use up to    4 processors via shared memory.
 %chk=conf-876.chk
 ----------------------------------------------------------------------
 # B3LYP/6-31G* empiricaldispersion=gd3 guess=read geom=check nosymm in
 tegral(ultrafinegrid)
 ----------------------------------------------------------------------
 1/29=2,38=1,172=1/1;
 2/12=2,15=1,40=1/2;
 3/5=1,6=6,7=1,11=2,14=-4,25=1,30=1,74=-5,75=-5,116=-2,124=31/1,2,3;
 4/5=1/1;
 5/5=2,38=6/2;
 6/7=2,8=2,9=2,10=2,28=1/1;
 99/5=1,9=1/99;
 ------------------------------------------------------
 Candidate Structure: Conf:876 Charge calc in gas phase
 ------------------------------------------------------
 Structure from the checkpoint file:  "conf-876.chk"
 Charge =  1 Multiplicity = 1
 Redundant internal coordinates found in file.  (old form).
 N,0,33.4053897007,-29.2693334111,40.1496848418
 C,0,32.0990974437,-29.9297821202,40.5415367484
 C,0,32.5501213446,-31.3812017514,40.8151912617
 O,0,33.4887677968,-31.8158324965,40.1499831482
 C,0,31.4375204848,-29.1467097107,41.6879216912
 C,0,31.4362175336,-27.653709043,41.4301660293
 C,0,32.2327524969,-26.7958935421,42.2058753808
 C,0,30.6918496648,-27.098488751,40.3794227679
 C,0,32.2873337457,-25.4305709205,41.9491723777
 C,0,30.7394011084,-25.7327154768,40.1073467317
 C,0,31.5394522547,-24.8895367277,40.8931688926
 O,0,31.6393039904,-23.5550188879,40.6926133301
 H,0,33.251233941,-28.3267323341,39.7770289418
 H,0,31.4728550084,-29.9054815643,39.6442891375
 H,0,30.4146449471,-29.5285749949,41.7991131091
 H,0,31.9714940763,-29.35869319,42.6200378566
 H,0,32.7932168135,-27.2002227165,43.0461925258
 H,0,30.048614562,-27.73230979,39.7719594528
 H,0,32.8883474735,-24.763290293,42.5578833923
 H,0,30.1462753842,-25.3192051542,39.2952509635
 H,0,31.056430539,-23.2713454123,39.9700467547
 H,0,34.019921263,-29.2164269881,40.9866792098
 H,0,33.8742803578,-29.8943601569,39.4753045279
 N,0,31.9824603652,-32.0589649266,41.8303706873
 C,0,32.6362808734,-33.2827989346,42.3185041211
 C,0,34.090530411,-32.9740196396,42.7481523158
 O,0,34.9644721511,-33.8129815658,42.5799304748
 C,0,31.7966003591,-33.9543044332,43.4331741236
 C,0,31.6639488908,-33.0948972465,44.7017055785
 C,0,32.3649526175,-35.3405208838,43.7699317769
 H,0,31.1858617385,-31.6837502201,42.3269198391
 H,0,32.7397291819,-33.9749302927,41.4795271078
 H,0,30.7945856536,-34.0938029823,43.0020828556
 H,0,30.9776078658,-33.5733030413,45.4064614204
 H,0,32.6300441317,-32.981234921,45.2055228154
 H,0,31.2652246662,-32.0892249475,44.5062521047
 H,0,32.4189238798,-35.976871986,42.8809687116
 H,0,31.7266745589,-35.8370932528,44.5071293815
 H,0,33.3745949771,-35.2660903121,44.1860525163
 N,0,34.2916088064,-31.7479181622,43.315326587
 C,0,35.5795759365,-31.2445575605,43.7683996867
 C,0,35.7441420644,-29.758259045,43.4926623509
 O,0,36.6494938023,-29.080546429,43.8925124576
 C,0,35.8489767441,-31.5052992294,45.2754589216
 C,0,36.0920513428,-32.9791510945,45.640632806
 C,0,37.4759932517,-33.5086673603,45.2348110485
 N,0,37.6365431013,-33.4928852691,43.7917093836
 C,0,38.8793034661,-33.5947188214,43.1665129368
 N,0,40.0468483097,-33.4523853125,43.6763108947
 N,0,38.7550388477,-33.7670770413,41.779372383
 O,0,34.7188033875,-29.1601546408,42.7417666181
 H,0,34.9504389405,-28.209320713,42.7725000694
 H,0,33.4747761868,-31.2034123926,43.5521297711
 H,0,36.3650806136,-31.7567077288,43.1981944491
 H,0,34.9920805484,-31.1168804595,45.842794587
 H,0,36.7202140157,-30.9093717604,45.5652276194
 H,0,35.3079558635,-33.6157283009,45.2116999009
 H,0,36.0033840811,-33.0758757186,46.7291136031
 H,0,37.6256709522,-34.5136486861,45.6612365757
 H,0,38.2406087616,-32.859471112,45.677818689
 H,0,36.8450033385,-33.8698837996,43.2795438991
 H,0,40.0146061474,-33.2435597034,44.6732397668
 H,0,39.6638791707,-33.9615149337,41.3731567912
 H,0,38.0706365269,-34.4612329759,41.4953589598
 Recover connectivity data from disk.
                           ----------------------------
                           !    Current Parameters    !
                           ! (Angstroms and Degrees)  !
 --------------------------                            --------------------------
 ! Name  Definition              Value                                          !
 --------------------------------------------------------------------------------
 ! R1    R(1,2)                  1.5153                                         !
 ! R2    R(1,13)                 1.0252                                         !
 ! R3    R(1,22)                 1.0397                                         !
 ! R4    R(1,23)                 1.0321                                         !
 ! R5    R(2,3)                  1.5443                                         !
 ! R6    R(2,5)                  1.5379                                         !
 ! R7    R(2,14)                 1.0945                                         !
 ! R8    R(3,4)                  1.2298                                         !
 ! R9    R(3,24)                 1.3462                                         !
 ! R10   R(5,6)                  1.5151                                         !
 ! R11   R(5,15)                 1.0975                                         !
 ! R12   R(5,16)                 1.0949                                         !
 ! R13   R(6,7)                  1.4043                                         !
 ! R14   R(6,8)                  1.4023                                         !
 ! R15   R(7,9)                  1.3903                                         !
 ! R16   R(7,17)                 1.088                                          !
 ! R17   R(8,10)                 1.3934                                         !
 ! R18   R(8,18)                 1.0883                                         !
 ! R19   R(9,11)                 1.4026                                         !
 ! R20   R(9,19)                 1.0849                                         !
 ! R21   R(10,11)                1.403                                          !
 ! R22   R(10,20)                1.0873                                         !
 ! R23   R(11,12)                1.3532                                         !
 ! R24   R(12,21)                0.9707                                         !
 ! R25   R(24,25)                1.4709                                         !
 ! R26   R(24,31)                1.0109                                         !
 ! R27   R(25,26)                1.5475                                         !
 ! R28   R(25,28)                1.5487                                         !
 ! R29   R(25,32)                1.0925                                         !
 ! R30   R(26,27)                1.2231                                         !
 ! R31   R(26,40)                1.3658                                         !
 ! R32   R(28,29)                1.538                                          !
 ! R33   R(28,30)                1.5356                                         !
 ! R34   R(28,33)                1.0997                                         !
 ! R35   R(29,34)                1.0939                                         !
 ! R36   R(29,35)                1.0955                                         !
 ! R37   R(29,36)                1.0993                                         !
 ! R38   R(30,37)                1.0946                                         !
 ! R39   R(30,38)                1.0943                                         !
 ! R40   R(30,39)                1.0946                                         !
 ! R41   R(40,41)                1.4552                                         !
 ! R42   R(40,53)                1.0098                                         !
 ! R43   R(41,42)                1.5206                                         !
 ! R44   R(41,44)                1.553                                          !
 ! R45   R(41,54)                1.0975                                         !
 ! R46   R(42,43)                1.1995                                         !
 ! R47   R(42,51)                1.4046                                         !
 ! R48   R(44,45)                1.5378                                         !
 ! R49   R(44,55)                1.0986                                         !
 ! R50   R(44,56)                1.0946                                         !
 ! R51   R(45,46)                1.5364                                         !
 ! R52   R(45,57)                1.0973                                         !
 ! R53   R(45,58)                1.0964                                         !
 ! R54   R(46,47)                1.4521                                         !
 ! R55   R(46,59)                1.1019                                         !
 ! R56   R(46,60)                1.0965                                         !
 ! R57   R(47,48)                1.3949                                         !
 ! R58   R(47,61)                1.0154                                         !
 ! R59   R(48,49)                1.2819                                         !
 ! R60   R(48,50)                1.4033                                         !
 ! R61   R(49,62)                1.0191                                         !
 ! R62   R(50,63)                1.0143                                         !
 ! R63   R(50,64)                1.0153                                         !
 ! R64   R(51,52)                0.9791                                         !
 ! A1    A(2,1,13)             111.4133                                         !
 ! A2    A(2,1,22)             108.8768                                         !
 ! A3    A(2,1,23)             107.2568                                         !
 ! A4    A(13,1,22)            109.5541                                         !
 ! A5    A(13,1,23)            112.8032                                         !
 ! A6    A(22,1,23)            106.7556                                         !
 ! A7    A(1,2,3)              101.7527                                         !
 ! A8    A(1,2,5)              109.9795                                         !
 ! A9    A(1,2,14)             105.7591                                         !
 ! A10   A(3,2,5)              118.171                                          !
 ! A11   A(3,2,14)             109.4662                                         !
 ! A12   A(5,2,14)             110.7112                                         !
 ! A13   A(2,3,4)              117.336                                          !
 ! A14   A(2,3,24)             118.9248                                         !
 ! A15   A(4,3,24)             123.4916                                         !
 ! A16   A(2,5,6)              112.044                                          !
 ! A17   A(2,5,15)             107.4154                                         !
 ! A18   A(2,5,16)             109.0388                                         !
 ! A19   A(6,5,15)             111.0578                                         !
 ! A20   A(6,5,16)             109.6349                                         !
 ! A21   A(15,5,16)            107.5122                                         !
 ! A22   A(5,6,7)              120.4964                                         !
 ! A23   A(5,6,8)              121.2048                                         !
 ! A24   A(7,6,8)              118.238                                          !
 ! A25   A(6,7,9)              121.3422                                         !
 ! A26   A(6,7,17)             119.4601                                         !
 ! A27   A(9,7,17)             119.1651                                         !
 ! A28   A(6,8,10)             121.0827                                         !
 ! A29   A(6,8,18)             120.0909                                         !
 ! A30   A(10,8,18)            118.8162                                         !
 ! A31   A(7,9,11)             119.7946                                         !
 ! A32   A(7,9,19)             121.4771                                         !
 ! A33   A(11,9,19)            118.7231                                         !
 ! A34   A(8,10,11)            119.9429                                         !
 ! A35   A(8,10,20)            119.998                                          !
 ! A36   A(11,10,20)           120.0538                                         !
 ! A37   A(9,11,10)            119.5991                                         !
 ! A38   A(9,11,12)            116.9147                                         !
 ! A39   A(10,11,12)           123.4861                                         !
 ! A40   A(11,12,21)           110.7449                                         !
 ! A41   A(3,24,25)            118.7984                                         !
 ! A42   A(3,24,31)            121.0535                                         !
 ! A43   A(25,24,31)           119.7418                                         !
 ! A44   A(24,25,26)           110.1108                                         !
 ! A45   A(24,25,28)           111.0153                                         !
 ! A46   A(24,25,32)           108.3215                                         !
 ! A47   A(26,25,28)           113.3406                                         !
 ! A48   A(26,25,32)           104.5148                                         !
 ! A49   A(28,25,32)           109.2298                                         !
 ! A50   A(25,26,27)           119.7638                                         !
 ! A51   A(25,26,40)           115.6433                                         !
 ! A52   A(27,26,40)           124.5896                                         !
 ! A53   A(25,28,29)           113.4612                                         !
 ! A54   A(25,28,30)           110.4008                                         !
 ! A55   A(25,28,33)           105.4786                                         !
 ! A56   A(29,28,30)           110.8228                                         !
 ! A57   A(29,28,33)           108.3987                                         !
 ! A58   A(30,28,33)           107.9809                                         !
 ! A59   A(28,29,34)           109.9454                                         !
 ! A60   A(28,29,35)           111.1767                                         !
 ! A61   A(28,29,36)           113.3171                                         !
 ! A62   A(34,29,35)           107.6017                                         !
 ! A63   A(34,29,36)           106.6818                                         !
 ! A64   A(35,29,36)           107.8608                                         !
 ! A65   A(28,30,37)           111.405                                          !
 ! A66   A(28,30,38)           109.9685                                         !
 ! A67   A(28,30,39)           111.3086                                         !
 ! A68   A(37,30,38)           108.1843                                         !
 ! A69   A(37,30,39)           107.6261                                         !
 ! A70   A(38,30,39)           108.2266                                         !
 ! A71   A(26,40,41)           124.7593                                         !
 ! A72   A(26,40,53)           117.5381                                         !
 ! A73   A(41,40,53)           117.1554                                         !
 ! A74   A(40,41,42)           112.1753                                         !
 ! A75   A(40,41,44)           113.4287                                         !
 ! A76   A(40,41,54)           108.0778                                         !
 ! A77   A(42,41,44)           108.742                                          !
 ! A78   A(42,41,54)           106.5267                                         !
 ! A79   A(44,41,54)           107.5587                                         !
 ! A80   A(41,42,43)           124.9936                                         !
 ! A81   A(41,42,51)           115.7315                                         !
 ! A82   A(43,42,51)           119.248                                          !
 ! A83   A(41,44,45)           114.7582                                         !
 ! A84   A(41,44,55)           107.8463                                         !
 ! A85   A(41,44,56)           107.6717                                         !
 ! A86   A(45,44,55)           109.8472                                         !
 ! A87   A(45,44,56)           109.4583                                         !
 ! A88   A(55,44,56)           106.955                                          !
 ! A89   A(44,45,46)           114.2048                                         !
 ! A90   A(44,45,57)           110.5026                                         !
 ! A91   A(44,45,58)           107.911                                          !
 ! A92   A(46,45,57)           109.9065                                         !
 ! A93   A(46,45,58)           107.7396                                         !
 ! A94   A(57,45,58)           106.2079                                         !
 ! A95   A(45,46,47)           110.9996                                         !
 ! A96   A(45,46,59)           109.5407                                         !
 ! A97   A(45,46,60)           108.5036                                         !
 ! A98   A(47,46,59)           112.3016                                         !
 ! A99   A(47,46,60)           108.5408                                         !
 ! A100  A(59,46,60)           106.7923                                         !
 ! A101  A(46,47,48)           122.8981                                         !
 ! A102  A(46,47,61)           114.2716                                         !
 ! A103  A(48,47,61)           116.1903                                         !
 ! A104  A(47,48,49)           128.6897                                         !
 ! A105  A(47,48,50)           111.9077                                         !
 ! A106  A(49,48,50)           119.1689                                         !
 ! A107  A(48,49,62)           112.5182                                         !
 ! A108  A(48,50,63)           109.8812                                         !
 ! A109  A(48,50,64)           114.8443                                         !
 ! A110  A(63,50,64)           111.1551                                         !
 ! A111  A(42,51,52)           102.9464                                         !
 ! D1    D(13,1,2,3)           170.157                                          !
 ! D2    D(13,1,2,5)           -63.7758                                         !
 ! D3    D(13,1,2,14)           55.8018                                         !
 ! D4    D(22,1,2,3)           -68.9098                                         !
 ! D5    D(22,1,2,5)            57.1574                                         !
 ! D6    D(22,1,2,14)          176.7349                                         !
 ! D7    D(23,1,2,3)            46.2569                                         !
 ! D8    D(23,1,2,5)           172.324                                          !
 ! D9    D(23,1,2,14)          -68.0984                                         !
 ! D10   D(1,2,3,4)            -32.0268                                         !
 ! D11   D(1,2,3,24)           142.4591                                         !
 ! D12   D(5,2,3,4)           -152.5121                                         !
 ! D13   D(5,2,3,24)            21.9739                                         !
 ! D14   D(14,2,3,4)            79.551                                          !
 ! D15   D(14,2,3,24)         -105.963                                          !
 ! D16   D(1,2,5,6)             46.3766                                         !
 ! D17   D(1,2,5,15)           168.6044                                         !
 ! D18   D(1,2,5,16)           -75.1731                                         !
 ! D19   D(3,2,5,6)            162.5162                                         !
 ! D20   D(3,2,5,15)           -75.256                                          !
 ! D21   D(3,2,5,16)            40.9665                                         !
 ! D22   D(14,2,5,6)           -70.1372                                         !
 ! D23   D(14,2,5,15)           52.0905                                         !
 ! D24   D(14,2,5,16)          168.3131                                         !
 ! D25   D(2,3,24,25)         -164.0876                                         !
 ! D26   D(2,3,24,31)            8.577                                          !
 ! D27   D(4,3,24,25)           10.0377                                         !
 ! D28   D(4,3,24,31)         -177.2977                                         !
 ! D29   D(2,5,6,7)           -111.1621                                         !
 ! D30   D(2,5,6,8)             65.9534                                         !
 ! D31   D(15,5,6,7)           128.7113                                         !
 ! D32   D(15,5,6,8)           -54.1732                                         !
 ! D33   D(16,5,6,7)            10.0446                                         !
 ! D34   D(16,5,6,8)          -172.8399                                         !
 ! D35   D(5,6,7,9)            177.3168                                         !
 ! D36   D(5,6,7,17)            -4.7776                                         !
 ! D37   D(8,6,7,9)              0.1172                                         !
 ! D38   D(8,6,7,17)           178.0228                                         !
 ! D39   D(5,6,8,10)          -177.098                                          !
 ! D40   D(5,6,8,18)             4.0758                                         !
 ! D41   D(7,6,8,10)             0.0809                                         !
 ! D42   D(7,6,8,18)          -178.7453                                         !
 ! D43   D(6,7,9,11)            -0.2454                                         !
 ! D44   D(6,7,9,19)           178.9116                                         !
 ! D45   D(17,7,9,11)         -178.1571                                         !
 ! D46   D(17,7,9,19)            0.9999                                         !
 ! D47   D(6,8,10,11)           -0.1481                                         !
 ! D48   D(6,8,10,20)         -179.3113                                         !
 ! D49   D(18,8,10,11)         178.6927                                         !
 ! D50   D(18,8,10,20)          -0.4705                                         !
 ! D51   D(7,9,11,10)            0.1749                                         !
 ! D52   D(7,9,11,12)         -179.7844                                         !
 ! D53   D(19,9,11,10)        -179.0052                                         !
 ! D54   D(19,9,11,12)           1.0354                                         !
 ! D55   D(8,10,11,9)            0.0189                                         !
 ! D56   D(8,10,11,12)         179.9755                                         !
 ! D57   D(20,10,11,9)         179.1816                                         !
 ! D58   D(20,10,11,12)         -0.8618                                         !
 ! D59   D(9,11,12,21)        -177.3724                                         !
 ! D60   D(10,11,12,21)          2.67                                           !
 ! D61   D(3,24,25,26)          56.5992                                         !
 ! D62   D(3,24,25,28)        -177.0552                                         !
 ! D63   D(3,24,25,32)         -57.1294                                         !
 ! D64   D(31,24,25,26)       -116.1638                                         !
 ! D65   D(31,24,25,28)         10.1818                                         !
 ! D66   D(31,24,25,32)        130.1076                                         !
 ! D67   D(24,25,26,27)       -145.5276                                         !
 ! D68   D(24,25,26,40)         35.1145                                         !
 ! D69   D(28,25,26,27)         89.4468                                         !
 ! D70   D(28,25,26,40)        -89.9111                                         !
 ! D71   D(32,25,26,27)        -29.3859                                         !
 ! D72   D(32,25,26,40)        151.2562                                         !
 ! D73   D(24,25,28,29)        -64.2273                                         !
 ! D74   D(24,25,28,30)        170.6829                                         !
 ! D75   D(24,25,28,33)         54.2759                                         !
 ! D76   D(26,25,28,29)         60.3098                                         !
 ! D77   D(26,25,28,30)        -64.7801                                         !
 ! D78   D(26,25,28,33)        178.8129                                         !
 ! D79   D(32,25,28,29)        176.3892                                         !
 ! D80   D(32,25,28,30)         51.2994                                         !
 ! D81   D(32,25,28,33)        -65.1076                                         !
 ! D82   D(25,26,40,41)       -178.8707                                         !
 ! D83   D(25,26,40,53)          9.8783                                         !
 ! D84   D(27,26,40,41)          1.8063                                         !
 ! D85   D(27,26,40,53)       -169.4447                                         !
 ! D86   D(25,28,29,34)        174.0746                                         !
 ! D87   D(25,28,29,35)        -66.875                                          !
 ! D88   D(25,28,29,36)         54.8034                                         !
 ! D89   D(30,28,29,34)        -61.0624                                         !
 ! D90   D(30,28,29,35)         57.9879                                         !
 ! D91   D(30,28,29,36)        179.6663                                         !
 ! D92   D(33,28,29,34)         57.2689                                         !
 ! D93   D(33,28,29,35)        176.3193                                         !
 ! D94   D(33,28,29,36)        -62.0024                                         !
 ! D95   D(25,28,30,37)        -56.1227                                         !
 ! D96   D(25,28,30,38)       -176.0609                                         !
 ! D97   D(25,28,30,39)         64.01                                           !
 ! D98   D(29,28,30,37)        177.3005                                         !
 ! D99   D(29,28,30,38)         57.3623                                         !
 ! D100  D(29,28,30,39)        -62.5667                                         !
 ! D101  D(33,28,30,37)         58.7159                                         !
 ! D102  D(33,28,30,38)        -61.2223                                         !
 ! D103  D(33,28,30,39)        178.8486                                         !
 ! D104  D(26,40,41,42)        142.4172                                         !
 ! D105  D(26,40,41,44)        -93.8878                                         !
 ! D106  D(26,40,41,54)         25.2763                                         !
 ! D107  D(53,40,41,42)        -46.3014                                         !
 ! D108  D(53,40,41,44)         77.3936                                         !
 ! D109  D(53,40,41,54)       -163.4423                                         !
 ! D110  D(40,41,42,43)        171.7708                                         !
 ! D111  D(40,41,42,51)         -6.3212                                         !
 ! D112  D(44,41,42,43)         45.4927                                         !
 ! D113  D(44,41,42,51)       -132.5992                                         !
 ! D114  D(54,41,42,43)        -70.1641                                         !
 ! D115  D(54,41,42,51)        111.7439                                         !
 ! D116  D(40,41,44,45)         70.0564                                         !
 ! D117  D(40,41,44,55)        -52.7129                                         !
 ! D118  D(40,41,44,56)       -167.8071                                         !
 ! D119  D(42,41,44,45)       -164.3931                                         !
 ! D120  D(42,41,44,55)         72.8376                                         !
 ! D121  D(42,41,44,56)        -42.2566                                         !
 ! D122  D(54,41,44,45)        -49.4048                                         !
 ! D123  D(54,41,44,55)       -172.1741                                         !
 ! D124  D(54,41,44,56)         72.7317                                         !
 ! D125  D(41,42,51,52)        173.2478                                         !
 ! D126  D(43,42,51,52)         -4.9607                                         !
 ! D127  D(41,44,45,46)         75.0329                                         !
 ! D128  D(41,44,45,57)        -49.4836                                         !
 ! D129  D(41,44,45,58)       -165.2075                                         !
 ! D130  D(55,44,45,46)       -163.2813                                         !
 ! D131  D(55,44,45,57)         72.2022                                         !
 ! D132  D(55,44,45,58)        -43.5217                                         !
 ! D133  D(56,44,45,46)        -46.13                                           !
 ! D134  D(56,44,45,57)       -170.6465                                         !
 ! D135  D(56,44,45,58)         73.6296                                         !
 ! D136  D(44,45,46,47)        -63.8056                                         !
 ! D137  D(44,45,46,59)        171.6142                                         !
 ! D138  D(44,45,46,60)         55.3795                                         !
 ! D139  D(57,45,46,47)         61.028                                          !
 ! D140  D(57,45,46,59)        -63.5522                                         !
 ! D141  D(57,45,46,60)       -179.7869                                         !
 ! D142  D(58,45,46,47)        176.3386                                         !
 ! D143  D(58,45,46,59)         51.7584                                         !
 ! D144  D(58,45,46,60)        -64.4763                                         !
 ! D145  D(45,46,47,48)        163.4691                                         !
 ! D146  D(45,46,47,61)        -46.268                                          !
 ! D147  D(59,46,47,48)        -73.528                                          !
 ! D148  D(59,46,47,61)         76.7348                                         !
 ! D149  D(60,46,47,48)         44.3064                                         !
 ! D150  D(60,46,47,61)       -165.4308                                         !
 ! D151  D(46,47,48,49)        -15.0691                                         !
 ! D152  D(46,47,48,50)        170.6121                                         !
 ! D153  D(61,47,48,49)       -164.8099                                         !
 ! D154  D(61,47,48,50)         20.8713                                         !
 ! D155  D(47,48,49,62)          0.39                                           !
 ! D156  D(50,48,49,62)        174.3524                                         !
 ! D157  D(47,48,50,63)       -172.4471                                         !
 ! D158  D(47,48,50,64)        -46.2661                                         !
 ! D159  D(49,48,50,63)         12.6296                                         !
 ! D160  D(49,48,50,64)        138.8106                                         !
 --------------------------------------------------------------------------------
 Symmetry turned off by external request.
 Stoichiometry    C20H33N6O5(1+)
 Framework group  C1[X(C20H33N6O5)]
 Deg. of freedom   186
 Full point group                 C1      NOp   1
                          Input orientation:                          
 ---------------------------------------------------------------------
 Center     Atomic      Atomic             Coordinates (Angstroms)
 Number     Number       Type             X           Y           Z
 ---------------------------------------------------------------------
      1          7           0       33.405390  -29.269333   40.149685
      2          6           0       32.099097  -29.929782   40.541537
      3          6           0       32.550121  -31.381202   40.815191
      4          8           0       33.488768  -31.815832   40.149983
      5          6           0       31.437520  -29.146710   41.687922
      6          6           0       31.436218  -27.653709   41.430166
      7          6           0       32.232752  -26.795894   42.205875
      8          6           0       30.691850  -27.098489   40.379423
      9          6           0       32.287334  -25.430571   41.949172
     10          6           0       30.739401  -25.732715   40.107347
     11          6           0       31.539452  -24.889537   40.893169
     12          8           0       31.639304  -23.555019   40.692613
     13          1           0       33.251234  -28.326732   39.777029
     14          1           0       31.472855  -29.905482   39.644289
     15          1           0       30.414645  -29.528575   41.799113
     16          1           0       31.971494  -29.358693   42.620038
     17          1           0       32.793217  -27.200223   43.046193
     18          1           0       30.048615  -27.732310   39.771959
     19          1           0       32.888347  -24.763290   42.557883
     20          1           0       30.146275  -25.319205   39.295251
     21          1           0       31.056431  -23.271345   39.970047
     22          1           0       34.019921  -29.216427   40.986679
     23          1           0       33.874280  -29.894360   39.475305
     24          7           0       31.982460  -32.058965   41.830371
     25          6           0       32.636281  -33.282799   42.318504
     26          6           0       34.090530  -32.974020   42.748152
     27          8           0       34.964472  -33.812982   42.579930
     28          6           0       31.796600  -33.954304   43.433174
     29          6           0       31.663949  -33.094897   44.701706
     30          6           0       32.364953  -35.340521   43.769932
     31          1           0       31.185862  -31.683750   42.326920
     32          1           0       32.739729  -33.974930   41.479527
     33          1           0       30.794586  -34.093803   43.002083
     34          1           0       30.977608  -33.573303   45.406461
     35          1           0       32.630044  -32.981235   45.205523
     36          1           0       31.265225  -32.089225   44.506252
     37          1           0       32.418924  -35.976872   42.880969
     38          1           0       31.726675  -35.837093   44.507129
     39          1           0       33.374595  -35.266090   44.186053
     40          7           0       34.291609  -31.747918   43.315327
     41          6           0       35.579576  -31.244558   43.768400
     42          6           0       35.744142  -29.758259   43.492662
     43          8           0       36.649494  -29.080546   43.892512
     44          6           0       35.848977  -31.505299   45.275459
     45          6           0       36.092051  -32.979151   45.640633
     46          6           0       37.475993  -33.508667   45.234811
     47          7           0       37.636543  -33.492885   43.791709
     48          6           0       38.879303  -33.594719   43.166513
     49          7           0       40.046848  -33.452385   43.676311
     50          7           0       38.755039  -33.767077   41.779372
     51          8           0       34.718803  -29.160155   42.741767
     52          1           0       34.950439  -28.209321   42.772500
     53          1           0       33.474776  -31.203412   43.552130
     54          1           0       36.365081  -31.756708   43.198194
     55          1           0       34.992081  -31.116880   45.842795
     56          1           0       36.720214  -30.909372   45.565228
     57          1           0       35.307956  -33.615728   45.211700
     58          1           0       36.003384  -33.075876   46.729114
     59          1           0       37.625671  -34.513649   45.661237
     60          1           0       38.240609  -32.859471   45.677819
     61          1           0       36.845003  -33.869884   43.279544
     62          1           0       40.014606  -33.243560   44.673240
     63          1           0       39.663879  -33.961515   41.373157
     64          1           0       38.070637  -34.461233   41.495359
 ---------------------------------------------------------------------
 Rotational constants (GHZ):           0.2160922           0.0758035           0.0654936
 Standard basis: 6-31G(d) (6D, 7F)
   531 basis functions,  1000 primitive gaussians,   531 cartesian basis functions
   117 alpha electrons      117 beta electrons
       nuclear repulsion energy      3332.7162645427 Hartrees.
 NAtoms=   64 NActive=   64 NUniq=   64 SFac= 1.00D+00 NAtFMM=   60 NAOKFM=T Big=T
 Integral buffers will be    131072 words long.
 Raffenetti 2 integral format.
 Two-electron integral symmetry is turned off.
 Nuclear repulsion after empirical dispersion term =     3332.6319770467 Hartrees.
 One-electron integrals computed using PRISM.
 NBasis=   531 RedAO= T EigKep=  4.37D-04  NBF=   531
 NBsUse=   531 1.00D-06 EigRej= -1.00D+00 NBFU=   531
 Initial guess from the checkpoint file:  "conf-876.chk"
 B after Tr=     0.000000    0.000000    0.000000
         Rot=    1.000000    0.000000    0.000000    0.000000 Ang=   0.00 deg.
 Requested convergence on RMS density matrix=1.00D-08 within 128 cycles.
 Requested convergence on MAX density matrix=1.00D-06.
 Requested convergence on             energy=1.00D-06.
 No special actions if energy rises.
 SCF Done:  E(RB3LYP) =  -1486.52770527     A.U. after    1 cycles
            NFock=  1  Conv=0.51D-08     -V/T= 2.0094

 **********************************************************************

            Population analysis using the SCF Density.

 **********************************************************************

 Alpha  occ. eigenvalues --  -19.34486 -19.29293 -19.27306 -19.27306 -19.23690
 Alpha  occ. eigenvalues --  -14.60469 -14.51523 -14.48580 -14.40428 -14.38846
 Alpha  occ. eigenvalues --  -14.33115 -10.45268 -10.44693 -10.41892 -10.41043
 Alpha  occ. eigenvalues --  -10.37488 -10.35776 -10.35644 -10.35448 -10.32985
 Alpha  occ. eigenvalues --  -10.32977 -10.32486 -10.32393 -10.31778 -10.31601
 Alpha  occ. eigenvalues --  -10.31002 -10.29448 -10.29352 -10.29260 -10.27759
 Alpha  occ. eigenvalues --  -10.27402  -1.23939  -1.20198  -1.17668  -1.15713
 Alpha  occ. eigenvalues --   -1.15294  -1.14640  -1.07939  -1.04878  -1.02637
 Alpha  occ. eigenvalues --   -0.98909  -0.94780  -0.94440  -0.92365  -0.89881
 Alpha  occ. eigenvalues --   -0.88719  -0.87726  -0.87607  -0.84666  -0.82790
 Alpha  occ. eigenvalues --   -0.80858  -0.79392  -0.77346  -0.75782  -0.75170
 Alpha  occ. eigenvalues --   -0.74702  -0.73546  -0.72405  -0.71896  -0.71097
 Alpha  occ. eigenvalues --   -0.69716  -0.69002  -0.66998  -0.66647  -0.64886
 Alpha  occ. eigenvalues --   -0.64361  -0.64090  -0.62091  -0.61828  -0.61272
 Alpha  occ. eigenvalues --   -0.59897  -0.59606  -0.59096  -0.58929  -0.58031
 Alpha  occ. eigenvalues --   -0.57515  -0.56892  -0.56633  -0.56049  -0.55385
 Alpha  occ. eigenvalues --   -0.55219  -0.54991  -0.54719  -0.54235  -0.53674
 Alpha  occ. eigenvalues --   -0.53025  -0.52550  -0.52014  -0.51333  -0.50937
 Alpha  occ. eigenvalues --   -0.50415  -0.49990  -0.49545  -0.49084  -0.48849
 Alpha  occ. eigenvalues --   -0.48446  -0.47419  -0.46255  -0.46095  -0.45774
 Alpha  occ. eigenvalues --   -0.45489  -0.45292  -0.45281  -0.44705  -0.44353
 Alpha  occ. eigenvalues --   -0.42830  -0.41856  -0.41644  -0.41196  -0.40931
 Alpha  occ. eigenvalues --   -0.38229  -0.37471  -0.36526  -0.34421  -0.31841
 Alpha  occ. eigenvalues --   -0.29940  -0.27663
 Alpha virt. eigenvalues --   -0.14849  -0.13473  -0.12557  -0.12170  -0.09841
 Alpha virt. eigenvalues --   -0.09421  -0.07717  -0.06783  -0.04478  -0.04044
 Alpha virt. eigenvalues --   -0.03627  -0.03313  -0.02072  -0.01716  -0.00354
 Alpha virt. eigenvalues --   -0.00041   0.00434   0.00950   0.01445   0.01964
 Alpha virt. eigenvalues --    0.02101   0.02904   0.03146   0.03418   0.03790
 Alpha virt. eigenvalues --    0.04264   0.04846   0.04899   0.05586   0.06241
 Alpha virt. eigenvalues --    0.06665   0.07181   0.07490   0.07810   0.08351
 Alpha virt. eigenvalues --    0.08535   0.08761   0.09069   0.09433   0.10171
 Alpha virt. eigenvalues --    0.10503   0.10972   0.11422   0.11666   0.12360
 Alpha virt. eigenvalues --    0.12670   0.12910   0.13181   0.13870   0.14312
 Alpha virt. eigenvalues --    0.14961   0.15761   0.17497   0.17764   0.18927
 Alpha virt. eigenvalues --    0.19567   0.20536   0.20832   0.21201   0.21691
 Alpha virt. eigenvalues --    0.21810   0.23259   0.23495   0.23934   0.26017
 Alpha virt. eigenvalues --    0.28635   0.29412   0.32062   0.33497   0.34820
 Alpha virt. eigenvalues --    0.36434   0.37011   0.37700   0.38158   0.38728
 Alpha virt. eigenvalues --    0.40100   0.40459   0.40802   0.41473   0.41698
 Alpha virt. eigenvalues --    0.41951   0.42560   0.43209   0.43944   0.44225
 Alpha virt. eigenvalues --    0.45008   0.45811   0.45990   0.46380   0.47046
 Alpha virt. eigenvalues --    0.48188   0.48358   0.48607   0.48796   0.49210
 Alpha virt. eigenvalues --    0.49478   0.49928   0.50099   0.51281   0.51971
 Alpha virt. eigenvalues --    0.52719   0.53295   0.53377   0.54296   0.54531
 Alpha virt. eigenvalues --    0.54986   0.55917   0.56785   0.57188   0.57710
 Alpha virt. eigenvalues --    0.58286   0.58542   0.58899   0.59428   0.59744
 Alpha virt. eigenvalues --    0.60817   0.61679   0.62054   0.63411   0.64239
 Alpha virt. eigenvalues --    0.64567   0.64789   0.65233   0.66069   0.66266
 Alpha virt. eigenvalues --    0.67586   0.68141   0.68553   0.68988   0.69507
 Alpha virt. eigenvalues --    0.69969   0.70002   0.70752   0.71612   0.72002
 Alpha virt. eigenvalues --    0.72500   0.72595   0.73463   0.73757   0.74429
 Alpha virt. eigenvalues --    0.74885   0.75132   0.76258   0.76566   0.76788
 Alpha virt. eigenvalues --    0.77382   0.77858   0.78351   0.78950   0.79498
 Alpha virt. eigenvalues --    0.79686   0.80275   0.81000   0.81266   0.81531
 Alpha virt. eigenvalues --    0.82330   0.82618   0.83110   0.83340   0.83802
 Alpha virt. eigenvalues --    0.84200   0.84857   0.85039   0.85294   0.85774
 Alpha virt. eigenvalues --    0.86181   0.86513   0.86815   0.87240   0.87292
 Alpha virt. eigenvalues --    0.88749   0.89355   0.89969   0.91279   0.91843
 Alpha virt. eigenvalues --    0.92316   0.92653   0.93855   0.94676   0.94807
 Alpha virt. eigenvalues --    0.95736   0.96851   0.97169   0.98307   0.99504
 Alpha virt. eigenvalues --    1.00672   1.01008   1.01653   1.02888   1.03480
 Alpha virt. eigenvalues --    1.04484   1.05740   1.06668   1.07081   1.08861
 Alpha virt. eigenvalues --    1.08889   1.09551   1.11056   1.11836   1.12960
 Alpha virt. eigenvalues --    1.14266   1.14349   1.16570   1.17867   1.18290
 Alpha virt. eigenvalues --    1.19346   1.20711   1.21516   1.22179   1.23753
 Alpha virt. eigenvalues --    1.24929   1.25180   1.26573   1.28083   1.29276
 Alpha virt. eigenvalues --    1.30182   1.31482   1.32305   1.32873   1.33570
 Alpha virt. eigenvalues --    1.34575   1.35604   1.36321   1.36807   1.37562
 Alpha virt. eigenvalues --    1.38254   1.38788   1.39354   1.41932   1.42212
 Alpha virt. eigenvalues --    1.44333   1.46010   1.46316   1.48810   1.49195
 Alpha virt. eigenvalues --    1.51244   1.52988   1.55054   1.55926   1.56704
 Alpha virt. eigenvalues --    1.57549   1.58209   1.59890   1.60644   1.61417
 Alpha virt. eigenvalues --    1.62044   1.62197   1.62842   1.63349   1.64382
 Alpha virt. eigenvalues --    1.64520   1.65434   1.66597   1.66811   1.67578
 Alpha virt. eigenvalues --    1.68602   1.69607   1.69724   1.70198   1.70882
 Alpha virt. eigenvalues --    1.71505   1.72689   1.73110   1.74107   1.74831
 Alpha virt. eigenvalues --    1.75708   1.75870   1.77220   1.77475   1.78184
 Alpha virt. eigenvalues --    1.79539   1.80216   1.80747   1.81516   1.82087
 Alpha virt. eigenvalues --    1.82778   1.82995   1.83452   1.84581   1.85066
 Alpha virt. eigenvalues --    1.85676   1.86357   1.87425   1.87722   1.88642
 Alpha virt. eigenvalues --    1.89714   1.91056   1.91830   1.93126   1.93717
 Alpha virt. eigenvalues --    1.94405   1.94987   1.95376   1.95689   1.96728
 Alpha virt. eigenvalues --    1.96906   1.97984   1.98627   1.99254   2.00780
 Alpha virt. eigenvalues --    2.01347   2.02017   2.02310   2.03204   2.04164
 Alpha virt. eigenvalues --    2.05223   2.06470   2.09519   2.10521   2.12124
 Alpha virt. eigenvalues --    2.13709   2.14599   2.15033   2.15345   2.15480
 Alpha virt. eigenvalues --    2.16724   2.17701   2.18813   2.19122   2.21376
 Alpha virt. eigenvalues --    2.23245   2.24075   2.24477   2.24958   2.25838
 Alpha virt. eigenvalues --    2.26279   2.27596   2.28487   2.28926   2.30189
 Alpha virt. eigenvalues --    2.31882   2.31956   2.33030   2.33333   2.34806
 Alpha virt. eigenvalues --    2.35330   2.36200   2.38201   2.39014   2.42771
 Alpha virt. eigenvalues --    2.43292   2.44076   2.44771   2.45826   2.46257
 Alpha virt. eigenvalues --    2.47090   2.48283   2.49507   2.51339   2.52539
 Alpha virt. eigenvalues --    2.53431   2.54177   2.55412   2.56214   2.56896
 Alpha virt. eigenvalues --    2.57395   2.58356   2.59954   2.60820   2.61949
 Alpha virt. eigenvalues --    2.63342   2.64251   2.65265   2.66090   2.66753
 Alpha virt. eigenvalues --    2.67834   2.71690   2.73054   2.76076   2.77042
 Alpha virt. eigenvalues --    2.78891   2.81594   2.84219   2.88198   2.88798
 Alpha virt. eigenvalues --    2.94432   2.96295   2.98930   3.00443   3.03344
 Alpha virt. eigenvalues --    3.03753   3.07177   3.28551   3.70012   3.75920
 Alpha virt. eigenvalues --    3.77289   3.82974   3.87905   3.91629   3.93026
 Alpha virt. eigenvalues --    3.95662   3.98211   3.99218   3.99895   4.04436
 Alpha virt. eigenvalues --    4.07732   4.10358   4.11827   4.15130   4.15683
 Alpha virt. eigenvalues --    4.18331   4.20476   4.22885   4.24987   4.27746
 Alpha virt. eigenvalues --    4.31653   4.35062   4.37474   4.46263   4.47802
 Alpha virt. eigenvalues --    4.50211   4.57351   4.62808   4.63341
          Condensed to atoms (all electrons):
 Mulliken charges:
               1
     1  N   -0.757832
     2  C   -0.119300
     3  C    0.660022
     4  O   -0.508958
     5  C   -0.393681
     6  C    0.118263
     7  C   -0.220797
     8  C   -0.203491
     9  C   -0.150268
    10  C   -0.185336
    11  C    0.362575
    12  O   -0.614904
    13  H    0.411466
    14  H    0.231147
    15  H    0.194027
    16  H    0.177050
    17  H    0.138885
    18  H    0.148735
    19  H    0.177745
    20  H    0.159089
    21  H    0.426580
    22  H    0.436172
    23  H    0.427719
    24  N   -0.651260
    25  C   -0.023648
    26  C    0.632889
    27  O   -0.511636
    28  C   -0.126169
    29  C   -0.477912
    30  C   -0.455588
    31  H    0.354606
    32  H    0.214275
    33  H    0.157575
    34  H    0.188479
    35  H    0.169639
    36  H    0.116664
    37  H    0.169833
    38  H    0.168934
    39  H    0.174941
    40  N   -0.611221
    41  C   -0.074477
    42  C    0.603391
    43  O   -0.403374
    44  C   -0.267561
    45  C   -0.307600
    46  C   -0.116780
    47  N   -0.649757
    48  C    0.577895
    49  N   -0.641185
    50  N   -0.751501
    51  O   -0.642498
    52  H    0.424935
    53  H    0.334209
    54  H    0.260299
    55  H    0.137546
    56  H    0.193470
    57  H    0.152784
    58  H    0.162026
    59  H    0.155540
    60  H    0.154949
    61  H    0.362241
    62  H    0.275696
    63  H    0.339402
    64  H    0.315043
 Sum of Mulliken charges =   1.00000
 Mulliken charges with hydrogens summed into heavy atoms:
               1
     1  N    0.517525
     2  C    0.111847
     3  C    0.660022
     4  O   -0.508958
     5  C   -0.022604
     6  C    0.118263
     7  C   -0.081911
     8  C   -0.054756
     9  C    0.027477
    10  C   -0.026247
    11  C    0.362575
    12  O   -0.188324
    24  N   -0.296655
    25  C    0.190628
    26  C    0.632889
    27  O   -0.511636
    28  C    0.031405
    29  C   -0.003131
    30  C    0.058120
    40  N   -0.277013
    41  C    0.185822
    42  C    0.603391
    43  O   -0.403374
    44  C    0.063455
    45  C    0.007211
    46  C    0.193708
    47  N   -0.287516
    48  C    0.577895
    49  N   -0.365489
    50  N   -0.097057
    51  O   -0.217564
 Electronic spatial extent (au):  <R**2>=        3290737.0386
 Charge=              1.0000 electrons
 Dipole moment (field-independent basis, Debye):
    X=            150.4780    Y=           -140.9412    Z=            199.2306  Tot=            286.7070
 Quadrupole moment (field-independent basis, Debye-Ang):
   XX=           4497.3177   YY=           3997.7820   ZZ=           8114.8549
   XY=          -4409.1576   XZ=           6244.1426   YZ=          -5875.5533
 Traceless Quadrupole moment (field-independent basis, Debye-Ang):
   XX=          -1039.3338   YY=          -1538.8696   ZZ=           2578.2034
   XY=          -4409.1576   XZ=           6244.1426   YZ=          -5875.5533
 Octapole moment (field-independent basis, Debye-Ang**2):
  XXX=         125333.5467  YYY=        -108465.4901  ZZZ=         323699.6141  XYY=         124350.2887
  XXY=        -131185.1743  XXZ=         186433.6492  XZZ=         254028.0455  YZZ=        -240353.1772
  YYZ=         167357.7791  XYZ=        -183883.2769
 Hexadecapole moment (field-independent basis, Debye-Ang**3):
 XXXX=        3081817.5404 YYYY=        2749040.2913 ZZZZ=       12586944.9982 XXXY=       -3617192.5411
 XXXZ=        5177237.8151 YYYX=       -3331686.6915 YYYZ=       -4556091.8270 ZZZX=       10100803.8545
 ZZZY=       -9622514.7393 XXYY=        3653382.7809 XXZZ=        7553762.7481 YYZZ=        6862438.2750
 XXYZ=       -5466106.0789 YYXZ=        5207199.4627 ZZXY=       -7511979.6523
 N-N= 3.332631977047D+03 E-N=-1.009991974779D+04  KE= 1.472658151827D+03
 Unable to Open any file for archive entry.
 1\1\GINC-AMR-039\SP\RB3LYP\6-31G(d)\C20H33N6O5(1+)\KENGMITH\31-May-202
 2\0\\# B3LYP/6-31G* empiricaldispersion=gd3 guess=read geom=check nosy
 mm integral(ultrafinegrid)\\Candidate Structure: Conf:876 Charge calc 
 in gas phase\\1,1\N,0,33.4053897007,-29.2693334111,40.1496848418\C,0,3
 2.0990974437,-29.9297821202,40.5415367484\C,0,32.5501213446,-31.381201
 7514,40.8151912617\O,0,33.4887677968,-31.8158324965,40.1499831482\C,0,
 31.4375204848,-29.1467097107,41.6879216912\C,0,31.4362175336,-27.65370
 9043,41.4301660293\C,0,32.2327524969,-26.7958935421,42.2058753808\C,0,
 30.6918496648,-27.098488751,40.3794227679\C,0,32.2873337457,-25.430570
 9205,41.9491723777\C,0,30.7394011084,-25.7327154768,40.1073467317\C,0,
 31.5394522547,-24.8895367277,40.8931688926\O,0,31.6393039904,-23.55501
 88879,40.6926133301\H,0,33.251233941,-28.3267323341,39.7770289418\H,0,
 31.4728550084,-29.9054815643,39.6442891375\H,0,30.4146449471,-29.52857
 49949,41.7991131091\H,0,31.9714940763,-29.35869319,42.6200378566\H,0,3
 2.7932168135,-27.2002227165,43.0461925258\H,0,30.048614562,-27.7323097
 9,39.7719594528\H,0,32.8883474735,-24.763290293,42.5578833923\H,0,30.1
 462753842,-25.3192051542,39.2952509635\H,0,31.056430539,-23.2713454123
 ,39.9700467547\H,0,34.019921263,-29.2164269881,40.9866792098\H,0,33.87
 42803578,-29.8943601569,39.4753045279\N,0,31.9824603652,-32.0589649266
 ,41.8303706873\C,0,32.6362808734,-33.2827989346,42.3185041211\C,0,34.0
 90530411,-32.9740196396,42.7481523158\O,0,34.9644721511,-33.8129815658
 ,42.5799304748\C,0,31.7966003591,-33.9543044332,43.4331741236\C,0,31.6
 639488908,-33.0948972465,44.7017055785\C,0,32.3649526175,-35.340520883
 8,43.7699317769\H,0,31.1858617385,-31.6837502201,42.3269198391\H,0,32.
 7397291819,-33.9749302927,41.4795271078\H,0,30.7945856536,-34.09380298
 23,43.0020828556\H,0,30.9776078658,-33.5733030413,45.4064614204\H,0,32
 .6300441317,-32.981234921,45.2055228154\H,0,31.2652246662,-32.08922494
 75,44.5062521047\H,0,32.4189238798,-35.976871986,42.8809687116\H,0,31.
 7266745589,-35.8370932528,44.5071293815\H,0,33.3745949771,-35.26609031
 21,44.1860525163\N,0,34.2916088064,-31.7479181622,43.315326587\C,0,35.
 5795759365,-31.2445575605,43.7683996867\C,0,35.7441420644,-29.75825904
 5,43.4926623509\O,0,36.6494938023,-29.080546429,43.8925124576\C,0,35.8
 489767441,-31.5052992294,45.2754589216\C,0,36.0920513428,-32.979151094
 5,45.640632806\C,0,37.4759932517,-33.5086673603,45.2348110485\N,0,37.6
 365431013,-33.4928852691,43.7917093836\C,0,38.8793034661,-33.594718821
 4,43.1665129368\N,0,40.0468483097,-33.4523853125,43.6763108947\N,0,38.
 7550388477,-33.7670770413,41.779372383\O,0,34.7188033875,-29.160154640
 8,42.7417666181\H,0,34.9504389405,-28.209320713,42.7725000694\H,0,33.4
 747761868,-31.2034123926,43.5521297711\H,0,36.3650806136,-31.756707728
 8,43.1981944491\H,0,34.9920805484,-31.1168804595,45.842794587\H,0,36.7
 202140157,-30.9093717604,45.5652276194\H,0,35.3079558635,-33.615728300
 9,45.2116999009\H,0,36.0033840811,-33.0758757186,46.7291136031\H,0,37.
 6256709522,-34.5136486861,45.6612365757\H,0,38.2406087616,-32.85947111
 2,45.677818689\H,0,36.8450033385,-33.8698837996,43.2795438991\H,0,40.0
 146061474,-33.2435597034,44.6732397668\H,0,39.6638791707,-33.961514933
 7,41.3731567912\H,0,38.0706365269,-34.4612329759,41.4953589598\\Versio
 n=ES64L-G16RevC.01\HF=-1486.5277053\RMSD=5.051e-09\Dipole=-5.1683309,2
 .6443029,-2.0392979\Quadrupole=-772.7192138,-1144.1118097,1916.8310236
 ,-3278.1005751,4642.3669553,-4368.3298502\PG=C01 [X(C20H33N6O5)]\\@
 The archive entry for this job was punched.


 LIFE IS A CONTINUAL STRUGGLE AGAINST THE TENDENCY TO PRODUCE ENTROPY.
 Job cpu time:       0 days  0 hours  1 minutes  4.7 seconds.
 Elapsed time:       0 days  0 hours  0 minutes 16.7 seconds.
 File lengths (MBytes):  RWF=    264 Int=      0 D2E=      0 Chk=     40 Scr=     16
 Normal termination of Gaussian 16 at Tue May 31 11:31:54 2022.
