 Entering Gaussian System, Link 0=/opt/software/Gaussian/g16-AVX2-C.01/g16/g16
 Input=charge-conf-948.com
 Output=charge-conf-948.log
 Initial command:
 /opt/software/Gaussian/g16-AVX2-C.01/g16/l1.exe "/mnt/gs18/scratch/users/kengmith/Gau-31100.inp" -scrdir="/mnt/gs18/scratch/users/kengmith/"
 Entering Link 1 = /opt/software/Gaussian/g16-AVX2-C.01/g16/l1.exe PID=     31110.
  
 Copyright (c) 1988-2019, Gaussian, Inc.  All Rights Reserved.
  
 This is part of the Gaussian(R) 16 program.  It is based on
 the Gaussian(R) 09 system (copyright 2009, Gaussian, Inc.),
 the Gaussian(R) 03 system (copyright 2003, Gaussian, Inc.),
 the Gaussian(R) 98 system (copyright 1998, Gaussian, Inc.),
 the Gaussian(R) 94 system (copyright 1995, Gaussian, Inc.),
 the Gaussian 92(TM) system (copyright 1992, Gaussian, Inc.),
 the Gaussian 90(TM) system (copyright 1990, Gaussian, Inc.),
 the Gaussian 88(TM) system (copyright 1988, Gaussian, Inc.),
 the Gaussian 86(TM) system (copyright 1986, Carnegie Mellon
 University), and the Gaussian 82(TM) system (copyright 1983,
 Carnegie Mellon University). Gaussian is a federally registered
 trademark of Gaussian, Inc.
  
 This software contains proprietary and confidential information,
 including trade secrets, belonging to Gaussian, Inc.
  
 This software is provided under written license and may be
 used, copied, transmitted, or stored only in accord with that
 written license.
  
 The following legend is applicable only to US Government
 contracts under FAR:
  
                    RESTRICTED RIGHTS LEGEND
  
 Use, reproduction and disclosure by the US Government is
 subject to restrictions as set forth in subparagraphs (a)
 and (c) of the Commercial Computer Software - Restricted
 Rights clause in FAR 52.227-19.
  
 Gaussian, Inc.
 340 Quinnipiac St., Bldg. 40, Wallingford CT 06492
  
  
 ---------------------------------------------------------------
 Warning -- This program may not be used in any manner that
 competes with the business of Gaussian, Inc. or will provide
 assistance to any competitor of Gaussian, Inc.  The licensee
 of this program is prohibited from giving any competitor of
 Gaussian, Inc. access to this program.  By using this program,
 the user acknowledges that Gaussian, Inc. is engaged in the
 business of creating and licensing software in the field of
 computational chemistry and represents and warrants to the
 licensee that it is not a competitor of Gaussian, Inc. and that
 it will not use this program in any manner prohibited above.
 ---------------------------------------------------------------
  

 Cite this work as:
 Gaussian 16, Revision C.01,
 M. J. Frisch, G. W. Trucks, H. B. Schlegel, G. E. Scuseria, 
 M. A. Robb, J. R. Cheeseman, G. Scalmani, V. Barone, 
 G. A. Petersson, H. Nakatsuji, X. Li, M. Caricato, A. V. Marenich, 
 J. Bloino, B. G. Janesko, R. Gomperts, B. Mennucci, H. P. Hratchian, 
 J. V. Ortiz, A. F. Izmaylov, J. L. Sonnenberg, D. Williams-Young, 
 F. Ding, F. Lipparini, F. Egidi, J. Goings, B. Peng, A. Petrone, 
 T. Henderson, D. Ranasinghe, V. G. Zakrzewski, J. Gao, N. Rega, 
 G. Zheng, W. Liang, M. Hada, M. Ehara, K. Toyota, R. Fukuda, 
 J. Hasegawa, M. Ishida, T. Nakajima, Y. Honda, O. Kitao, H. Nakai, 
 T. Vreven, K. Throssell, J. A. Montgomery, Jr., J. E. Peralta, 
 F. Ogliaro, M. J. Bearpark, J. J. Heyd, E. N. Brothers, K. N. Kudin, 
 V. N. Staroverov, T. A. Keith, R. Kobayashi, J. Normand, 
 K. Raghavachari, A. P. Rendell, J. C. Burant, S. S. Iyengar, 
 J. Tomasi, M. Cossi, J. M. Millam, M. Klene, C. Adamo, R. Cammi, 
 J. W. Ochterski, R. L. Martin, K. Morokuma, O. Farkas, 
 J. B. Foresman, and D. J. Fox, Gaussian, Inc., Wallingford CT, 2019.
 
 ******************************************
 Gaussian 16:  ES64L-G16RevC.01  3-Jul-2019
                31-May-2022 
 ******************************************
 %mem=8gb
 %nproc=4
 Will use up to    4 processors via shared memory.
 %chk=conf-948.chk
 ----------------------------------------------------------------------
 # B3LYP/6-31G* empiricaldispersion=gd3 guess=read geom=check nosymm in
 tegral(ultrafinegrid)
 ----------------------------------------------------------------------
 1/29=2,38=1,172=1/1;
 2/12=2,15=1,40=1/2;
 3/5=1,6=6,7=1,11=2,14=-4,25=1,30=1,74=-5,75=-5,116=-2,124=31/1,2,3;
 4/5=1/1;
 5/5=2,38=6/2;
 6/7=2,8=2,9=2,10=2,28=1/1;
 99/5=1,9=1/99;
 ------------------------------------------------------
 Candidate Structure: Conf:948 Charge calc in gas phase
 ------------------------------------------------------
 Structure from the checkpoint file:  "conf-948.chk"
 Charge =  1 Multiplicity = 1
 Redundant internal coordinates found in file.  (old form).
 N,0,33.4076359676,-31.0455466519,40.3900760696
 C,0,31.9676118737,-30.588162478,40.5986311294
 C,0,31.5150728324,-31.4225066481,41.8148639557
 O,0,31.1841544211,-32.5785188905,41.6227575537
 C,0,31.9374644392,-29.0540108742,40.6417173509
 C,0,32.4422019251,-28.4627150431,39.3405257225
 C,0,33.7758506319,-28.0528510118,39.2040637975
 C,0,31.5975979753,-28.3722446647,38.221541199
 C,0,34.256192086,-27.5625455005,37.9880318355
 C,0,32.0621118005,-27.8837582226,37.0082813201
 C,0,33.3988324628,-27.47368571,36.8845015186
 O,0,33.7856807053,-27.0058617679,35.6720255028
 H,0,34.0193363037,-30.7052875415,41.160504908
 H,0,31.4101527366,-30.9583681473,39.7360455622
 H,0,30.9016402583,-28.7544149696,40.8368316615
 H,0,32.5502592431,-28.6897926903,41.4749488659
 H,0,34.4436976116,-28.1032631405,40.0616518437
 H,0,30.5566184812,-28.6766696886,38.3058236109
 H,0,35.2902942348,-27.2366611078,37.9007775736
 H,0,31.4099053469,-27.8008106472,36.1453708224
 H,0,34.7118513203,-26.7176188417,35.6988958603
 H,0,33.4610964546,-32.071166707,40.3893135744
 H,0,33.7688250288,-30.6587894382,39.5084295722
 N,0,31.6731121544,-30.8505519389,43.0513220001
 C,0,32.2018247974,-31.7012930225,44.1390655253
 C,0,33.7204004175,-31.6795769717,43.8502372772
 O,0,34.160293872,-32.3319899653,42.8949043966
 C,0,31.641965755,-31.3410632468,45.5304656402
 C,0,31.6722727061,-29.8518187126,45.9166285777
 C,0,32.2832300422,-32.2292855308,46.6088172812
 H,0,32.0253698857,-29.900566248,43.0598332041
 H,0,31.8848278942,-32.7181069005,43.9013931799
 H,0,30.5809796046,-31.6131525931,45.4613851663
 H,0,31.0727608107,-29.700191598,46.8194833473
 H,0,32.6746993313,-29.4721547489,46.1566408139
 H,0,31.244111809,-29.214084219,45.1357598892
 H,0,33.3422809144,-31.9853937033,46.7590703413
 H,0,32.2184299243,-33.2907013244,46.3437787552
 H,0,31.776411581,-32.0928357395,47.5688071089
 N,0,34.4969522117,-30.8107588367,44.5328446501
 C,0,35.8815909903,-30.5748568698,44.1644017978
 C,0,35.9372012602,-29.6444653349,42.9531456565
 O,0,35.0197873041,-29.4726560515,42.1568685109
 C,0,36.7170218024,-30.1067648362,45.3698080821
 C,0,36.7418266306,-31.0987015908,46.5475633666
 C,0,37.2744548632,-32.4974867032,46.2051882553
 N,0,36.3072621579,-33.2414578909,45.4094256792
 C,0,36.6831739693,-34.3820632245,44.6737184076
 N,0,37.8493499371,-34.8920665053,44.5354036071
 N,0,35.573359478,-34.9477606182,44.0453324109
 O,0,37.1272334169,-29.0646465618,42.8059276499
 H,0,37.1171029918,-28.5316770053,41.9871727466
 H,0,34.1031252545,-30.2722616375,45.2901281619
 H,0,36.2762257871,-31.5362877533,43.8143390208
 H,0,36.3428578612,-29.133500514,45.7164540511
 H,0,37.7389929324,-29.9348887467,45.0199650044
 H,0,35.7417347162,-31.1910335195,46.9941030015
 H,0,37.3772028326,-30.665359498,47.3283339833
 H,0,37.5481636829,-33.0264913309,47.1311898251
 H,0,38.1919966006,-32.401256125,45.6121670263
 H,0,35.4069436733,-33.361241839,45.8619563849
 H,0,38.5290139236,-34.4896462617,45.1807287758
 H,0,35.8463226107,-35.739640401,43.4740950887
 H,0,34.997570541,-34.2815044978,43.5376286709
 Recover connectivity data from disk.
                           ----------------------------
                           !    Current Parameters    !
                           ! (Angstroms and Degrees)  !
 --------------------------                            --------------------------
 ! Name  Definition              Value                                          !
 --------------------------------------------------------------------------------
 ! R1    R(1,2)                  1.5252                                         !
 ! R2    R(1,13)                 1.0409                                         !
 ! R3    R(1,22)                 1.027                                          !
 ! R4    R(1,23)                 1.0283                                         !
 ! R5    R(2,3)                  1.5428                                         !
 ! R6    R(2,5)                  1.5351                                         !
 ! R7    R(2,14)                 1.0917                                         !
 ! R8    R(3,4)                  1.2177                                         !
 ! R9    R(3,24)                 1.3715                                         !
 ! R10   R(5,6)                  1.5157                                         !
 ! R11   R(5,15)                 1.0958                                         !
 ! R12   R(5,16)                 1.0966                                         !
 ! R13   R(6,7)                  1.4019                                         !
 ! R14   R(6,8)                  1.4049                                         !
 ! R15   R(7,9)                  1.3964                                         !
 ! R16   R(7,17)                 1.0881                                         !
 ! R17   R(8,10)                 1.3879                                         !
 ! R18   R(8,18)                 1.0878                                         !
 ! R19   R(9,11)                 1.4003                                         !
 ! R20   R(9,19)                 1.0877                                         !
 ! R21   R(10,11)                1.4037                                         !
 ! R22   R(10,20)                1.0848                                         !
 ! R23   R(11,12)                1.356                                          !
 ! R24   R(12,21)                0.9704                                         !
 ! R25   R(24,25)                1.4787                                         !
 ! R26   R(24,31)                1.0132                                         !
 ! R27   R(25,26)                1.546                                          !
 ! R28   R(25,28)                1.5425                                         !
 ! R29   R(25,32)                1.0913                                         !
 ! R30   R(26,27)                1.2377                                         !
 ! R31   R(26,40)                1.3505                                         !
 ! R32   R(28,29)                1.5388                                         !
 ! R33   R(28,30)                1.5372                                         !
 ! R34   R(28,33)                1.0975                                         !
 ! R35   R(29,34)                1.0943                                         !
 ! R36   R(29,35)                1.0985                                         !
 ! R37   R(29,36)                1.0953                                         !
 ! R38   R(30,37)                1.0971                                         !
 ! R39   R(30,38)                1.0959                                         !
 ! R40   R(30,39)                1.0941                                         !
 ! R41   R(40,41)                1.4521                                         !
 ! R42   R(40,53)                1.0092                                         !
 ! R43   R(41,42)                1.5284                                         !
 ! R44   R(41,44)                1.5395                                         !
 ! R45   R(41,54)                1.0966                                         !
 ! R46   R(42,43)                1.2269                                         !
 ! R47   R(42,51)                1.3319                                         !
 ! R48   R(44,45)                1.54                                           !
 ! R49   R(44,55)                1.0988                                         !
 ! R50   R(44,56)                1.0938                                         !
 ! R51   R(45,46)                1.5354                                         !
 ! R52   R(45,57)                1.0991                                         !
 ! R53   R(45,58)                1.0959                                         !
 ! R54   R(46,47)                1.4568                                         !
 ! R55   R(46,59)                1.101                                          !
 ! R56   R(46,60)                1.0967                                         !
 ! R57   R(47,48)                1.4084                                         !
 ! R58   R(47,61)                1.0147                                         !
 ! R59   R(48,49)                1.2803                                         !
 ! R60   R(48,50)                1.3952                                         !
 ! R61   R(49,62)                1.02                                           !
 ! R62   R(50,63)                1.0139                                         !
 ! R63   R(50,64)                1.0165                                         !
 ! R64   R(51,52)                0.977                                          !
 ! A1    A(2,1,13)             110.8297                                         !
 ! A2    A(2,1,22)             110.4089                                         !
 ! A3    A(2,1,23)             109.6383                                         !
 ! A4    A(13,1,22)            107.2415                                         !
 ! A5    A(13,1,23)            107.7724                                         !
 ! A6    A(22,1,23)            110.8972                                         !
 ! A7    A(1,2,3)              102.8594                                         !
 ! A8    A(1,2,5)              108.7888                                         !
 ! A9    A(1,2,14)             105.8052                                         !
 ! A10   A(3,2,5)              120.8374                                         !
 ! A11   A(3,2,14)             106.8406                                         !
 ! A12   A(5,2,14)             110.5516                                         !
 ! A13   A(2,3,4)              117.9537                                         !
 ! A14   A(2,3,24)             116.8333                                         !
 ! A15   A(4,3,24)             124.7126                                         !
 ! A16   A(2,5,6)              111.0534                                         !
 ! A17   A(2,5,15)             107.266                                          !
 ! A18   A(2,5,16)             110.0173                                         !
 ! A19   A(6,5,15)             111.1598                                         !
 ! A20   A(6,5,16)             109.6723                                         !
 ! A21   A(15,5,16)            107.5863                                         !
 ! A22   A(5,6,7)              120.958                                          !
 ! A23   A(5,6,8)              120.5761                                         !
 ! A24   A(7,6,8)              118.397                                          !
 ! A25   A(6,7,9)              120.9763                                         !
 ! A26   A(6,7,17)             119.5793                                         !
 ! A27   A(9,7,17)             119.4382                                         !
 ! A28   A(6,8,10)             121.179                                          !
 ! A29   A(6,8,18)             119.7069                                         !
 ! A30   A(10,8,18)            119.109                                          !
 ! A31   A(7,9,11)             119.8656                                         !
 ! A32   A(7,9,19)             120.1378                                         !
 ! A33   A(11,9,19)            119.9908                                         !
 ! A34   A(8,10,11)            119.9085                                         !
 ! A35   A(8,10,20)            121.4006                                         !
 ! A36   A(11,10,20)           118.6884                                         !
 ! A37   A(9,11,10)            119.6726                                         !
 ! A38   A(9,11,12)            123.4981                                         !
 ! A39   A(10,11,12)           116.8292                                         !
 ! A40   A(11,12,21)           110.4891                                         !
 ! A41   A(3,24,25)            117.6757                                         !
 ! A42   A(3,24,31)            116.0173                                         !
 ! A43   A(25,24,31)           114.1384                                         !
 ! A44   A(24,25,26)           101.871                                          !
 ! A45   A(24,25,28)           113.5425                                         !
 ! A46   A(24,25,32)           105.7836                                         !
 ! A47   A(26,25,28)           121.4522                                         !
 ! A48   A(26,25,32)           104.9358                                         !
 ! A49   A(28,25,32)           107.9769                                         !
 ! A50   A(25,26,27)           119.0737                                         !
 ! A51   A(25,26,40)           118.6485                                         !
 ! A52   A(27,26,40)           121.6615                                         !
 ! A53   A(25,28,29)           116.4391                                         !
 ! A54   A(25,28,30)           110.2697                                         !
 ! A55   A(25,28,33)           103.663                                          !
 ! A56   A(29,28,30)           112.0213                                         !
 ! A57   A(29,28,33)           105.9484                                         !
 ! A58   A(30,28,33)           107.7094                                         !
 ! A59   A(28,29,34)           109.29                                           !
 ! A60   A(28,29,35)           114.036                                          !
 ! A61   A(28,29,36)           112.1401                                         !
 ! A62   A(34,29,35)           105.7704                                         !
 ! A63   A(34,29,36)           107.0585                                         !
 ! A64   A(35,29,36)           108.1346                                         !
 ! A65   A(28,30,37)           111.735                                          !
 ! A66   A(28,30,38)           111.4264                                         !
 ! A67   A(28,30,39)           110.5001                                         !
 ! A68   A(37,30,38)           107.7884                                         !
 ! A69   A(37,30,39)           107.4136                                         !
 ! A70   A(38,30,39)           107.7938                                         !
 ! A71   A(26,40,41)           121.6387                                         !
 ! A72   A(26,40,53)           119.8774                                         !
 ! A73   A(41,40,53)           118.4113                                         !
 ! A74   A(40,41,42)           109.5529                                         !
 ! A75   A(40,41,44)           111.6033                                         !
 ! A76   A(40,41,54)           106.362                                          !
 ! A77   A(42,41,44)           114.5631                                         !
 ! A78   A(42,41,54)           105.5226                                         !
 ! A79   A(44,41,54)           108.7369                                         !
 ! A80   A(41,42,43)           124.9185                                         !
 ! A81   A(41,42,51)           112.6506                                         !
 ! A82   A(43,42,51)           122.3712                                         !
 ! A83   A(41,44,45)           114.3116                                         !
 ! A84   A(41,44,55)           109.3621                                         !
 ! A85   A(41,44,56)           107.7208                                         !
 ! A86   A(45,44,55)           109.5562                                         !
 ! A87   A(45,44,56)           109.3157                                         !
 ! A88   A(55,44,56)           106.2529                                         !
 ! A89   A(44,45,46)           114.9511                                         !
 ! A90   A(44,45,57)           110.4964                                         !
 ! A91   A(44,45,58)           107.4269                                         !
 ! A92   A(46,45,57)           109.2503                                         !
 ! A93   A(46,45,58)           108.5399                                         !
 ! A94   A(57,45,58)           105.7414                                         !
 ! A95   A(45,46,47)           110.9004                                         !
 ! A96   A(45,46,59)           109.6583                                         !
 ! A97   A(45,46,60)           109.3206                                         !
 ! A98   A(47,46,59)           112.2776                                         !
 ! A99   A(47,46,60)           107.7519                                         !
 ! A100  A(59,46,60)           106.7947                                         !
 ! A101  A(46,47,48)           121.4487                                         !
 ! A102  A(46,47,61)           113.9377                                         !
 ! A103  A(48,47,61)           111.9729                                         !
 ! A104  A(47,48,49)           128.4735                                         !
 ! A105  A(47,48,50)           110.5686                                         !
 ! A106  A(49,48,50)           120.9555                                         !
 ! A107  A(48,49,62)           112.423                                          !
 ! A108  A(48,50,63)           110.8727                                         !
 ! A109  A(48,50,64)           114.1919                                         !
 ! A110  A(63,50,64)           112.5225                                         !
 ! A111  A(42,51,52)           108.7137                                         !
 ! D1    D(13,1,2,3)           -69.8781                                         !
 ! D2    D(13,1,2,5)            59.3973                                         !
 ! D3    D(13,1,2,14)          178.1927                                         !
 ! D4    D(22,1,2,3)            48.8023                                         !
 ! D5    D(22,1,2,5)           178.0778                                         !
 ! D6    D(22,1,2,14)          -63.1268                                         !
 ! D7    D(23,1,2,3)           171.2722                                         !
 ! D8    D(23,1,2,5)           -59.4523                                         !
 ! D9    D(23,1,2,14)           59.3431                                         !
 ! D10   D(1,2,3,4)            -79.698                                          !
 ! D11   D(1,2,3,24)            92.5745                                         !
 ! D12   D(5,2,3,4)            158.8995                                         !
 ! D13   D(5,2,3,24)           -28.828                                          !
 ! D14   D(14,2,3,4)            31.4631                                         !
 ! D15   D(14,2,3,24)         -156.2643                                         !
 ! D16   D(1,2,5,6)             60.8401                                         !
 ! D17   D(1,2,5,15)          -177.5129                                         !
 ! D18   D(1,2,5,16)           -60.7708                                         !
 ! D19   D(3,2,5,6)            179.3231                                         !
 ! D20   D(3,2,5,15)           -59.0298                                         !
 ! D21   D(3,2,5,16)            57.7123                                         !
 ! D22   D(14,2,5,6)           -54.9326                                         !
 ! D23   D(14,2,5,15)           66.7144                                         !
 ! D24   D(14,2,5,16)         -176.5435                                         !
 ! D25   D(2,3,24,25)         -136.8502                                         !
 ! D26   D(2,3,24,31)            3.4895                                         !
 ! D27   D(4,3,24,25)           34.8421                                         !
 ! D28   D(4,3,24,31)          175.1818                                         !
 ! D29   D(2,5,6,7)            -96.168                                          !
 ! D30   D(2,5,6,8)             80.7663                                         !
 ! D31   D(15,5,6,7)           144.4897                                         !
 ! D32   D(15,5,6,8)           -38.576                                          !
 ! D33   D(16,5,6,7)            25.6444                                         !
 ! D34   D(16,5,6,8)          -157.4213                                         !
 ! D35   D(5,6,7,9)            177.1698                                         !
 ! D36   D(5,6,7,17)            -3.7432                                         !
 ! D37   D(8,6,7,9)              0.1702                                         !
 ! D38   D(8,6,7,17)           179.2572                                         !
 ! D39   D(5,6,8,10)          -177.3344                                         !
 ! D40   D(5,6,8,18)             3.497                                          !
 ! D41   D(7,6,8,10)            -0.3229                                         !
 ! D42   D(7,6,8,18)          -179.4914                                         !
 ! D43   D(6,7,9,11)             0.1096                                         !
 ! D44   D(6,7,9,19)           179.236                                          !
 ! D45   D(17,7,9,11)         -178.9786                                         !
 ! D46   D(17,7,9,19)            0.1477                                         !
 ! D47   D(6,8,10,11)            0.1933                                         !
 ! D48   D(6,8,10,20)         -179.2305                                         !
 ! D49   D(18,8,10,11)         179.3667                                         !
 ! D50   D(18,8,10,20)          -0.0571                                         !
 ! D51   D(7,9,11,10)           -0.243                                          !
 ! D52   D(7,9,11,12)          179.7976                                         !
 ! D53   D(19,9,11,10)        -179.3706                                         !
 ! D54   D(19,9,11,12)           0.6699                                         !
 ! D55   D(8,10,11,9)            0.0935                                         !
 ! D56   D(8,10,11,12)        -179.9443                                         !
 ! D57   D(20,10,11,9)         179.5329                                         !
 ! D58   D(20,10,11,12)         -0.5049                                         !
 ! D59   D(9,11,12,21)          -2.2312                                         !
 ! D60   D(10,11,12,21)        177.8082                                         !
 ! D61   D(3,24,25,26)          80.3731                                         !
 ! D62   D(3,24,25,28)        -147.3135                                         !
 ! D63   D(3,24,25,32)         -29.0843                                         !
 ! D64   D(31,24,25,26)        -60.6863                                         !
 ! D65   D(31,24,25,28)         71.6271                                         !
 ! D66   D(31,24,25,32)       -170.1437                                         !
 ! D67   D(24,25,26,27)        -73.8845                                         !
 ! D68   D(24,25,26,40)         97.2688                                         !
 ! D69   D(28,25,26,27)        158.7406                                         !
 ! D70   D(28,25,26,40)        -30.1061                                         !
 ! D71   D(32,25,26,27)         36.2204                                         !
 ! D72   D(32,25,26,40)       -152.6263                                         !
 ! D73   D(24,25,28,29)        -48.5857                                         !
 ! D74   D(24,25,28,30)       -177.6383                                         !
 ! D75   D(24,25,28,33)         67.3066                                         !
 ! D76   D(26,25,28,29)         73.3877                                         !
 ! D77   D(26,25,28,30)        -55.6649                                         !
 ! D78   D(26,25,28,33)       -170.7199                                         !
 ! D79   D(32,25,28,29)       -165.5413                                         !
 ! D80   D(32,25,28,30)         65.4061                                         !
 ! D81   D(32,25,28,33)        -49.649                                          !
 ! D82   D(25,26,40,41)       -169.5882                                         !
 ! D83   D(25,26,40,53)          7.2635                                         !
 ! D84   D(27,26,40,41)          1.3258                                         !
 ! D85   D(27,26,40,53)        178.1776                                         !
 ! D86   D(25,28,29,34)        168.5594                                         !
 ! D87   D(25,28,29,35)        -73.3167                                         !
 ! D88   D(25,28,29,36)         50.0083                                         !
 ! D89   D(30,28,29,34)        -63.2359                                         !
 ! D90   D(30,28,29,35)         54.8881                                         !
 ! D91   D(30,28,29,36)        178.2131                                         !
 ! D92   D(33,28,29,34)         53.9478                                         !
 ! D93   D(33,28,29,35)        172.0718                                         !
 ! D94   D(33,28,29,36)        -64.6032                                         !
 ! D95   D(25,28,30,37)         69.6374                                         !
 ! D96   D(25,28,30,38)        -51.0093                                         !
 ! D97   D(25,28,30,39)       -170.8242                                         !
 ! D98   D(29,28,30,37)        -61.7664                                         !
 ! D99   D(29,28,30,38)        177.5868                                         !
 ! D100  D(29,28,30,39)         57.7719                                         !
 ! D101  D(33,28,30,37)       -177.8889                                         !
 ! D102  D(33,28,30,38)         61.4643                                         !
 ! D103  D(33,28,30,39)        -58.3506                                         !
 ! D104  D(26,40,41,42)         78.2348                                         !
 ! D105  D(26,40,41,44)       -153.8058                                         !
 ! D106  D(26,40,41,54)        -35.3594                                         !
 ! D107  D(53,40,41,42)        -98.6616                                         !
 ! D108  D(53,40,41,44)         29.2978                                         !
 ! D109  D(53,40,41,54)        147.7442                                         !
 ! D110  D(40,41,42,43)        -21.8516                                         !
 ! D111  D(40,41,42,51)        160.9102                                         !
 ! D112  D(44,41,42,43)       -148.1444                                         !
 ! D113  D(44,41,42,51)         34.6174                                         !
 ! D114  D(54,41,42,43)         92.2845                                         !
 ! D115  D(54,41,42,51)        -84.9536                                         !
 ! D116  D(40,41,44,45)         59.1177                                         !
 ! D117  D(40,41,44,55)        -64.1174                                         !
 ! D118  D(40,41,44,56)       -179.1873                                         !
 ! D119  D(42,41,44,45)       -175.6586                                         !
 ! D120  D(42,41,44,55)         61.1063                                         !
 ! D121  D(42,41,44,56)        -53.9636                                         !
 ! D122  D(54,41,44,45)        -57.9                                            !
 ! D123  D(54,41,44,55)        178.8649                                         !
 ! D124  D(54,41,44,56)         63.795                                          !
 ! D125  D(41,42,51,52)        176.355                                          !
 ! D126  D(43,42,51,52)         -0.9638                                         !
 ! D127  D(41,44,45,46)         58.0684                                         !
 ! D128  D(41,44,45,57)        -66.1351                                         !
 ! D129  D(41,44,45,58)        178.9732                                         !
 ! D130  D(55,44,45,46)       -178.8013                                         !
 ! D131  D(55,44,45,57)         56.9951                                         !
 ! D132  D(55,44,45,58)        -57.8965                                         !
 ! D133  D(56,44,45,46)        -62.7463                                         !
 ! D134  D(56,44,45,57)        173.0501                                         !
 ! D135  D(56,44,45,58)         58.1585                                         !
 ! D136  D(44,45,46,47)        -72.8336                                         !
 ! D137  D(44,45,46,59)        162.6025                                         !
 ! D138  D(44,45,46,60)         45.8343                                         !
 ! D139  D(57,45,46,47)         52.0246                                         !
 ! D140  D(57,45,46,59)        -72.5393                                         !
 ! D141  D(57,45,46,60)        170.6924                                         !
 ! D142  D(58,45,46,47)        166.8725                                         !
 ! D143  D(58,45,46,59)         42.3086                                         !
 ! D144  D(58,45,46,60)        -74.4597                                         !
 ! D145  D(45,46,47,48)        162.6571                                         !
 ! D146  D(45,46,47,61)        -58.6344                                         !
 ! D147  D(59,46,47,48)        -74.2777                                         !
 ! D148  D(59,46,47,61)         64.4307                                         !
 ! D149  D(60,46,47,48)         43.0458                                         !
 ! D150  D(60,46,47,61)       -178.2457                                         !
 ! D151  D(46,47,48,49)         -3.1362                                         !
 ! D152  D(46,47,48,50)        177.4265                                         !
 ! D153  D(61,47,48,49)       -142.5664                                         !
 ! D154  D(61,47,48,50)         37.9963                                         !
 ! D155  D(47,48,49,62)         11.3754                                         !
 ! D156  D(50,48,49,62)       -169.2389                                         !
 ! D157  D(47,48,50,63)        176.9412                                         !
 ! D158  D(47,48,50,64)         48.5722                                         !
 ! D159  D(49,48,50,63)         -2.5451                                         !
 ! D160  D(49,48,50,64)       -130.9141                                         !
 --------------------------------------------------------------------------------
 Symmetry turned off by external request.
 Stoichiometry    C20H33N6O5(1+)
 Framework group  C1[X(C20H33N6O5)]
 Deg. of freedom   186
 Full point group                 C1      NOp   1
                          Input orientation:                          
 ---------------------------------------------------------------------
 Center     Atomic      Atomic             Coordinates (Angstroms)
 Number     Number       Type             X           Y           Z
 ---------------------------------------------------------------------
      1          7           0       33.407636  -31.045547   40.390076
      2          6           0       31.967612  -30.588162   40.598631
      3          6           0       31.515073  -31.422507   41.814864
      4          8           0       31.184154  -32.578519   41.622758
      5          6           0       31.937464  -29.054011   40.641717
      6          6           0       32.442202  -28.462715   39.340526
      7          6           0       33.775851  -28.052851   39.204064
      8          6           0       31.597598  -28.372245   38.221541
      9          6           0       34.256192  -27.562546   37.988032
     10          6           0       32.062112  -27.883758   37.008281
     11          6           0       33.398832  -27.473686   36.884502
     12          8           0       33.785681  -27.005862   35.672026
     13          1           0       34.019336  -30.705288   41.160505
     14          1           0       31.410153  -30.958368   39.736046
     15          1           0       30.901640  -28.754415   40.836832
     16          1           0       32.550259  -28.689793   41.474949
     17          1           0       34.443698  -28.103263   40.061652
     18          1           0       30.556618  -28.676670   38.305824
     19          1           0       35.290294  -27.236661   37.900778
     20          1           0       31.409905  -27.800811   36.145371
     21          1           0       34.711851  -26.717619   35.698896
     22          1           0       33.461096  -32.071167   40.389314
     23          1           0       33.768825  -30.658789   39.508430
     24          7           0       31.673112  -30.850552   43.051322
     25          6           0       32.201825  -31.701293   44.139066
     26          6           0       33.720400  -31.679577   43.850237
     27          8           0       34.160294  -32.331990   42.894904
     28          6           0       31.641966  -31.341063   45.530466
     29          6           0       31.672273  -29.851819   45.916629
     30          6           0       32.283230  -32.229286   46.608817
     31          1           0       32.025370  -29.900566   43.059833
     32          1           0       31.884828  -32.718107   43.901393
     33          1           0       30.580980  -31.613153   45.461385
     34          1           0       31.072761  -29.700192   46.819483
     35          1           0       32.674699  -29.472155   46.156641
     36          1           0       31.244112  -29.214084   45.135760
     37          1           0       33.342281  -31.985394   46.759070
     38          1           0       32.218430  -33.290701   46.343779
     39          1           0       31.776412  -32.092836   47.568807
     40          7           0       34.496952  -30.810759   44.532845
     41          6           0       35.881591  -30.574857   44.164402
     42          6           0       35.937201  -29.644465   42.953146
     43          8           0       35.019787  -29.472656   42.156869
     44          6           0       36.717022  -30.106765   45.369808
     45          6           0       36.741827  -31.098702   46.547563
     46          6           0       37.274455  -32.497487   46.205188
     47          7           0       36.307262  -33.241458   45.409426
     48          6           0       36.683174  -34.382063   44.673718
     49          7           0       37.849350  -34.892067   44.535404
     50          7           0       35.573359  -34.947761   44.045332
     51          8           0       37.127233  -29.064647   42.805928
     52          1           0       37.117103  -28.531677   41.987173
     53          1           0       34.103125  -30.272262   45.290128
     54          1           0       36.276226  -31.536288   43.814339
     55          1           0       36.342858  -29.133501   45.716454
     56          1           0       37.738993  -29.934889   45.019965
     57          1           0       35.741735  -31.191034   46.994103
     58          1           0       37.377203  -30.665359   47.328334
     59          1           0       37.548164  -33.026491   47.131190
     60          1           0       38.191997  -32.401256   45.612167
     61          1           0       35.406944  -33.361242   45.861956
     62          1           0       38.529014  -34.489646   45.180729
     63          1           0       35.846323  -35.739640   43.474095
     64          1           0       34.997571  -34.281504   43.537629
 ---------------------------------------------------------------------
 Rotational constants (GHZ):           0.2185385           0.0780824           0.0699831
 Standard basis: 6-31G(d) (6D, 7F)
   531 basis functions,  1000 primitive gaussians,   531 cartesian basis functions
   117 alpha electrons      117 beta electrons
       nuclear repulsion energy      3366.9415259580 Hartrees.
 NAtoms=   64 NActive=   64 NUniq=   64 SFac= 1.00D+00 NAtFMM=   60 NAOKFM=T Big=T
 Integral buffers will be    131072 words long.
 Raffenetti 2 integral format.
 Two-electron integral symmetry is turned off.
 Nuclear repulsion after empirical dispersion term =     3366.8544514653 Hartrees.
 One-electron integrals computed using PRISM.
 NBasis=   531 RedAO= T EigKep=  4.29D-04  NBF=   531
 NBsUse=   531 1.00D-06 EigRej= -1.00D+00 NBFU=   531
 Initial guess from the checkpoint file:  "conf-948.chk"
 B after Tr=     0.000000    0.000000    0.000000
         Rot=    1.000000    0.000000    0.000000    0.000000 Ang=   0.00 deg.
 Requested convergence on RMS density matrix=1.00D-08 within 128 cycles.
 Requested convergence on MAX density matrix=1.00D-06.
 Requested convergence on             energy=1.00D-06.
 No special actions if energy rises.
 SCF Done:  E(RB3LYP) =  -1486.53790065     A.U. after    2 cycles
            NFock=  2  Conv=0.87D-08     -V/T= 2.0094

 **********************************************************************

            Population analysis using the SCF Density.

 **********************************************************************

 Alpha  occ. eigenvalues --  -19.34214 -19.29244 -19.27880 -19.25422 -19.24838
 Alpha  occ. eigenvalues --  -14.58796 -14.49824 -14.49466 -14.43027 -14.40122
 Alpha  occ. eigenvalues --  -14.35486 -10.46975 -10.42704 -10.42156 -10.39546
 Alpha  occ. eigenvalues --  -10.36579 -10.35843 -10.35648 -10.34852 -10.33562
 Alpha  occ. eigenvalues --  -10.31505 -10.31351 -10.31145 -10.31126 -10.30785
 Alpha  occ. eigenvalues --  -10.30313 -10.30038 -10.29717 -10.29695 -10.29233
 Alpha  occ. eigenvalues --  -10.28695  -1.25474  -1.18146  -1.16829  -1.16185
 Alpha  occ. eigenvalues --   -1.15995  -1.13266  -1.06394  -1.05941  -1.04627
 Alpha  occ. eigenvalues --   -0.97095  -0.96259  -0.93475  -0.91998  -0.91138
 Alpha  occ. eigenvalues --   -0.90691  -0.86233  -0.85910  -0.85657  -0.82840
 Alpha  occ. eigenvalues --   -0.80198  -0.79125  -0.78614  -0.75880  -0.73411
 Alpha  occ. eigenvalues --   -0.73291  -0.72806  -0.71937  -0.71405  -0.70903
 Alpha  occ. eigenvalues --   -0.69844  -0.69698  -0.65974  -0.65902  -0.65385
 Alpha  occ. eigenvalues --   -0.64449  -0.63622  -0.62980  -0.62234  -0.61324
 Alpha  occ. eigenvalues --   -0.60081  -0.59616  -0.59101  -0.58395  -0.58203
 Alpha  occ. eigenvalues --   -0.57692  -0.57049  -0.55973  -0.55640  -0.55316
 Alpha  occ. eigenvalues --   -0.54840  -0.54231  -0.53841  -0.53772  -0.53317
 Alpha  occ. eigenvalues --   -0.52832  -0.52628  -0.52147  -0.51543  -0.51119
 Alpha  occ. eigenvalues --   -0.50839  -0.50321  -0.49949  -0.49459  -0.48783
 Alpha  occ. eigenvalues --   -0.48403  -0.47719  -0.47338  -0.46753  -0.45904
 Alpha  occ. eigenvalues --   -0.45584  -0.45432  -0.44976  -0.44664  -0.44522
 Alpha  occ. eigenvalues --   -0.44056  -0.43625  -0.42541  -0.41104  -0.39366
 Alpha  occ. eigenvalues --   -0.38979  -0.36954  -0.36409  -0.33347  -0.32806
 Alpha  occ. eigenvalues --   -0.32419  -0.30251
 Alpha virt. eigenvalues --   -0.15102  -0.13888  -0.11725  -0.10519  -0.10082
 Alpha virt. eigenvalues --   -0.07031  -0.06155  -0.05913  -0.04495  -0.02804
 Alpha virt. eigenvalues --   -0.02467  -0.02437  -0.01438  -0.01320  -0.00962
 Alpha virt. eigenvalues --   -0.00459   0.00185   0.00945   0.01514   0.02357
 Alpha virt. eigenvalues --    0.02625   0.03167   0.03497   0.03783   0.04535
 Alpha virt. eigenvalues --    0.04668   0.04814   0.05252   0.05498   0.06183
 Alpha virt. eigenvalues --    0.06280   0.06896   0.07137   0.07437   0.07880
 Alpha virt. eigenvalues --    0.08235   0.08656   0.08933   0.09191   0.09402
 Alpha virt. eigenvalues --    0.09841   0.10110   0.10556   0.10817   0.11825
 Alpha virt. eigenvalues --    0.12588   0.12788   0.13885   0.14501   0.14850
 Alpha virt. eigenvalues --    0.15164   0.15502   0.16317   0.16969   0.17210
 Alpha virt. eigenvalues --    0.18981   0.19776   0.20474   0.21939   0.22211
 Alpha virt. eigenvalues --    0.22724   0.23897   0.24683   0.25169   0.26592
 Alpha virt. eigenvalues --    0.27325   0.28323   0.30500   0.34609   0.35131
 Alpha virt. eigenvalues --    0.36183   0.37241   0.38517   0.39011   0.39406
 Alpha virt. eigenvalues --    0.39989   0.40212   0.40907   0.41521   0.41905
 Alpha virt. eigenvalues --    0.42377   0.42645   0.42921   0.43293   0.45030
 Alpha virt. eigenvalues --    0.45777   0.46028   0.46334   0.47276   0.47692
 Alpha virt. eigenvalues --    0.48076   0.48243   0.48690   0.49539   0.50120
 Alpha virt. eigenvalues --    0.50797   0.51087   0.51397   0.51607   0.52258
 Alpha virt. eigenvalues --    0.52916   0.53188   0.53959   0.54189   0.54435
 Alpha virt. eigenvalues --    0.54735   0.55271   0.55758   0.56631   0.57065
 Alpha virt. eigenvalues --    0.57732   0.58294   0.58727   0.59080   0.59203
 Alpha virt. eigenvalues --    0.60599   0.61867   0.62114   0.63417   0.63676
 Alpha virt. eigenvalues --    0.63736   0.64734   0.65226   0.65694   0.66309
 Alpha virt. eigenvalues --    0.66644   0.66994   0.68462   0.69125   0.69730
 Alpha virt. eigenvalues --    0.70445   0.70833   0.71523   0.72223   0.72641
 Alpha virt. eigenvalues --    0.73257   0.73457   0.73846   0.74200   0.74288
 Alpha virt. eigenvalues --    0.75035   0.75382   0.76243   0.76409   0.76566
 Alpha virt. eigenvalues --    0.77354   0.77706   0.78129   0.78541   0.79267
 Alpha virt. eigenvalues --    0.79721   0.80016   0.80098   0.81311   0.81531
 Alpha virt. eigenvalues --    0.82031   0.82473   0.83172   0.83694   0.84181
 Alpha virt. eigenvalues --    0.84489   0.84633   0.85194   0.86106   0.86599
 Alpha virt. eigenvalues --    0.86730   0.87424   0.87805   0.88335   0.88740
 Alpha virt. eigenvalues --    0.89226   0.90100   0.91143   0.91767   0.91827
 Alpha virt. eigenvalues --    0.92044   0.92537   0.94141   0.94927   0.95058
 Alpha virt. eigenvalues --    0.95993   0.96376   0.96668   0.97646   0.98663
 Alpha virt. eigenvalues --    1.00303   1.01799   1.02966   1.04003   1.04316
 Alpha virt. eigenvalues --    1.05153   1.06216   1.06850   1.07929   1.09031
 Alpha virt. eigenvalues --    1.10761   1.11134   1.12120   1.13615   1.14222
 Alpha virt. eigenvalues --    1.15127   1.15885   1.16847   1.17335   1.19049
 Alpha virt. eigenvalues --    1.20255   1.20998   1.22098   1.22672   1.25064
 Alpha virt. eigenvalues --    1.25766   1.26543   1.27243   1.28018   1.29245
 Alpha virt. eigenvalues --    1.30420   1.31013   1.32456   1.33512   1.33626
 Alpha virt. eigenvalues --    1.34003   1.34434   1.35393   1.36629   1.38058
 Alpha virt. eigenvalues --    1.38911   1.39143   1.40027   1.40797   1.42076
 Alpha virt. eigenvalues --    1.42844   1.44256   1.47644   1.48539   1.49096
 Alpha virt. eigenvalues --    1.50177   1.52400   1.54139   1.56364   1.56683
 Alpha virt. eigenvalues --    1.56783   1.57826   1.59476   1.60417   1.60984
 Alpha virt. eigenvalues --    1.61789   1.62666   1.63063   1.63494   1.63921
 Alpha virt. eigenvalues --    1.63951   1.65536   1.66621   1.67663   1.68253
 Alpha virt. eigenvalues --    1.68646   1.69824   1.70004   1.70575   1.71570
 Alpha virt. eigenvalues --    1.72932   1.73699   1.74874   1.75073   1.75795
 Alpha virt. eigenvalues --    1.76999   1.77224   1.77466   1.78199   1.78263
 Alpha virt. eigenvalues --    1.79306   1.80618   1.81040   1.82414   1.83032
 Alpha virt. eigenvalues --    1.83165   1.83989   1.84408   1.85315   1.85539
 Alpha virt. eigenvalues --    1.86036   1.86486   1.86783   1.88826   1.89217
 Alpha virt. eigenvalues --    1.90487   1.90741   1.91487   1.92222   1.92823
 Alpha virt. eigenvalues --    1.93512   1.94628   1.95700   1.96036   1.96471
 Alpha virt. eigenvalues --    1.97227   1.98188   1.98509   2.00185   2.00877
 Alpha virt. eigenvalues --    2.01776   2.02314   2.02649   2.03352   2.03586
 Alpha virt. eigenvalues --    2.07064   2.07518   2.09821   2.11413   2.14117
 Alpha virt. eigenvalues --    2.14612   2.15105   2.15310   2.15478   2.16886
 Alpha virt. eigenvalues --    2.18324   2.18983   2.19830   2.20182   2.21617
 Alpha virt. eigenvalues --    2.22249   2.23089   2.23432   2.24129   2.24828
 Alpha virt. eigenvalues --    2.26052   2.27169   2.27983   2.29157   2.30282
 Alpha virt. eigenvalues --    2.30759   2.32232   2.33237   2.33652   2.34157
 Alpha virt. eigenvalues --    2.35380   2.38081   2.39020   2.40059   2.40706
 Alpha virt. eigenvalues --    2.41742   2.43696   2.45498   2.47385   2.47618
 Alpha virt. eigenvalues --    2.48136   2.49431   2.50657   2.51196   2.52482
 Alpha virt. eigenvalues --    2.53592   2.54160   2.54653   2.55291   2.55842
 Alpha virt. eigenvalues --    2.57519   2.58389   2.59679   2.60773   2.61827
 Alpha virt. eigenvalues --    2.63773   2.64767   2.65837   2.66374   2.67791
 Alpha virt. eigenvalues --    2.68444   2.70492   2.73732   2.77889   2.78618
 Alpha virt. eigenvalues --    2.83737   2.85172   2.86304   2.89484   2.91397
 Alpha virt. eigenvalues --    2.93794   2.94744   2.97732   2.98653   2.99365
 Alpha virt. eigenvalues --    3.01521   3.05262   3.30205   3.71181   3.75330
 Alpha virt. eigenvalues --    3.79191   3.84356   3.86136   3.90730   3.95400
 Alpha virt. eigenvalues --    3.99169   4.00181   4.01400   4.02099   4.05481
 Alpha virt. eigenvalues --    4.08665   4.09684   4.12717   4.18251   4.18697
 Alpha virt. eigenvalues --    4.20055   4.22677   4.23814   4.24865   4.28457
 Alpha virt. eigenvalues --    4.29777   4.33805   4.37948   4.43378   4.47096
 Alpha virt. eigenvalues --    4.52420   4.55667   4.60531   4.64919
          Condensed to atoms (all electrons):
 Mulliken charges:
               1
     1  N   -0.768896
     2  C   -0.107244
     3  C    0.605649
     4  O   -0.461020
     5  C   -0.393624
     6  C    0.121516
     7  C   -0.230549
     8  C   -0.185242
     9  C   -0.187133
    10  C   -0.151175
    11  C    0.361323
    12  O   -0.618670
    13  H    0.458965
    14  H    0.226237
    15  H    0.203402
    16  H    0.177840
    17  H    0.143967
    18  H    0.151002
    19  H    0.140810
    20  H    0.175653
    21  H    0.421298
    22  H    0.426916
    23  H    0.405769
    24  N   -0.599853
    25  C   -0.062767
    26  C    0.606706
    27  O   -0.570768
    28  C   -0.102133
    29  C   -0.486689
    30  C   -0.473970
    31  H    0.341869
    32  H    0.223333
    33  H    0.178604
    34  H    0.190752
    35  H    0.138542
    36  H    0.160192
    37  H    0.138077
    38  H    0.176433
    39  H    0.181305
    40  N   -0.599895
    41  C   -0.055935
    42  C    0.626122
    43  O   -0.519241
    44  C   -0.308555
    45  C   -0.288983
    46  C   -0.137494
    47  N   -0.624438
    48  C    0.564866
    49  N   -0.629147
    50  N   -0.774587
    51  O   -0.523942
    52  H    0.432009
    53  H    0.352719
    54  H    0.253647
    55  H    0.153430
    56  H    0.191635
    57  H    0.140986
    58  H    0.173898
    59  H    0.166206
    60  H    0.161893
    61  H    0.325186
    62  H    0.281592
    63  H    0.339178
    64  H    0.342422
 Sum of Mulliken charges =   1.00000
 Mulliken charges with hydrogens summed into heavy atoms:
               1
     1  N    0.522753
     2  C    0.118993
     3  C    0.605649
     4  O   -0.461020
     5  C   -0.012382
     6  C    0.121516
     7  C   -0.086582
     8  C   -0.034240
     9  C   -0.046322
    10  C    0.024478
    11  C    0.361323
    12  O   -0.197372
    24  N   -0.257985
    25  C    0.160566
    26  C    0.606706
    27  O   -0.570768
    28  C    0.076471
    29  C    0.002797
    30  C    0.021847
    40  N   -0.247176
    41  C    0.197711
    42  C    0.626122
    43  O   -0.519241
    44  C    0.036509
    45  C    0.025901
    46  C    0.190605
    47  N   -0.299252
    48  C    0.564866
    49  N   -0.347555
    50  N   -0.092987
    51  O   -0.091933
 Electronic spatial extent (au):  <R**2>=        3282742.6533
 Charge=              1.0000 electrons
 Dipole moment (field-independent basis, Debye):
    X=            163.3910    Y=           -139.9839    Z=            202.8722  Tot=            295.7182
 Quadrupole moment (field-independent basis, Debye-Ang):
   XX=           5395.6799   YY=           3882.5312   ZZ=           8452.6706
   XY=          -4746.9752   XZ=           6899.1185   YZ=          -5922.9162
 Traceless Quadrupole moment (field-independent basis, Debye-Ang):
   XX=           -514.6140   YY=          -2027.7627   ZZ=           2542.3767
   XY=          -4746.9752   XZ=           6899.1185   YZ=          -5922.9162
 Octapole moment (field-independent basis, Debye-Ang**2):
  XXX=         172486.0498  YYY=        -100659.4534  ZZZ=         347092.1984  XYY=         131142.0691
  XXY=        -155891.2555  XXZ=         227717.3594  XZZ=         287409.5218  YZZ=        -246992.7552
  YYZ=         164494.5681  XYZ=        -200805.6687
 Hexadecapole moment (field-independent basis, Debye-Ang**3):
 XXXX=        5297785.0303 YYYY=        2334915.1457 ZZZZ=       14014115.7964 XXXY=       -4938834.6481
 XXXZ=        7272788.7777 YYYX=       -3379233.2806 YYYZ=       -4266337.7764 ZZZX=       11800439.4811
 ZZZY=      -10139818.7172 XXYY=        4268600.6084 XXZZ=        9477109.6371 YYZZ=        6854332.1112
 XXYZ=       -6591243.5766 YYXZ=        5554622.5342 ZZXY=       -8372401.6132
 N-N= 3.366854451465D+03 E-N=-1.016838366619D+04  KE= 1.472699686598D+03
 Unable to Open any file for archive entry.
 1\1\GINC-LAC-303\SP\RB3LYP\6-31G(d)\C20H33N6O5(1+)\KENGMITH\31-May-202
 2\0\\# B3LYP/6-31G* empiricaldispersion=gd3 guess=read geom=check nosy
 mm integral(ultrafinegrid)\\Candidate Structure: Conf:948 Charge calc 
 in gas phase\\1,1\N,0,33.4076359676,-31.0455466519,40.3900760696\C,0,3
 1.9676118737,-30.588162478,40.5986311294\C,0,31.5150728324,-31.4225066
 481,41.8148639557\O,0,31.1841544211,-32.5785188905,41.6227575537\C,0,3
 1.9374644392,-29.0540108742,40.6417173509\C,0,32.4422019251,-28.462715
 0431,39.3405257225\C,0,33.7758506319,-28.0528510118,39.2040637975\C,0,
 31.5975979753,-28.3722446647,38.221541199\C,0,34.256192086,-27.5625455
 005,37.9880318355\C,0,32.0621118005,-27.8837582226,37.0082813201\C,0,3
 3.3988324628,-27.47368571,36.8845015186\O,0,33.7856807053,-27.00586176
 79,35.6720255028\H,0,34.0193363037,-30.7052875415,41.160504908\H,0,31.
 4101527366,-30.9583681473,39.7360455622\H,0,30.9016402583,-28.75441496
 96,40.8368316615\H,0,32.5502592431,-28.6897926903,41.4749488659\H,0,34
 .4436976116,-28.1032631405,40.0616518437\H,0,30.5566184812,-28.6766696
 886,38.3058236109\H,0,35.2902942348,-27.2366611078,37.9007775736\H,0,3
 1.4099053469,-27.8008106472,36.1453708224\H,0,34.7118513203,-26.717618
 8417,35.6988958603\H,0,33.4610964546,-32.071166707,40.3893135744\H,0,3
 3.7688250288,-30.6587894382,39.5084295722\N,0,31.6731121544,-30.850551
 9389,43.0513220001\C,0,32.2018247974,-31.7012930225,44.1390655253\C,0,
 33.7204004175,-31.6795769717,43.8502372772\O,0,34.160293872,-32.331989
 9653,42.8949043966\C,0,31.641965755,-31.3410632468,45.5304656402\C,0,3
 1.6722727061,-29.8518187126,45.9166285777\C,0,32.2832300422,-32.229285
 5308,46.6088172812\H,0,32.0253698857,-29.900566248,43.0598332041\H,0,3
 1.8848278942,-32.7181069005,43.9013931799\H,0,30.5809796046,-31.613152
 5931,45.4613851663\H,0,31.0727608107,-29.700191598,46.8194833473\H,0,3
 2.6746993313,-29.4721547489,46.1566408139\H,0,31.244111809,-29.2140842
 19,45.1357598892\H,0,33.3422809144,-31.9853937033,46.7590703413\H,0,32
 .2184299243,-33.2907013244,46.3437787552\H,0,31.776411581,-32.09283573
 95,47.5688071089\N,0,34.4969522117,-30.8107588367,44.5328446501\C,0,35
 .8815909903,-30.5748568698,44.1644017978\C,0,35.9372012602,-29.6444653
 349,42.9531456565\O,0,35.0197873041,-29.4726560515,42.1568685109\C,0,3
 6.7170218024,-30.1067648362,45.3698080821\C,0,36.7418266306,-31.098701
 5908,46.5475633666\C,0,37.2744548632,-32.4974867032,46.2051882553\N,0,
 36.3072621579,-33.2414578909,45.4094256792\C,0,36.6831739693,-34.38206
 32245,44.6737184076\N,0,37.8493499371,-34.8920665053,44.5354036071\N,0
 ,35.573359478,-34.9477606182,44.0453324109\O,0,37.1272334169,-29.06464
 65618,42.8059276499\H,0,37.1171029918,-28.5316770053,41.9871727466\H,0
 ,34.1031252545,-30.2722616375,45.2901281619\H,0,36.2762257871,-31.5362
 877533,43.8143390208\H,0,36.3428578612,-29.133500514,45.7164540511\H,0
 ,37.7389929324,-29.9348887467,45.0199650044\H,0,35.7417347162,-31.1910
 335195,46.9941030015\H,0,37.3772028326,-30.665359498,47.3283339833\H,0
 ,37.5481636829,-33.0264913309,47.1311898251\H,0,38.1919966006,-32.4012
 56125,45.6121670263\H,0,35.4069436733,-33.361241839,45.8619563849\H,0,
 38.5290139236,-34.4896462617,45.1807287758\H,0,35.8463226107,-35.73964
 0401,43.4740950887\H,0,34.997570541,-34.2815044978,43.5376286709\\Vers
 ion=ES64L-G16RevC.01\HF=-1486.5379006\RMSD=8.682e-09\Dipole=-0.0656389
 ,2.9282167,-0.5198925\Quadrupole=-382.602896,-1507.591862,1890.194758,
 -3529.259681,5129.3255458,-4403.5430038\PG=C01 [X(C20H33N6O5)]\\@
 The archive entry for this job was punched.


 THOSE WHO ASPIRE NOT TO GUESS AND DIVINE,
 BUT TO DISCOVER AND KNOW, WHO PROPOSE NOT TO DEVISE 
 MIMIC AND FABULOUS WORLDS OF THEIR OWN, BUT TO 
 EXAMINE AND DISSECT THE NATURE OF THIS VERY WORLD 
 ITSELF, MUST GO TO THE FACTS THEMSELVES FOR EVERYTHING.

                               -- FRANCIS BACON, 1620
 Job cpu time:       0 days  0 hours  2 minutes 35.3 seconds.
 Elapsed time:       0 days  0 hours  0 minutes 39.5 seconds.
 File lengths (MBytes):  RWF=    264 Int=      0 D2E=      0 Chk=     40 Scr=     16
 Normal termination of Gaussian 16 at Tue May 31 11:50:50 2022.
