 Entering Gaussian System, Link 0=/opt/software/Gaussian/g16-AVX2-C.01/g16/g16
 Input=charge-conf-549.com
 Output=charge-conf-549.log
 Initial command:
 /opt/software/Gaussian/g16-AVX2-C.01/g16/l1.exe "/mnt/gs18/scratch/users/kengmith/Gau-7361.inp" -scrdir="/mnt/gs18/scratch/users/kengmith/"
 Entering Link 1 = /opt/software/Gaussian/g16-AVX2-C.01/g16/l1.exe PID=      7371.
  
 Copyright (c) 1988-2019, Gaussian, Inc.  All Rights Reserved.
  
 This is part of the Gaussian(R) 16 program.  It is based on
 the Gaussian(R) 09 system (copyright 2009, Gaussian, Inc.),
 the Gaussian(R) 03 system (copyright 2003, Gaussian, Inc.),
 the Gaussian(R) 98 system (copyright 1998, Gaussian, Inc.),
 the Gaussian(R) 94 system (copyright 1995, Gaussian, Inc.),
 the Gaussian 92(TM) system (copyright 1992, Gaussian, Inc.),
 the Gaussian 90(TM) system (copyright 1990, Gaussian, Inc.),
 the Gaussian 88(TM) system (copyright 1988, Gaussian, Inc.),
 the Gaussian 86(TM) system (copyright 1986, Carnegie Mellon
 University), and the Gaussian 82(TM) system (copyright 1983,
 Carnegie Mellon University). Gaussian is a federally registered
 trademark of Gaussian, Inc.
  
 This software contains proprietary and confidential information,
 including trade secrets, belonging to Gaussian, Inc.
  
 This software is provided under written license and may be
 used, copied, transmitted, or stored only in accord with that
 written license.
  
 The following legend is applicable only to US Government
 contracts under FAR:
  
                    RESTRICTED RIGHTS LEGEND
  
 Use, reproduction and disclosure by the US Government is
 subject to restrictions as set forth in subparagraphs (a)
 and (c) of the Commercial Computer Software - Restricted
 Rights clause in FAR 52.227-19.
  
 Gaussian, Inc.
 340 Quinnipiac St., Bldg. 40, Wallingford CT 06492
  
  
 ---------------------------------------------------------------
 Warning -- This program may not be used in any manner that
 competes with the business of Gaussian, Inc. or will provide
 assistance to any competitor of Gaussian, Inc.  The licensee
 of this program is prohibited from giving any competitor of
 Gaussian, Inc. access to this program.  By using this program,
 the user acknowledges that Gaussian, Inc. is engaged in the
 business of creating and licensing software in the field of
 computational chemistry and represents and warrants to the
 licensee that it is not a competitor of Gaussian, Inc. and that
 it will not use this program in any manner prohibited above.
 ---------------------------------------------------------------
  

 Cite this work as:
 Gaussian 16, Revision C.01,
 M. J. Frisch, G. W. Trucks, H. B. Schlegel, G. E. Scuseria, 
 M. A. Robb, J. R. Cheeseman, G. Scalmani, V. Barone, 
 G. A. Petersson, H. Nakatsuji, X. Li, M. Caricato, A. V. Marenich, 
 J. Bloino, B. G. Janesko, R. Gomperts, B. Mennucci, H. P. Hratchian, 
 J. V. Ortiz, A. F. Izmaylov, J. L. Sonnenberg, D. Williams-Young, 
 F. Ding, F. Lipparini, F. Egidi, J. Goings, B. Peng, A. Petrone, 
 T. Henderson, D. Ranasinghe, V. G. Zakrzewski, J. Gao, N. Rega, 
 G. Zheng, W. Liang, M. Hada, M. Ehara, K. Toyota, R. Fukuda, 
 J. Hasegawa, M. Ishida, T. Nakajima, Y. Honda, O. Kitao, H. Nakai, 
 T. Vreven, K. Throssell, J. A. Montgomery, Jr., J. E. Peralta, 
 F. Ogliaro, M. J. Bearpark, J. J. Heyd, E. N. Brothers, K. N. Kudin, 
 V. N. Staroverov, T. A. Keith, R. Kobayashi, J. Normand, 
 K. Raghavachari, A. P. Rendell, J. C. Burant, S. S. Iyengar, 
 J. Tomasi, M. Cossi, J. M. Millam, M. Klene, C. Adamo, R. Cammi, 
 J. W. Ochterski, R. L. Martin, K. Morokuma, O. Farkas, 
 J. B. Foresman, and D. J. Fox, Gaussian, Inc., Wallingford CT, 2019.
 
 ******************************************
 Gaussian 16:  ES64L-G16RevC.01  3-Jul-2019
                27-May-2022 
 ******************************************
 %mem=8gb
 %nproc=4
 Will use up to    4 processors via shared memory.
 %chk=conf-549.chk
 ----------------------------------------------------------------------
 # B3LYP/6-31G* empiricaldispersion=gd3 guess=read geom=check nosymm in
 tegral(ultrafinegrid)
 ----------------------------------------------------------------------
 1/29=2,38=1,172=1/1;
 2/12=2,15=1,40=1/2;
 3/5=1,6=6,7=1,11=2,14=-4,25=1,30=1,74=-5,75=-5,116=-2,124=31/1,2,3;
 4/5=1/1;
 5/5=2,38=6/2;
 6/7=2,8=2,9=2,10=2,28=1/1;
 99/5=1,9=1/99;
 ------------------------------------------------------
 Candidate Structure: Conf:549 Charge calc in gas phase
 ------------------------------------------------------
 Structure from the checkpoint file:  "conf-549.chk"
 Charge =  1 Multiplicity = 1
 Redundant internal coordinates found in file.  (old form).
 N,0,9.3825643889,33.8785862173,10.9808327041
 C,0,9.4213331039,33.7364556431,9.4981737783
 C,0,8.0952181803,33.314152404,8.8276311049
 O,0,7.5183441058,34.1307203807,8.1184313201
 C,0,10.6072076398,32.8677796891,9.044154263
 C,0,11.9937101974,33.5294627382,9.2003922342
 C,0,12.6078177876,33.5420265745,10.5899882348
 O,0,13.785094818,33.2440318572,10.7652657897
 O,0,11.8496223544,33.9069909883,11.6212282919
 H,0,10.7928341553,33.9932382896,11.389228974
 H,0,9.5725236988,34.7472362719,9.1105799628
 H,0,10.6009071763,31.8848616048,9.5248246913
 H,0,10.4676558383,32.6638820884,7.9777263869
 H,0,11.9456624654,34.5739807218,8.8602016817
 H,0,12.717782073,33.022798807,8.5590046974
 H,0,8.7695841994,34.6519525116,11.2419174382
 H,0,8.9610854445,33.0604386673,11.4216503651
 N,0,7.6474680025,32.0262975811,8.9230252051
 C,0,7.8244992594,30.9986769652,9.9314502235
 C,0,7.7580496356,29.6431760902,9.2050229449
 O,0,7.119768353,29.5480773183,8.1668377745
 C,0,6.654156553,31.0191763509,10.9682642522
 C,0,6.5469103409,32.2965172195,11.743962337
 C,0,6.1672376221,33.5315053176,11.2682373256
 C,0,6.8539570454,32.4739751711,13.1448794915
 C,0,6.6673951683,33.8516804592,13.4466896551
 C,0,7.2090534106,31.5932606722,14.1827518638
 N,0,6.2833542213,34.4772172795,12.2732570101
 C,0,6.8476010706,34.367752187,14.734313717
 C,0,7.3675667351,32.0985195496,15.4672111688
 C,0,7.1976903232,33.4725314391,15.7393085054
 H,0,6.8923342439,31.8163672721,8.2747332088
 H,0,8.7815972276,31.1300647021,10.4381380203
 H,0,6.7791938576,30.174383148,11.6558241909
 H,0,5.7355285491,30.8217109486,10.4032505245
 H,0,5.8503660166,33.8266693007,10.2777382694
 H,0,5.9051780067,35.4120944383,12.2180620143
 H,0,7.3471633329,30.5332364581,13.9890434713
 H,0,6.6953996161,35.4222577012,14.9466861673
 H,0,7.6199374766,31.4239890508,16.2808796702
 H,0,7.3242157306,33.8356492392,16.7549556452
 N,0,8.2912692165,28.5409215776,9.8142453438
 C,0,9.2573578691,28.4417171046,10.8938701238
 C,0,10.5693185338,29.1638698079,10.5661770244
 O,0,10.8604217245,29.4655934689,9.4180514656
 C,0,9.5452907339,26.9109844601,11.1218048053
 C,0,10.3056236911,26.2496204471,9.9716085359
 O,0,10.1962237308,26.6969178844,12.3587549906
 H,0,11.1537532938,26.7975222997,12.2321568742
 H,0,8.19079934,27.7245812633,9.2219218969
 H,0,8.8347755177,28.8156761784,11.8310046597
 H,0,8.5575261459,26.4481914319,11.2299886869
 H,0,9.8069298021,26.3675441326,9.0048387461
 H,0,10.402460922,25.1804450936,10.1783588676
 H,0,11.3096657608,26.6785856281,9.870363592
 N,0,11.5119797341,29.3208815398,11.5808063595
 C,0,11.33113701,29.8481685631,12.9523655971
 C,0,10.8180808199,28.8089942195,13.9566600938
 O,0,11.5498975951,28.0662716706,14.5648290204
 C,0,10.5608181589,31.1737928405,12.9843381785
 C,0,10.5825382855,31.9031006477,14.3377582998
 C,0,11.9632208267,32.0876383377,14.9764458267
 N,0,12.8929885516,32.7604229569,14.0644950217
 C,0,14.2149865715,32.829960416,14.2469572417
 N,0,14.7580083498,32.4134111439,15.4093298883
 N,0,14.9907877076,33.2859097441,13.2634079398
 O,0,9.4784201203,28.8636299557,14.1368279982
 H,0,9.2400173187,28.0937618285,14.6888103511
 H,0,12.3573534084,29.6962589107,11.1579648418
 H,0,12.3569040559,30.0234457437,13.2840510293
 H,0,9.5142452914,30.9973290043,12.7177659079
 H,0,10.9926795418,31.8091593786,12.2091780177
 H,0,10.0985058155,32.8787179996,14.2168614674
 H,0,9.9656239026,31.3588992525,15.0567098087
 H,0,11.843494342,32.6728161499,15.8988905031
 H,0,12.3877748724,31.1151313119,15.2558499869
 H,0,12.5099871226,33.2476732896,13.2471806786
 H,0,15.7595511054,32.3598999876,15.5221829546
 H,0,14.1967166549,32.3096989601,16.241021235
 H,0,14.6072487332,33.3606598544,12.3040798813
 H,0,15.9688730462,33.4799151206,13.4201935231
 Recover connectivity data from disk.
                           ----------------------------
                           !    Current Parameters    !
                           ! (Angstroms and Degrees)  !
 --------------------------                            --------------------------
 ! Name  Definition              Value                                          !
 --------------------------------------------------------------------------------
 ! R1    R(1,2)                  1.49                                           !
 ! R2    R(1,16)                 1.0208                                         !
 ! R3    R(1,17)                 1.0205                                         !
 ! R4    R(2,3)                  1.5448                                         !
 ! R5    R(2,5)                  1.5385                                         !
 ! R6    R(2,11)                 1.0931                                         !
 ! R7    R(3,4)                  1.2258                                         !
 ! R8    R(3,18)                 1.3668                                         !
 ! R9    R(5,6)                  1.5442                                         !
 ! R10   R(5,12)                 1.0942                                         !
 ! R11   R(5,13)                 1.0947                                         !
 ! R12   R(6,7)                  1.5193                                         !
 ! R13   R(6,14)                 1.0996                                         !
 ! R14   R(6,15)                 1.092                                          !
 ! R15   R(7,8)                  1.227                                          !
 ! R16   R(7,9)                  1.331                                          !
 ! R17   R(9,10)                 1.0854                                         !
 ! R18   R(18,19)                1.4506                                         !
 ! R19   R(18,32)                1.0171                                         !
 ! R20   R(19,20)                1.5393                                         !
 ! R21   R(19,22)                1.5637                                         !
 ! R22   R(19,33)                1.0909                                         !
 ! R23   R(20,21)                1.2224                                         !
 ! R24   R(20,42)                1.3676                                         !
 ! R25   R(22,23)                1.4983                                         !
 ! R26   R(22,34)                1.0964                                         !
 ! R27   R(22,35)                1.0964                                         !
 ! R28   R(23,24)                1.3768                                         !
 ! R29   R(23,25)                1.4451                                         !
 ! R30   R(24,28)                1.3849                                         !
 ! R31   R(24,36)                1.081                                          !
 ! R32   R(25,26)                1.4227                                         !
 ! R33   R(25,27)                1.4067                                         !
 ! R34   R(26,28)                1.3841                                         !
 ! R35   R(26,29)                1.3988                                         !
 ! R36   R(27,30)                1.3893                                         !
 ! R37   R(27,38)                1.0864                                         !
 ! R38   R(28,37)                1.01                                           !
 ! R39   R(29,31)                1.3907                                         !
 ! R40   R(29,39)                1.0864                                         !
 ! R41   R(30,31)                1.411                                          !
 ! R42   R(30,40)                1.0866                                         !
 ! R43   R(31,41)                1.086                                          !
 ! R44   R(42,43)                1.4522                                         !
 ! R45   R(42,50)                1.0136                                         !
 ! R46   R(43,44)                1.533                                          !
 ! R47   R(43,46)                1.5742                                         !
 ! R48   R(43,51)                1.0939                                         !
 ! R49   R(44,45)                1.2223                                         !
 ! R50   R(44,56)                1.3938                                         !
 ! R51   R(46,47)                1.5292                                         !
 ! R52   R(46,48)                1.4141                                         !
 ! R53   R(46,52)                1.0962                                         !
 ! R54   R(47,53)                1.0942                                         !
 ! R55   R(47,54)                1.0933                                         !
 ! R56   R(47,55)                1.0965                                         !
 ! R57   R(48,49)                0.9711                                         !
 ! R58   R(56,57)                1.4805                                         !
 ! R59   R(56,69)                1.017                                          !
 ! R60   R(57,58)                1.5335                                         !
 ! R61   R(57,60)                1.5335                                         !
 ! R62   R(57,70)                1.0922                                         !
 ! R63   R(58,59)                1.2071                                         !
 ! R64   R(58,67)                1.3528                                         !
 ! R65   R(60,61)                1.5376                                         !
 ! R66   R(60,71)                1.0943                                         !
 ! R67   R(60,72)                1.0914                                         !
 ! R68   R(61,62)                1.5324                                         !
 ! R69   R(61,73)                1.0958                                         !
 ! R70   R(61,74)                1.0925                                         !
 ! R71   R(62,63)                1.4659                                         !
 ! R72   R(62,75)                1.0989                                         !
 ! R73   R(62,76)                1.0973                                         !
 ! R74   R(63,64)                1.3363                                         !
 ! R75   R(63,77)                1.0257                                         !
 ! R76   R(64,65)                1.3489                                         !
 ! R77   R(64,66)                1.3331                                         !
 ! R78   R(65,78)                1.0093                                         !
 ! R79   R(65,79)                1.0087                                         !
 ! R80   R(66,80)                1.0359                                         !
 ! R81   R(66,81)                1.0094                                         !
 ! R82   R(67,68)                0.9768                                         !
 ! A1    A(2,1,16)             110.0238                                         !
 ! A2    A(2,1,17)             111.3541                                         !
 ! A3    A(16,1,17)            104.4129                                         !
 ! A4    A(1,2,3)              115.8276                                         !
 ! A5    A(1,2,5)              111.566                                          !
 ! A6    A(1,2,11)             105.56                                           !
 ! A7    A(3,2,5)              112.2855                                         !
 ! A8    A(3,2,11)             102.5686                                         !
 ! A9    A(5,2,11)             108.1113                                         !
 ! A10   A(2,3,4)              118.2299                                         !
 ! A11   A(2,3,18)             120.563                                          !
 ! A12   A(4,3,18)             120.9237                                         !
 ! A13   A(2,5,6)              114.852                                          !
 ! A14   A(2,5,12)             111.909                                          !
 ! A15   A(2,5,13)             107.1211                                         !
 ! A16   A(6,5,12)             110.2212                                         !
 ! A17   A(6,5,13)             107.028                                          !
 ! A18   A(12,5,13)            105.0645                                         !
 ! A19   A(5,6,7)              117.3228                                         !
 ! A20   A(5,6,14)             109.6638                                         !
 ! A21   A(5,6,15)             109.7018                                         !
 ! A22   A(7,6,14)             107.0245                                         !
 ! A23   A(7,6,15)             105.8453                                         !
 ! A24   A(14,6,15)            106.7392                                         !
 ! A25   A(6,7,8)              121.0962                                         !
 ! A26   A(6,7,9)              118.7288                                         !
 ! A27   A(8,7,9)              120.1646                                         !
 ! A28   A(7,9,10)             114.2563                                         !
 ! A29   A(3,18,19)            132.534                                          !
 ! A30   A(3,18,32)            113.1532                                         !
 ! A31   A(19,18,32)           112.7974                                         !
 ! A32   A(18,19,20)           106.8868                                         !
 ! A33   A(18,19,22)           111.1194                                         !
 ! A34   A(18,19,33)           110.1599                                         !
 ! A35   A(20,19,22)           106.9863                                         !
 ! A36   A(20,19,33)           111.2923                                         !
 ! A37   A(22,19,33)           110.3106                                         !
 ! A38   A(19,20,21)           119.4618                                         !
 ! A39   A(19,20,42)           118.8595                                         !
 ! A40   A(21,20,42)           121.2787                                         !
 ! A41   A(19,22,23)           114.0815                                         !
 ! A42   A(19,22,34)           108.6845                                         !
 ! A43   A(19,22,35)           106.4415                                         !
 ! A44   A(23,22,34)           109.901                                          !
 ! A45   A(23,22,35)           111.1232                                         !
 ! A46   A(34,22,35)           106.2574                                         !
 ! A47   A(22,23,24)           127.2696                                         !
 ! A48   A(22,23,25)           126.255                                          !
 ! A49   A(24,23,25)           106.4632                                         !
 ! A50   A(23,24,28)           109.7953                                         !
 ! A51   A(23,24,36)           129.9658                                         !
 ! A52   A(28,24,36)           120.2023                                         !
 ! A53   A(23,25,26)           107.2603                                         !
 ! A54   A(23,25,27)           133.7866                                         !
 ! A55   A(26,25,27)           118.8728                                         !
 ! A56   A(25,26,28)           107.1092                                         !
 ! A57   A(25,26,29)           122.3881                                         !
 ! A58   A(28,26,29)           130.4961                                         !
 ! A59   A(25,27,30)           118.8952                                         !
 ! A60   A(25,27,38)           120.7578                                         !
 ! A61   A(30,27,38)           120.3435                                         !
 ! A62   A(24,28,26)           109.262                                          !
 ! A63   A(24,28,37)           124.1281                                         !
 ! A64   A(26,28,37)           124.6502                                         !
 ! A65   A(26,29,31)           117.3965                                         !
 ! A66   A(26,29,39)           121.3316                                         !
 ! A67   A(31,29,39)           121.254                                          !
 ! A68   A(27,30,31)           121.245                                          !
 ! A69   A(27,30,40)           119.5399                                         !
 ! A70   A(31,30,40)           119.2135                                         !
 ! A71   A(29,31,30)           121.186                                          !
 ! A72   A(29,31,41)           119.3364                                         !
 ! A73   A(30,31,41)           119.4676                                         !
 ! A74   A(20,42,43)           130.2121                                         !
 ! A75   A(20,42,50)           110.4965                                         !
 ! A76   A(43,42,50)           116.4484                                         !
 ! A77   A(42,43,44)           112.2251                                         !
 ! A78   A(42,43,46)           107.2036                                         !
 ! A79   A(42,43,51)           110.889                                          !
 ! A80   A(44,43,46)           109.4197                                         !
 ! A81   A(44,43,51)           110.6517                                         !
 ! A82   A(46,43,51)           106.2027                                         !
 ! A83   A(43,44,45)           121.3923                                         !
 ! A84   A(43,44,56)           118.4411                                         !
 ! A85   A(45,44,56)           119.6633                                         !
 ! A86   A(43,46,47)           113.7403                                         !
 ! A87   A(43,46,48)           110.9815                                         !
 ! A88   A(43,46,52)           105.0708                                         !
 ! A89   A(47,46,48)           111.3211                                         !
 ! A90   A(47,46,52)           109.8574                                         !
 ! A91   A(48,46,52)           105.341                                          !
 ! A92   A(46,47,53)           113.0382                                         !
 ! A93   A(46,47,54)           108.9507                                         !
 ! A94   A(46,47,55)           110.826                                          !
 ! A95   A(53,47,54)           108.2314                                         !
 ! A96   A(53,47,55)           107.0727                                         !
 ! A97   A(54,47,55)           108.5986                                         !
 ! A98   A(46,48,49)           108.9158                                         !
 ! A99   A(44,56,57)           129.1895                                         !
 ! A100  A(44,56,69)           107.523                                          !
 ! A101  A(57,56,69)           110.8083                                         !
 ! A102  A(56,57,58)           113.9677                                         !
 ! A103  A(56,57,60)           112.8638                                         !
 ! A104  A(56,57,70)           102.9306                                         !
 ! A105  A(58,57,60)           113.8322                                         !
 ! A106  A(58,57,70)           102.9484                                         !
 ! A107  A(60,57,70)           109.0689                                         !
 ! A108  A(57,58,59)           122.9613                                         !
 ! A109  A(57,58,67)           113.0263                                         !
 ! A110  A(59,58,67)           123.9256                                         !
 ! A111  A(57,60,61)           114.9153                                         !
 ! A112  A(57,60,71)           109.6293                                         !
 ! A113  A(57,60,72)           106.8383                                         !
 ! A114  A(61,60,71)           107.7234                                         !
 ! A115  A(61,60,72)           110.0886                                         !
 ! A116  A(71,60,72)           107.4159                                         !
 ! A117  A(60,61,62)           115.8948                                         !
 ! A118  A(60,61,73)           108.5998                                         !
 ! A119  A(60,61,74)           109.5728                                         !
 ! A120  A(62,61,73)           109.6793                                         !
 ! A121  A(62,61,74)           107.1258                                         !
 ! A122  A(73,61,74)           105.4659                                         !
 ! A123  A(61,62,63)           111.5588                                         !
 ! A124  A(61,62,75)           108.4099                                         !
 ! A125  A(61,62,76)           110.3648                                         !
 ! A126  A(63,62,75)           110.2987                                         !
 ! A127  A(63,62,76)           108.6491                                         !
 ! A128  A(75,62,76)           107.4786                                         !
 ! A129  A(62,63,64)           124.5003                                         !
 ! A130  A(62,63,77)           118.4836                                         !
 ! A131  A(64,63,77)           116.9664                                         !
 ! A132  A(63,64,65)           119.9894                                         !
 ! A133  A(63,64,66)           119.5229                                         !
 ! A134  A(65,64,66)           120.4723                                         !
 ! A135  A(64,65,78)           120.8105                                         !
 ! A136  A(64,65,79)           121.2143                                         !
 ! A137  A(78,65,79)           117.0342                                         !
 ! A138  A(64,66,80)           119.5046                                         !
 ! A139  A(64,66,81)           121.0005                                         !
 ! A140  A(80,66,81)           119.2591                                         !
 ! A141  A(58,67,68)           106.5652                                         !
 ! D1    D(16,1,2,3)           -65.8104                                         !
 ! D2    D(16,1,2,5)           164.0747                                         !
 ! D3    D(16,1,2,11)           46.8786                                         !
 ! D4    D(17,1,2,3)            49.4628                                         !
 ! D5    D(17,1,2,5)           -80.6521                                         !
 ! D6    D(17,1,2,11)          162.1519                                         !
 ! D7    D(1,2,3,4)            111.75                                           !
 ! D8    D(1,2,3,18)           -74.3083                                         !
 ! D9    D(5,2,3,4)           -118.481                                          !
 ! D10   D(5,2,3,18)            55.4608                                         !
 ! D11   D(11,2,3,4)            -2.6588                                         !
 ! D12   D(11,2,3,18)          171.2829                                         !
 ! D13   D(1,2,5,6)            -71.1482                                         !
 ! D14   D(1,2,5,12)            55.4962                                         !
 ! D15   D(1,2,5,13)           170.1426                                         !
 ! D16   D(3,2,5,6)            156.919                                          !
 ! D17   D(3,2,5,12)           -76.4366                                         !
 ! D18   D(3,2,5,13)            38.2098                                         !
 ! D19   D(11,2,5,6)            44.4937                                         !
 ! D20   D(11,2,5,12)          171.1382                                         !
 ! D21   D(11,2,5,13)          -74.2154                                         !
 ! D22   D(2,3,18,19)           28.6908                                         !
 ! D23   D(2,3,18,32)         -166.6831                                         !
 ! D24   D(4,3,18,19)         -157.532                                          !
 ! D25   D(4,3,18,32)            7.0941                                         !
 ! D26   D(2,5,6,7)             78.8475                                         !
 ! D27   D(2,5,6,14)           -43.4673                                         !
 ! D28   D(2,5,6,15)          -160.3926                                         !
 ! D29   D(12,5,6,7)           -48.6573                                         !
 ! D30   D(12,5,6,14)         -170.9721                                         !
 ! D31   D(12,5,6,15)           72.1026                                         !
 ! D32   D(13,5,6,7)          -162.3912                                         !
 ! D33   D(13,5,6,14)           75.2941                                         !
 ! D34   D(13,5,6,15)          -41.6312                                         !
 ! D35   D(5,6,7,8)            134.6671                                         !
 ! D36   D(5,6,7,9)            -46.5069                                         !
 ! D37   D(14,6,7,8)          -101.6698                                         !
 ! D38   D(14,6,7,9)            77.1562                                         !
 ! D39   D(15,6,7,8)            11.9096                                         !
 ! D40   D(15,6,7,9)          -169.2644                                         !
 ! D41   D(6,7,9,10)            10.5927                                         !
 ! D42   D(8,7,9,10)          -170.5701                                         !
 ! D43   D(3,18,19,20)        -150.6429                                         !
 ! D44   D(3,18,19,22)          92.9627                                         !
 ! D45   D(3,18,19,33)         -29.5982                                         !
 ! D46   D(32,18,19,20)         44.6895                                         !
 ! D47   D(32,18,19,22)        -71.7049                                         !
 ! D48   D(32,18,19,33)        165.7342                                         !
 ! D49   D(18,19,20,21)        -27.0668                                         !
 ! D50   D(18,19,20,42)        160.0974                                         !
 ! D51   D(22,19,20,21)         92.0412                                         !
 ! D52   D(22,19,20,42)        -80.7945                                         !
 ! D53   D(33,19,20,21)       -147.3894                                         !
 ! D54   D(33,19,20,42)         39.7748                                         !
 ! D55   D(18,19,22,23)        -62.0023                                         !
 ! D56   D(18,19,22,34)        174.9912                                         !
 ! D57   D(18,19,22,35)         60.9165                                         !
 ! D58   D(20,19,22,23)       -178.3355                                         !
 ! D59   D(20,19,22,34)         58.6579                                         !
 ! D60   D(20,19,22,35)        -55.4167                                         !
 ! D61   D(33,19,22,23)         60.4715                                         !
 ! D62   D(33,19,22,34)        -62.5351                                         !
 ! D63   D(33,19,22,35)       -176.6097                                         !
 ! D64   D(19,20,42,43)        -19.3518                                         !
 ! D65   D(19,20,42,50)       -179.184                                          !
 ! D66   D(21,20,42,43)        167.9475                                         !
 ! D67   D(21,20,42,50)          8.1154                                         !
 ! D68   D(19,22,23,24)         69.1961                                         !
 ! D69   D(19,22,23,25)       -109.3606                                         !
 ! D70   D(34,22,23,24)       -168.4613                                         !
 ! D71   D(34,22,23,25)         12.982                                          !
 ! D72   D(35,22,23,24)        -51.1363                                         !
 ! D73   D(35,22,23,25)        130.3071                                         !
 ! D74   D(22,23,24,28)       -175.8641                                         !
 ! D75   D(22,23,24,36)          1.8936                                         !
 ! D76   D(25,23,24,28)          2.9222                                         !
 ! D77   D(25,23,24,36)       -179.32                                           !
 ! D78   D(22,23,25,26)        177.515                                          !
 ! D79   D(22,23,25,27)         -5.9027                                         !
 ! D80   D(24,23,25,26)         -1.2874                                         !
 ! D81   D(24,23,25,27)        175.2949                                         !
 ! D82   D(23,24,28,26)         -3.5291                                         !
 ! D83   D(23,24,28,37)       -168.2009                                         !
 ! D84   D(36,24,28,26)        178.4592                                         !
 ! D85   D(36,24,28,37)         13.7874                                         !
 ! D86   D(23,25,26,28)         -0.7951                                         !
 ! D87   D(23,25,26,29)        178.3578                                         !
 ! D88   D(27,25,26,28)       -177.9781                                         !
 ! D89   D(27,25,26,29)          1.1748                                         !
 ! D90   D(23,25,27,30)       -176.3649                                         !
 ! D91   D(23,25,27,38)          2.9667                                         !
 ! D92   D(26,25,27,30)         -0.0924                                         !
 ! D93   D(26,25,27,38)        179.2392                                         !
 ! D94   D(25,26,28,24)          2.605                                          !
 ! D95   D(25,26,28,37)        167.1785                                         !
 ! D96   D(29,26,28,24)       -176.4544                                         !
 ! D97   D(29,26,28,37)        -11.8809                                         !
 ! D98   D(25,26,29,31)         -1.2011                                         !
 ! D99   D(25,26,29,39)       -179.6767                                         !
 ! D100  D(28,26,29,31)        177.7343                                         !
 ! D101  D(28,26,29,39)         -0.7413                                         !
 ! D102  D(25,27,30,31)         -0.9047                                         !
 ! D103  D(25,27,30,40)        178.6387                                         !
 ! D104  D(38,27,30,31)        179.7609                                         !
 ! D105  D(38,27,30,40)         -0.6957                                         !
 ! D106  D(26,29,31,30)          0.177                                          !
 ! D107  D(26,29,31,41)       -178.67                                           !
 ! D108  D(39,29,31,30)        178.6539                                         !
 ! D109  D(39,29,31,41)         -0.1932                                         !
 ! D110  D(27,30,31,29)          0.8803                                         !
 ! D111  D(27,30,31,41)        179.7258                                         !
 ! D112  D(40,30,31,29)       -178.6646                                         !
 ! D113  D(40,30,31,41)          0.181                                          !
 ! D114  D(20,42,43,44)        -56.9614                                         !
 ! D115  D(20,42,43,46)       -177.1272                                         !
 ! D116  D(20,42,43,51)         67.3532                                         !
 ! D117  D(50,42,43,44)        101.8956                                         !
 ! D118  D(50,42,43,46)        -18.2702                                         !
 ! D119  D(50,42,43,51)       -133.7898                                         !
 ! D120  D(42,43,44,45)        -17.4576                                         !
 ! D121  D(42,43,44,56)        170.71                                           !
 ! D122  D(46,43,44,45)        101.4128                                         !
 ! D123  D(46,43,44,56)        -70.4196                                         !
 ! D124  D(51,43,44,45)       -141.9037                                         !
 ! D125  D(51,43,44,56)         46.264                                          !
 ! D126  D(42,43,46,47)         68.6783                                         !
 ! D127  D(42,43,46,48)       -164.8749                                         !
 ! D128  D(42,43,46,52)        -51.5024                                         !
 ! D129  D(44,43,46,47)        -53.2598                                         !
 ! D130  D(44,43,46,48)         73.187                                          !
 ! D131  D(44,43,46,52)       -173.4405                                         !
 ! D132  D(51,43,46,47)       -172.7234                                         !
 ! D133  D(51,43,46,48)        -46.2766                                         !
 ! D134  D(51,43,46,52)         67.0959                                         !
 ! D135  D(43,44,56,57)        -50.2563                                         !
 ! D136  D(43,44,56,69)        172.1771                                         !
 ! D137  D(45,44,56,57)        137.7663                                         !
 ! D138  D(45,44,56,69)          0.1998                                         !
 ! D139  D(43,46,47,53)        -55.7862                                         !
 ! D140  D(43,46,47,54)       -176.1489                                         !
 ! D141  D(43,46,47,55)         64.4187                                         !
 ! D142  D(48,46,47,53)        177.9455                                         !
 ! D143  D(48,46,47,54)         57.5828                                         !
 ! D144  D(48,46,47,55)        -61.8496                                         !
 ! D145  D(52,46,47,53)         61.6555                                         !
 ! D146  D(52,46,47,54)        -58.7073                                         !
 ! D147  D(52,46,47,55)       -178.1397                                         !
 ! D148  D(43,46,48,49)        -86.408                                          !
 ! D149  D(47,46,48,49)         41.3654                                         !
 ! D150  D(52,46,48,49)        160.3901                                         !
 ! D151  D(44,56,57,58)         83.3056                                         !
 ! D152  D(44,56,57,60)        -48.5571                                         !
 ! D153  D(44,56,57,70)       -165.9829                                         !
 ! D154  D(69,56,57,58)       -140.1917                                         !
 ! D155  D(69,56,57,60)         87.9457                                         !
 ! D156  D(69,56,57,70)        -29.4802                                         !
 ! D157  D(56,57,58,59)         86.4514                                         !
 ! D158  D(56,57,58,67)        -96.8174                                         !
 ! D159  D(60,57,58,59)       -142.1564                                         !
 ! D160  D(60,57,58,67)         34.5749                                         !
 ! D161  D(70,57,58,59)        -24.2493                                         !
 ! D162  D(70,57,58,67)        152.4819                                         !
 ! D163  D(56,57,60,61)       -168.5287                                         !
 ! D164  D(56,57,60,71)         70.0018                                         !
 ! D165  D(56,57,60,72)        -46.0989                                         !
 ! D166  D(58,57,60,61)         59.5417                                         !
 ! D167  D(58,57,60,71)        -61.9277                                         !
 ! D168  D(58,57,60,72)       -178.0284                                         !
 ! D169  D(70,57,60,61)        -54.7809                                         !
 ! D170  D(70,57,60,71)       -176.2504                                         !
 ! D171  D(70,57,60,72)         67.6489                                         !
 ! D172  D(57,58,67,68)        172.3353                                         !
 ! D173  D(59,58,67,68)        -10.97                                           !
 ! D174  D(57,60,61,62)         50.06                                           !
 ! D175  D(57,60,61,73)        174.0013                                         !
 ! D176  D(57,60,61,74)        -71.2733                                         !
 ! D177  D(71,60,61,62)        172.5611                                         !
 ! D178  D(71,60,61,73)        -63.4975                                         !
 ! D179  D(71,60,61,74)         51.2278                                         !
 ! D180  D(72,60,61,62)        -70.6018                                         !
 ! D181  D(72,60,61,73)         53.3396                                         !
 ! D182  D(72,60,61,74)        168.0649                                         !
 ! D183  D(60,61,62,63)         54.871                                          !
 ! D184  D(60,61,62,75)        176.5148                                         !
 ! D185  D(60,61,62,76)        -66.0201                                         !
 ! D186  D(73,61,62,63)        -68.5077                                         !
 ! D187  D(73,61,62,75)         53.1361                                         !
 ! D188  D(73,61,62,76)        170.6012                                         !
 ! D189  D(74,61,62,63)        177.5041                                         !
 ! D190  D(74,61,62,75)        -60.8521                                         !
 ! D191  D(74,61,62,76)         56.613                                          !
 ! D192  D(61,62,63,64)       -166.8481                                         !
 ! D193  D(61,62,63,77)         15.8021                                         !
 ! D194  D(75,62,63,64)         72.6082                                         !
 ! D195  D(75,62,63,77)       -104.7415                                         !
 ! D196  D(76,62,63,64)        -44.9608                                         !
 ! D197  D(76,62,63,77)        137.6894                                         !
 ! D198  D(62,63,64,65)         -8.683                                          !
 ! D199  D(62,63,64,66)        169.8942                                         !
 ! D200  D(77,63,64,65)        168.7034                                         !
 ! D201  D(77,63,64,66)        -12.7194                                         !
 ! D202  D(63,64,65,78)        172.8865                                         !
 ! D203  D(63,64,65,79)        -18.5433                                         !
 ! D204  D(66,64,65,78)         -5.677                                          !
 ! D205  D(66,64,65,79)        162.8932                                         !
 ! D206  D(63,64,66,80)        -14.9525                                         !
 ! D207  D(63,64,66,81)        170.6674                                         !
 ! D208  D(65,64,66,80)        163.6177                                         !
 ! D209  D(65,64,66,81)        -10.7625                                         !
 --------------------------------------------------------------------------------
 Symmetry turned off by external request.
 Stoichiometry    C26H39N8O8(1+)
 Framework group  C1[X(C26H39N8O8)]
 Deg. of freedom   237
 Full point group                 C1      NOp   1
                          Input orientation:                          
 ---------------------------------------------------------------------
 Center     Atomic      Atomic             Coordinates (Angstroms)
 Number     Number       Type             X           Y           Z
 ---------------------------------------------------------------------
      1          7           0        9.382564   33.878586   10.980833
      2          6           0        9.421333   33.736456    9.498174
      3          6           0        8.095218   33.314152    8.827631
      4          8           0        7.518344   34.130720    8.118431
      5          6           0       10.607208   32.867780    9.044154
      6          6           0       11.993710   33.529463    9.200392
      7          6           0       12.607818   33.542027   10.589988
      8          8           0       13.785095   33.244032   10.765266
      9          8           0       11.849622   33.906991   11.621228
     10          1           0       10.792834   33.993238   11.389229
     11          1           0        9.572524   34.747236    9.110580
     12          1           0       10.600907   31.884862    9.524825
     13          1           0       10.467656   32.663882    7.977726
     14          1           0       11.945662   34.573981    8.860202
     15          1           0       12.717782   33.022799    8.559005
     16          1           0        8.769584   34.651953   11.241917
     17          1           0        8.961085   33.060439   11.421650
     18          7           0        7.647468   32.026298    8.923025
     19          6           0        7.824499   30.998677    9.931450
     20          6           0        7.758050   29.643176    9.205023
     21          8           0        7.119768   29.548077    8.166838
     22          6           0        6.654157   31.019176   10.968264
     23          6           0        6.546910   32.296517   11.743962
     24          6           0        6.167238   33.531505   11.268237
     25          6           0        6.853957   32.473975   13.144879
     26          6           0        6.667395   33.851680   13.446690
     27          6           0        7.209053   31.593261   14.182752
     28          7           0        6.283354   34.477217   12.273257
     29          6           0        6.847601   34.367752   14.734314
     30          6           0        7.367567   32.098520   15.467211
     31          6           0        7.197690   33.472531   15.739309
     32          1           0        6.892334   31.816367    8.274733
     33          1           0        8.781597   31.130065   10.438138
     34          1           0        6.779194   30.174383   11.655824
     35          1           0        5.735529   30.821711   10.403251
     36          1           0        5.850366   33.826669   10.277738
     37          1           0        5.905178   35.412094   12.218062
     38          1           0        7.347163   30.533236   13.989043
     39          1           0        6.695400   35.422258   14.946686
     40          1           0        7.619937   31.423989   16.280880
     41          1           0        7.324216   33.835649   16.754956
     42          7           0        8.291269   28.540922    9.814245
     43          6           0        9.257358   28.441717   10.893870
     44          6           0       10.569319   29.163870   10.566177
     45          8           0       10.860422   29.465593    9.418051
     46          6           0        9.545291   26.910984   11.121805
     47          6           0       10.305624   26.249620    9.971609
     48          8           0       10.196224   26.696918   12.358755
     49          1           0       11.153753   26.797522   12.232157
     50          1           0        8.190799   27.724581    9.221922
     51          1           0        8.834776   28.815676   11.831005
     52          1           0        8.557526   26.448191   11.229989
     53          1           0        9.806930   26.367544    9.004839
     54          1           0       10.402461   25.180445   10.178359
     55          1           0       11.309666   26.678586    9.870364
     56          7           0       11.511980   29.320882   11.580806
     57          6           0       11.331137   29.848169   12.952366
     58          6           0       10.818081   28.808994   13.956660
     59          8           0       11.549898   28.066272   14.564829
     60          6           0       10.560818   31.173793   12.984338
     61          6           0       10.582538   31.903101   14.337758
     62          6           0       11.963221   32.087638   14.976446
     63          7           0       12.892989   32.760423   14.064495
     64          6           0       14.214987   32.829960   14.246957
     65          7           0       14.758008   32.413411   15.409330
     66          7           0       14.990788   33.285910   13.263408
     67          8           0        9.478420   28.863630   14.136828
     68          1           0        9.240017   28.093762   14.688810
     69          1           0       12.357353   29.696259   11.157965
     70          1           0       12.356904   30.023446   13.284051
     71          1           0        9.514245   30.997329   12.717766
     72          1           0       10.992680   31.809159   12.209178
     73          1           0       10.098506   32.878718   14.216861
     74          1           0        9.965624   31.358899   15.056710
     75          1           0       11.843494   32.672816   15.898891
     76          1           0       12.387775   31.115131   15.255850
     77          1           0       12.509987   33.247673   13.247181
     78          1           0       15.759551   32.359900   15.522183
     79          1           0       14.196717   32.309699   16.241021
     80          1           0       14.607249   33.360660   12.304080
     81          1           0       15.968873   33.479915   13.420194
 ---------------------------------------------------------------------
 Rotational constants (GHZ):           0.0875605           0.0774191           0.0679596
 Standard basis: 6-31G(d) (6D, 7F)
   708 basis functions,  1332 primitive gaussians,   708 cartesian basis functions
   157 alpha electrons      157 beta electrons
       nuclear repulsion energy      5782.6880414606 Hartrees.
 NAtoms=   81 NActive=   81 NUniq=   81 SFac= 1.00D+00 NAtFMM=   60 NAOKFM=T Big=T
 Integral buffers will be    131072 words long.
 Raffenetti 2 integral format.
 Two-electron integral symmetry is turned off.
 Nuclear repulsion after empirical dispersion term =     5782.5546200156 Hartrees.
 One-electron integrals computed using PRISM.
 NBasis=   708 RedAO= T EigKep=  3.65D-04  NBF=   708
 NBsUse=   708 1.00D-06 EigRej= -1.00D+00 NBFU=   708
 Initial guess from the checkpoint file:  "conf-549.chk"
 B after Tr=     0.000000    0.000000    0.000000
         Rot=    1.000000    0.000000    0.000000    0.000000 Ang=   0.00 deg.
 Requested convergence on RMS density matrix=1.00D-08 within 128 cycles.
 Requested convergence on MAX density matrix=1.00D-06.
 Requested convergence on             energy=1.00D-06.
 No special actions if energy rises.
 SCF Done:  E(RB3LYP) =  -2054.06269492     A.U. after    3 cycles
            NFock=  3  Conv=0.12D-08     -V/T= 2.0093

 **********************************************************************

            Population analysis using the SCF Density.

 **********************************************************************

 Alpha  occ. eigenvalues --  -19.30621 -19.28366 -19.24726 -19.24689 -19.24632
 Alpha  occ. eigenvalues --  -19.23189 -19.20445 -19.19979 -14.51569 -14.50126
 Alpha  occ. eigenvalues --  -14.49164 -14.47704 -14.47381 -14.47292 -14.45231
 Alpha  occ. eigenvalues --  -14.44442 -10.46968 -10.42997 -10.42912 -10.39915
 Alpha  occ. eigenvalues --  -10.37979 -10.37826 -10.35977 -10.35955 -10.34784
 Alpha  occ. eigenvalues --  -10.33930 -10.33817 -10.33696 -10.31513 -10.31264
 Alpha  occ. eigenvalues --  -10.31063 -10.30911 -10.30312 -10.29844 -10.29299
 Alpha  occ. eigenvalues --  -10.28307 -10.28149 -10.28003 -10.27964 -10.27747
 Alpha  occ. eigenvalues --  -10.27464 -10.27163  -1.21352  -1.19827  -1.15468
 Alpha  occ. eigenvalues --   -1.15206  -1.12917  -1.12543  -1.12369  -1.11981
 Alpha  occ. eigenvalues --   -1.11353  -1.07467  -1.04912  -1.03497  -1.03368
 Alpha  occ. eigenvalues --   -1.02981  -1.01887  -1.01073  -0.93331  -0.92457
 Alpha  occ. eigenvalues --   -0.90238  -0.89719  -0.87495  -0.86500  -0.85187
 Alpha  occ. eigenvalues --   -0.82935  -0.82010  -0.81479  -0.81221  -0.80630
 Alpha  occ. eigenvalues --   -0.77988  -0.76420  -0.74632  -0.73869  -0.73488
 Alpha  occ. eigenvalues --   -0.72400  -0.71552  -0.71508  -0.70089  -0.69675
 Alpha  occ. eigenvalues --   -0.68957  -0.68573  -0.68270  -0.66666  -0.65477
 Alpha  occ. eigenvalues --   -0.64853  -0.64624  -0.63526  -0.63360  -0.63100
 Alpha  occ. eigenvalues --   -0.61363  -0.61067  -0.60714  -0.59959  -0.59798
 Alpha  occ. eigenvalues --   -0.59492  -0.59281  -0.58890  -0.58049  -0.57787
 Alpha  occ. eigenvalues --   -0.57241  -0.56583  -0.56434  -0.56116  -0.55854
 Alpha  occ. eigenvalues --   -0.55621  -0.55153  -0.54928  -0.54660  -0.54316
 Alpha  occ. eigenvalues --   -0.53839  -0.52961  -0.52657  -0.52347  -0.52103
 Alpha  occ. eigenvalues --   -0.51557  -0.51439  -0.51076  -0.50609  -0.50117
 Alpha  occ. eigenvalues --   -0.49982  -0.49613  -0.49253  -0.49054  -0.48002
 Alpha  occ. eigenvalues --   -0.47874  -0.47657  -0.47359  -0.47328  -0.46912
 Alpha  occ. eigenvalues --   -0.46657  -0.46388  -0.45901  -0.45676  -0.45259
 Alpha  occ. eigenvalues --   -0.44529  -0.44422  -0.42939  -0.42757  -0.42604
 Alpha  occ. eigenvalues --   -0.42442  -0.42223  -0.41888  -0.40824  -0.39551
 Alpha  occ. eigenvalues --   -0.39269  -0.38292  -0.37846  -0.37140  -0.36821
 Alpha  occ. eigenvalues --   -0.35658  -0.34850  -0.34742  -0.33572  -0.33009
 Alpha  occ. eigenvalues --   -0.31860  -0.29808
 Alpha virt. eigenvalues --   -0.11374  -0.10888  -0.10810  -0.10480  -0.10207
 Alpha virt. eigenvalues --   -0.07710  -0.07525  -0.07100  -0.06946  -0.05152
 Alpha virt. eigenvalues --   -0.04235  -0.03696  -0.03223  -0.02292  -0.01775
 Alpha virt. eigenvalues --   -0.01001  -0.00726  -0.00473  -0.00028   0.00209
 Alpha virt. eigenvalues --    0.01401   0.01586   0.01628   0.02156   0.02659
 Alpha virt. eigenvalues --    0.03101   0.03434   0.03797   0.03951   0.04378
 Alpha virt. eigenvalues --    0.04918   0.05482   0.05963   0.06384   0.06754
 Alpha virt. eigenvalues --    0.06799   0.07326   0.07594   0.07845   0.08164
 Alpha virt. eigenvalues --    0.08605   0.08648   0.08835   0.09277   0.09416
 Alpha virt. eigenvalues --    0.09682   0.09979   0.10067   0.10567   0.10983
 Alpha virt. eigenvalues --    0.11279   0.11386   0.11835   0.12151   0.12930
 Alpha virt. eigenvalues --    0.13197   0.13523   0.14061   0.14177   0.14495
 Alpha virt. eigenvalues --    0.15070   0.15520   0.16151   0.16415   0.16509
 Alpha virt. eigenvalues --    0.16980   0.17614   0.17981   0.18474   0.19253
 Alpha virt. eigenvalues --    0.19676   0.20080   0.20495   0.22109   0.23198
 Alpha virt. eigenvalues --    0.23597   0.25007   0.25152   0.25669   0.26200
 Alpha virt. eigenvalues --    0.27176   0.27976   0.28606   0.28851   0.30011
 Alpha virt. eigenvalues --    0.30416   0.31640   0.32379   0.33268   0.34808
 Alpha virt. eigenvalues --    0.36392   0.37351   0.37690   0.38121   0.39011
 Alpha virt. eigenvalues --    0.40421   0.40890   0.41139   0.41666   0.42342
 Alpha virt. eigenvalues --    0.42630   0.43115   0.43509   0.43813   0.44369
 Alpha virt. eigenvalues --    0.44853   0.45112   0.45628   0.45972   0.46211
 Alpha virt. eigenvalues --    0.46619   0.46868   0.47232   0.47728   0.48121
 Alpha virt. eigenvalues --    0.48476   0.48777   0.49387   0.49598   0.50130
 Alpha virt. eigenvalues --    0.50479   0.50629   0.50853   0.51440   0.51567
 Alpha virt. eigenvalues --    0.52060   0.52692   0.53166   0.53206   0.53661
 Alpha virt. eigenvalues --    0.53864   0.54074   0.54505   0.54859   0.55472
 Alpha virt. eigenvalues --    0.55755   0.56597   0.56783   0.57038   0.57238
 Alpha virt. eigenvalues --    0.57816   0.58206   0.59036   0.59128   0.59614
 Alpha virt. eigenvalues --    0.60167   0.60498   0.60746   0.61248   0.61363
 Alpha virt. eigenvalues --    0.62225   0.63210   0.63632   0.64359   0.64957
 Alpha virt. eigenvalues --    0.65449   0.65989   0.66556   0.66828   0.67775
 Alpha virt. eigenvalues --    0.68320   0.68999   0.69298   0.69904   0.70714
 Alpha virt. eigenvalues --    0.71416   0.71697   0.71856   0.72457   0.72824
 Alpha virt. eigenvalues --    0.73290   0.73544   0.74024   0.74088   0.74442
 Alpha virt. eigenvalues --    0.74508   0.75445   0.75549   0.75851   0.76551
 Alpha virt. eigenvalues --    0.76734   0.77038   0.77444   0.77568   0.78045
 Alpha virt. eigenvalues --    0.78198   0.78912   0.79157   0.79456   0.79887
 Alpha virt. eigenvalues --    0.80050   0.80321   0.80494   0.80885   0.81059
 Alpha virt. eigenvalues --    0.81334   0.81811   0.82314   0.82649   0.83396
 Alpha virt. eigenvalues --    0.83489   0.83659   0.84030   0.84343   0.84859
 Alpha virt. eigenvalues --    0.85098   0.85271   0.86067   0.86442   0.87329
 Alpha virt. eigenvalues --    0.87535   0.88235   0.88711   0.89606   0.89674
 Alpha virt. eigenvalues --    0.90086   0.90670   0.91451   0.91920   0.92586
 Alpha virt. eigenvalues --    0.93338   0.93661   0.94289   0.95031   0.95362
 Alpha virt. eigenvalues --    0.95666   0.96023   0.96509   0.97298   0.97451
 Alpha virt. eigenvalues --    0.98940   0.99306   1.00304   1.00433   1.00987
 Alpha virt. eigenvalues --    1.01219   1.02042   1.02853   1.03284   1.04164
 Alpha virt. eigenvalues --    1.05370   1.05799   1.06328   1.06750   1.06941
 Alpha virt. eigenvalues --    1.08001   1.08644   1.09169   1.09341   1.10412
 Alpha virt. eigenvalues --    1.11314   1.11760   1.12342   1.13258   1.13488
 Alpha virt. eigenvalues --    1.14161   1.15074   1.15396   1.15913   1.17380
 Alpha virt. eigenvalues --    1.17562   1.19523   1.19979   1.20438   1.20866
 Alpha virt. eigenvalues --    1.21452   1.22173   1.23386   1.23946   1.24176
 Alpha virt. eigenvalues --    1.25474   1.26577   1.27680   1.28099   1.28523
 Alpha virt. eigenvalues --    1.30189   1.30508   1.30822   1.31776   1.32092
 Alpha virt. eigenvalues --    1.32796   1.33414   1.33744   1.34309   1.35111
 Alpha virt. eigenvalues --    1.35492   1.36061   1.37676   1.38167   1.38437
 Alpha virt. eigenvalues --    1.38850   1.40479   1.41120   1.41615   1.41950
 Alpha virt. eigenvalues --    1.42638   1.43355   1.43960   1.44824   1.45200
 Alpha virt. eigenvalues --    1.45679   1.46836   1.47696   1.48395   1.48907
 Alpha virt. eigenvalues --    1.49356   1.50375   1.51727   1.52725   1.52968
 Alpha virt. eigenvalues --    1.53294   1.53847   1.54932   1.55307   1.55774
 Alpha virt. eigenvalues --    1.56385   1.57184   1.58842   1.59740   1.59987
 Alpha virt. eigenvalues --    1.61724   1.62076   1.62965   1.64132   1.64422
 Alpha virt. eigenvalues --    1.65043   1.65885   1.66341   1.66998   1.67504
 Alpha virt. eigenvalues --    1.68277   1.69063   1.69392   1.69476   1.70259
 Alpha virt. eigenvalues --    1.70600   1.70899   1.71474   1.72062   1.72730
 Alpha virt. eigenvalues --    1.72818   1.73035   1.73994   1.74246   1.74845
 Alpha virt. eigenvalues --    1.75388   1.76311   1.76953   1.77040   1.77671
 Alpha virt. eigenvalues --    1.78034   1.78919   1.79193   1.79260   1.80417
 Alpha virt. eigenvalues --    1.80756   1.81269   1.81739   1.82354   1.82535
 Alpha virt. eigenvalues --    1.83045   1.83662   1.84286   1.84372   1.84613
 Alpha virt. eigenvalues --    1.85220   1.85947   1.86821   1.86940   1.87448
 Alpha virt. eigenvalues --    1.88263   1.89085   1.89258   1.90060   1.90895
 Alpha virt. eigenvalues --    1.91160   1.91482   1.91771   1.92582   1.92840
 Alpha virt. eigenvalues --    1.94030   1.94451   1.94977   1.95614   1.96147
 Alpha virt. eigenvalues --    1.96215   1.97603   1.98453   1.98690   1.98920
 Alpha virt. eigenvalues --    1.99294   2.00191   2.01398   2.02578   2.02944
 Alpha virt. eigenvalues --    2.03930   2.04521   2.04721   2.05171   2.05976
 Alpha virt. eigenvalues --    2.06977   2.08314   2.08700   2.09805   2.10353
 Alpha virt. eigenvalues --    2.11236   2.11614   2.12582   2.13661   2.14350
 Alpha virt. eigenvalues --    2.16040   2.16565   2.16723   2.17332   2.17889
 Alpha virt. eigenvalues --    2.19128   2.19482   2.20072   2.20477   2.21211
 Alpha virt. eigenvalues --    2.22589   2.23148   2.23818   2.24430   2.25740
 Alpha virt. eigenvalues --    2.26978   2.27688   2.28789   2.29002   2.29564
 Alpha virt. eigenvalues --    2.30189   2.30780   2.31351   2.31852   2.33627
 Alpha virt. eigenvalues --    2.34092   2.34576   2.35824   2.36243   2.38079
 Alpha virt. eigenvalues --    2.38777   2.39583   2.40127   2.41566   2.42072
 Alpha virt. eigenvalues --    2.42213   2.42729   2.43728   2.44506   2.45911
 Alpha virt. eigenvalues --    2.46631   2.46851   2.47063   2.47311   2.49213
 Alpha virt. eigenvalues --    2.50149   2.50492   2.51005   2.51304   2.51964
 Alpha virt. eigenvalues --    2.52273   2.53675   2.55319   2.55981   2.56812
 Alpha virt. eigenvalues --    2.57202   2.57375   2.58039   2.59006   2.59301
 Alpha virt. eigenvalues --    2.60587   2.61043   2.61522   2.61957   2.64180
 Alpha virt. eigenvalues --    2.65282   2.66598   2.67347   2.67679   2.69080
 Alpha virt. eigenvalues --    2.69811   2.71014   2.72908   2.74205   2.74776
 Alpha virt. eigenvalues --    2.76653   2.77958   2.79414   2.82684   2.84148
 Alpha virt. eigenvalues --    2.86026   2.88724   2.89191   2.89861   2.90446
 Alpha virt. eigenvalues --    2.90984   2.91932   2.93177   2.94471   2.98130
 Alpha virt. eigenvalues --    2.98826   2.99554   2.99941   3.01204   3.02573
 Alpha virt. eigenvalues --    3.05058   3.11557   3.15585   3.34777   3.67537
 Alpha virt. eigenvalues --    3.76287   3.78980   3.84051   3.86682   3.88037
 Alpha virt. eigenvalues --    3.90294   3.91137   3.95282   3.97213   4.00943
 Alpha virt. eigenvalues --    4.01342   4.02251   4.03222   4.04876   4.07202
 Alpha virt. eigenvalues --    4.07844   4.09815   4.13847   4.14404   4.15738
 Alpha virt. eigenvalues --    4.16539   4.21620   4.22426   4.23751   4.25129
 Alpha virt. eigenvalues --    4.26545   4.30389   4.32703   4.34627   4.37458
 Alpha virt. eigenvalues --    4.38509   4.40015   4.42978   4.46588   4.48928
 Alpha virt. eigenvalues --    4.50662   4.57580   4.58361   4.62579   4.69097
 Alpha virt. eigenvalues --    4.70995
          Condensed to atoms (all electrons):
 Mulliken charges:
               1
     1  N   -0.841127
     2  C   -0.067638
     3  C    0.578191
     4  O   -0.496121
     5  C   -0.324548
     6  C   -0.372990
     7  C    0.613046
     8  O   -0.499228
     9  O   -0.642543
    10  H    0.487235
    11  H    0.191822
    12  H    0.185876
    13  H    0.203472
    14  H    0.193424
    15  H    0.205234
    16  H    0.364135
    17  H    0.371535
    18  N   -0.571481
    19  C   -0.077223
    20  C    0.643583
    21  O   -0.499987
    22  C   -0.366142
    23  C    0.047235
    24  C   -0.022807
    25  C    0.062010
    26  C    0.294707
    27  C   -0.216754
    28  N   -0.690301
    29  C   -0.164486
    30  C   -0.151618
    31  C   -0.156067
    32  H    0.361731
    33  H    0.127325
    34  H    0.165961
    35  H    0.188527
    36  H    0.201377
    37  H    0.348440
    38  H    0.142293
    39  H    0.145959
    40  H    0.133394
    41  H    0.144520
    42  N   -0.615698
    43  C   -0.056145
    44  C    0.562533
    45  O   -0.483898
    46  C    0.106708
    47  C   -0.493258
    48  O   -0.623414
    49  H    0.411587
    50  H    0.349250
    51  H    0.182655
    52  H    0.171705
    53  H    0.172275
    54  H    0.189412
    55  H    0.166366
    56  N   -0.609435
    57  C   -0.050130
    58  C    0.621148
    59  O   -0.455278
    60  C   -0.314727
    61  C   -0.314129
    62  C   -0.164570
    63  N   -0.643841
    64  C    0.801627
    65  N   -0.763170
    66  N   -0.793446
    67  O   -0.568657
    68  H    0.433333
    69  H    0.342780
    70  H    0.177250
    71  H    0.176096
    72  H    0.147008
    73  H    0.176679
    74  H    0.188045
    75  H    0.177736
    76  H    0.181796
    77  H    0.421081
    78  H    0.377411
    79  H    0.382560
    80  H    0.429303
    81  H    0.363483
 Sum of Mulliken charges =   1.00000
 Mulliken charges with hydrogens summed into heavy atoms:
               1
     1  N   -0.105457
     2  C    0.124184
     3  C    0.578191
     4  O   -0.496121
     5  C    0.064800
     6  C    0.025668
     7  C    0.613046
     8  O   -0.499228
     9  O   -0.155308
    18  N   -0.209750
    19  C    0.050102
    20  C    0.643583
    21  O   -0.499987
    22  C   -0.011654
    23  C    0.047235
    24  C    0.178570
    25  C    0.062010
    26  C    0.294707
    27  C   -0.074461
    28  N   -0.341861
    29  C   -0.018526
    30  C   -0.018223
    31  C   -0.011547
    42  N   -0.266447
    43  C    0.126510
    44  C    0.562533
    45  O   -0.483898
    46  C    0.278413
    47  C    0.034793
    48  O   -0.211828
    56  N   -0.266655
    57  C    0.127121
    58  C    0.621148
    59  O   -0.455278
    60  C    0.008377
    61  C    0.050594
    62  C    0.194962
    63  N   -0.222759
    64  C    0.801627
    65  N   -0.003199
    66  N   -0.000661
    67  O   -0.135323
 Electronic spatial extent (au):  <R**2>=        1389987.5989
 Charge=              1.0000 electrons
 Dipole moment (field-independent basis, Debye):
    X=             57.0286    Y=            155.6251    Z=             67.7168  Tot=            179.0447
 Quadrupole moment (field-independent basis, Debye-Ang):
   XX=            487.0357   YY=           4833.5527   ZZ=            709.4179
   XY=           1848.4145   XZ=            806.2856   YZ=           2201.1942
 Traceless Quadrupole moment (field-independent basis, Debye-Ang):
   XX=          -1522.9664   YY=           2823.5506   ZZ=          -1300.5842
   XY=           1848.4145   XZ=            806.2856   YZ=           2201.1942
 Octapole moment (field-independent basis, Debye-Ang**2):
  XXX=           2851.9584  YYY=         143687.8535  ZZZ=           4916.3913  XYY=          57820.3911
  XXY=          16100.7524  XXZ=           7519.9520  XZZ=           9138.5139  YZZ=          23412.5482
  YYZ=          69031.4865  XYZ=          26215.8382
 Hexadecapole moment (field-independent basis, Debye-Ang**3):
 XXXX=          -4938.0141 YYYY=        4048517.3063 ZZZZ=         -15770.7746 XXXY=         101812.1813
 XXXZ=          58319.9360 YYYX=        1744749.7807 YYYZ=        2088235.4794 ZZZX=          81790.5353
 ZZZY=         171063.6671 XXYY=         508182.5791 XXZZ=          90399.4674 YYZZ=         739091.9045
 XXYZ=         248378.7912 YYXZ=         826619.4201 ZZXY=         300855.0210
 N-N= 5.782554620016D+03 E-N=-1.632073004935D+04  KE= 2.035192494472D+03
 Unable to Open any file for archive entry.
 1\1\GINC-LAC-314\SP\RB3LYP\6-31G(d)\C26H39N8O8(1+)\KENGMITH\27-May-202
 2\0\\# B3LYP/6-31G* empiricaldispersion=gd3 guess=read geom=check nosy
 mm integral(ultrafinegrid)\\Candidate Structure: Conf:549 Charge calc 
 in gas phase\\1,1\N,0,9.3825643889,33.8785862173,10.9808327041\C,0,9.4
 213331039,33.7364556431,9.4981737783\C,0,8.0952181803,33.314152404,8.8
 276311049\O,0,7.5183441058,34.1307203807,8.1184313201\C,0,10.607207639
 8,32.8677796891,9.044154263\C,0,11.9937101974,33.5294627382,9.20039223
 42\C,0,12.6078177876,33.5420265745,10.5899882348\O,0,13.785094818,33.2
 440318572,10.7652657897\O,0,11.8496223544,33.9069909883,11.6212282919\
 H,0,10.7928341553,33.9932382896,11.389228974\H,0,9.5725236988,34.74723
 62719,9.1105799628\H,0,10.6009071763,31.8848616048,9.5248246913\H,0,10
 .4676558383,32.6638820884,7.9777263869\H,0,11.9456624654,34.5739807218
 ,8.8602016817\H,0,12.717782073,33.022798807,8.5590046974\H,0,8.7695841
 994,34.6519525116,11.2419174382\H,0,8.9610854445,33.0604386673,11.4216
 503651\N,0,7.6474680025,32.0262975811,8.9230252051\C,0,7.8244992594,30
 .9986769652,9.9314502235\C,0,7.7580496356,29.6431760902,9.2050229449\O
 ,0,7.119768353,29.5480773183,8.1668377745\C,0,6.654156553,31.019176350
 9,10.9682642522\C,0,6.5469103409,32.2965172195,11.743962337\C,0,6.1672
 376221,33.5315053176,11.2682373256\C,0,6.8539570454,32.4739751711,13.1
 448794915\C,0,6.6673951683,33.8516804592,13.4466896551\C,0,7.209053410
 6,31.5932606722,14.1827518638\N,0,6.2833542213,34.4772172795,12.273257
 0101\C,0,6.8476010706,34.367752187,14.734313717\C,0,7.3675667351,32.09
 85195496,15.4672111688\C,0,7.1976903232,33.4725314391,15.7393085054\H,
 0,6.8923342439,31.8163672721,8.2747332088\H,0,8.7815972276,31.13006470
 21,10.4381380203\H,0,6.7791938576,30.174383148,11.6558241909\H,0,5.735
 5285491,30.8217109486,10.4032505245\H,0,5.8503660166,33.8266693007,10.
 2777382694\H,0,5.9051780067,35.4120944383,12.2180620143\H,0,7.34716333
 29,30.5332364581,13.9890434713\H,0,6.6953996161,35.4222577012,14.94668
 61673\H,0,7.6199374766,31.4239890508,16.2808796702\H,0,7.3242157306,33
 .8356492392,16.7549556452\N,0,8.2912692165,28.5409215776,9.8142453438\
 C,0,9.2573578691,28.4417171046,10.8938701238\C,0,10.5693185338,29.1638
 698079,10.5661770244\O,0,10.8604217245,29.4655934689,9.4180514656\C,0,
 9.5452907339,26.9109844601,11.1218048053\C,0,10.3056236911,26.24962044
 71,9.9716085359\O,0,10.1962237308,26.6969178844,12.3587549906\H,0,11.1
 537532938,26.7975222997,12.2321568742\H,0,8.19079934,27.7245812633,9.2
 219218969\H,0,8.8347755177,28.8156761784,11.8310046597\H,0,8.557526145
 9,26.4481914319,11.2299886869\H,0,9.8069298021,26.3675441326,9.0048387
 461\H,0,10.402460922,25.1804450936,10.1783588676\H,0,11.3096657608,26.
 6785856281,9.870363592\N,0,11.5119797341,29.3208815398,11.5808063595\C
 ,0,11.33113701,29.8481685631,12.9523655971\C,0,10.8180808199,28.808994
 2195,13.9566600938\O,0,11.5498975951,28.0662716706,14.5648290204\C,0,1
 0.5608181589,31.1737928405,12.9843381785\C,0,10.5825382855,31.90310064
 77,14.3377582998\C,0,11.9632208267,32.0876383377,14.9764458267\N,0,12.
 8929885516,32.7604229569,14.0644950217\C,0,14.2149865715,32.829960416,
 14.2469572417\N,0,14.7580083498,32.4134111439,15.4093298883\N,0,14.990
 7877076,33.2859097441,13.2634079398\O,0,9.4784201203,28.8636299557,14.
 1368279982\H,0,9.2400173187,28.0937618285,14.6888103511\H,0,12.3573534
 084,29.6962589107,11.1579648418\H,0,12.3569040559,30.0234457437,13.284
 0510293\H,0,9.5142452914,30.9973290043,12.7177659079\H,0,10.9926795418
 ,31.8091593786,12.2091780177\H,0,10.0985058155,32.8787179996,14.216861
 4674\H,0,9.9656239026,31.3588992525,15.0567098087\H,0,11.843494342,32.
 6728161499,15.8988905031\H,0,12.3877748724,31.1151313119,15.2558499869
 \H,0,12.5099871226,33.2476732896,13.2471806786\H,0,15.7595511054,32.35
 98999876,15.5221829546\H,0,14.1967166549,32.3096989601,16.241021235\H,
 0,14.6072487332,33.3606598544,12.3040798813\H,0,15.9688730462,33.47991
 51206,13.4201935231\\Version=ES64L-G16RevC.01\HF=-2054.0626949\RMSD=1.
 223e-09\Dipole=3.9247176,1.8887902,4.2201786\Quadrupole=-1132.2881998,
 2099.2406691,-966.9524693,1374.2508781,599.4536083,1636.5339263\PG=C01
  [X(C26H39N8O8)]\\@
 The archive entry for this job was punched.


 IT IS BY EATING THE LIGHT OF A STAR THAT WE EXIST, 
 IN THE FINAL ANALYSIS, 
 JUST AS IT IS BY PERCEIVING THE LIGHT OF STARS
 THAT WE DEFINE THE WORLD AROUND US.

                                    -- GILBERT GROSVENOR
 Job cpu time:       0 days  0 hours  6 minutes 59.4 seconds.
 Elapsed time:       0 days  0 hours  1 minutes 45.8 seconds.
 File lengths (MBytes):  RWF=    376 Int=      0 D2E=      0 Chk=     56 Scr=     16
 Normal termination of Gaussian 16 at Fri May 27 05:13:50 2022.
