 Entering Gaussian System, Link 0=/opt/software/Gaussian/g16-AVX2-C.01/g16/g16
 Input=charge-conf-962.com
 Output=charge-conf-962.log
 Initial command:
 /opt/software/Gaussian/g16-AVX2-C.01/g16/l1.exe "/mnt/gs18/scratch/users/kengmith/Gau-75641.inp" -scrdir="/mnt/gs18/scratch/users/kengmith/"
 Entering Link 1 = /opt/software/Gaussian/g16-AVX2-C.01/g16/l1.exe PID=     75692.
  
 Copyright (c) 1988-2019, Gaussian, Inc.  All Rights Reserved.
  
 This is part of the Gaussian(R) 16 program.  It is based on
 the Gaussian(R) 09 system (copyright 2009, Gaussian, Inc.),
 the Gaussian(R) 03 system (copyright 2003, Gaussian, Inc.),
 the Gaussian(R) 98 system (copyright 1998, Gaussian, Inc.),
 the Gaussian(R) 94 system (copyright 1995, Gaussian, Inc.),
 the Gaussian 92(TM) system (copyright 1992, Gaussian, Inc.),
 the Gaussian 90(TM) system (copyright 1990, Gaussian, Inc.),
 the Gaussian 88(TM) system (copyright 1988, Gaussian, Inc.),
 the Gaussian 86(TM) system (copyright 1986, Carnegie Mellon
 University), and the Gaussian 82(TM) system (copyright 1983,
 Carnegie Mellon University). Gaussian is a federally registered
 trademark of Gaussian, Inc.
  
 This software contains proprietary and confidential information,
 including trade secrets, belonging to Gaussian, Inc.
  
 This software is provided under written license and may be
 used, copied, transmitted, or stored only in accord with that
 written license.
  
 The following legend is applicable only to US Government
 contracts under FAR:
  
                    RESTRICTED RIGHTS LEGEND
  
 Use, reproduction and disclosure by the US Government is
 subject to restrictions as set forth in subparagraphs (a)
 and (c) of the Commercial Computer Software - Restricted
 Rights clause in FAR 52.227-19.
  
 Gaussian, Inc.
 340 Quinnipiac St., Bldg. 40, Wallingford CT 06492
  
  
 ---------------------------------------------------------------
 Warning -- This program may not be used in any manner that
 competes with the business of Gaussian, Inc. or will provide
 assistance to any competitor of Gaussian, Inc.  The licensee
 of this program is prohibited from giving any competitor of
 Gaussian, Inc. access to this program.  By using this program,
 the user acknowledges that Gaussian, Inc. is engaged in the
 business of creating and licensing software in the field of
 computational chemistry and represents and warrants to the
 licensee that it is not a competitor of Gaussian, Inc. and that
 it will not use this program in any manner prohibited above.
 ---------------------------------------------------------------
  

 Cite this work as:
 Gaussian 16, Revision C.01,
 M. J. Frisch, G. W. Trucks, H. B. Schlegel, G. E. Scuseria, 
 M. A. Robb, J. R. Cheeseman, G. Scalmani, V. Barone, 
 G. A. Petersson, H. Nakatsuji, X. Li, M. Caricato, A. V. Marenich, 
 J. Bloino, B. G. Janesko, R. Gomperts, B. Mennucci, H. P. Hratchian, 
 J. V. Ortiz, A. F. Izmaylov, J. L. Sonnenberg, D. Williams-Young, 
 F. Ding, F. Lipparini, F. Egidi, J. Goings, B. Peng, A. Petrone, 
 T. Henderson, D. Ranasinghe, V. G. Zakrzewski, J. Gao, N. Rega, 
 G. Zheng, W. Liang, M. Hada, M. Ehara, K. Toyota, R. Fukuda, 
 J. Hasegawa, M. Ishida, T. Nakajima, Y. Honda, O. Kitao, H. Nakai, 
 T. Vreven, K. Throssell, J. A. Montgomery, Jr., J. E. Peralta, 
 F. Ogliaro, M. J. Bearpark, J. J. Heyd, E. N. Brothers, K. N. Kudin, 
 V. N. Staroverov, T. A. Keith, R. Kobayashi, J. Normand, 
 K. Raghavachari, A. P. Rendell, J. C. Burant, S. S. Iyengar, 
 J. Tomasi, M. Cossi, J. M. Millam, M. Klene, C. Adamo, R. Cammi, 
 J. W. Ochterski, R. L. Martin, K. Morokuma, O. Farkas, 
 J. B. Foresman, and D. J. Fox, Gaussian, Inc., Wallingford CT, 2019.
 
 ******************************************
 Gaussian 16:  ES64L-G16RevC.01  3-Jul-2019
                27-May-2022 
 ******************************************
 %mem=8gb
 %nproc=4
 Will use up to    4 processors via shared memory.
 %chk=conf-962.chk
 ----------------------------------------------------------------------
 # B3LYP/6-31G* empiricaldispersion=gd3 guess=read geom=check nosymm in
 tegral(ultrafinegrid)
 ----------------------------------------------------------------------
 1/29=2,38=1,172=1/1;
 2/12=2,15=1,40=1/2;
 3/5=1,6=6,7=1,11=2,14=-4,25=1,30=1,74=-5,75=-5,116=-2,124=31/1,2,3;
 4/5=1/1;
 5/5=2,38=6/2;
 6/7=2,8=2,9=2,10=2,28=1/1;
 99/5=1,9=1/99;
 ------------------------------------------------------
 Candidate Structure: Conf:962 Charge calc in gas phase
 ------------------------------------------------------
 Structure from the checkpoint file:  "conf-962.chk"
 Charge =  1 Multiplicity = 1
 Redundant internal coordinates found in file.  (old form).
 N,0,11.9037299553,31.4527494948,11.6206521541
 C,0,12.4963362687,32.7750138747,11.8460983967
 C,0,12.5579222431,33.2601212332,13.3042676102
 O,0,13.3651237515,34.1508262941,13.5444773437
 C,0,11.763818305,33.8582236266,10.9952015768
 C,0,12.6965846018,34.5420563723,9.9953455854
 C,0,13.1937125442,33.6049444739,8.9215683135
 O,0,12.6272704316,32.5755154732,8.5541581705
 O,0,14.3275208727,34.02214647,8.3582802094
 H,0,14.5915622576,33.3806230349,7.670190451
 H,0,13.5599117441,32.792178277,11.5644685288
 H,0,10.927998965,33.3861652995,10.469851887
 H,0,11.341728348,34.632947654,11.642191328
 H,0,13.5547553018,34.9887513581,10.5065769041
 H,0,12.1860074108,35.365063115,9.4745312212
 H,0,12.226637378,31.1086384998,10.7168210823
 H,0,12.2502005827,30.7924375968,12.3131860105
 N,0,11.7761215496,32.7354595473,14.2995135975
 C,0,10.5074642581,32.0180010258,14.2718099995
 C,0,9.4783422045,32.8845803156,15.0318549873
 O,0,9.8577268639,33.6336009543,15.9214895222
 C,0,10.6356335818,30.6574894243,15.0283730471
 C,0,11.4551741477,29.6422568718,14.2983372328
 C,0,12.8053254845,29.4184272803,14.4261088773
 C,0,10.9928085808,28.7667573112,13.2483040857
 C,0,12.1229032749,28.0440246557,12.773393184
 C,0,9.7420721863,28.536547295,12.6511381455
 N,0,13.2139925488,28.469068148,13.5063284726
 C,0,12.0337045631,27.1189210277,11.727542553
 C,0,9.6470271634,27.6187484693,11.611427015
 C,0,10.7836555599,26.9186387779,11.1518264638
 H,0,11.8965235303,33.25373594,15.1689990907
 H,0,10.2214746501,31.8366359581,13.2374386628
 H,0,9.6319071381,30.2582916243,15.2134444347
 H,0,11.0643611451,30.8780482848,16.0121498103
 H,0,13.5147674956,29.8736968475,15.1031015051
 H,0,14.1381986156,28.0670184674,13.4621508937
 H,0,8.8558075016,29.0605356705,12.9950092436
 H,0,12.9065751907,26.5725101944,11.3812954645
 H,0,8.6812553903,27.42470834,11.1518524416
 H,0,10.6780319958,26.2000287336,10.3443378943
 N,0,8.141651188,32.7398859417,14.7617756381
 C,0,7.472043066,32.0241931545,13.6953099614
 C,0,6.3415941657,32.9197942342,13.1620746892
 O,0,5.7338476993,33.6230088702,13.9572479806
 C,0,6.8548026125,30.6912619165,14.2105704094
 C,0,5.7471277263,30.8345238976,15.2439236375
 O,0,6.4021686026,29.9984492612,13.0281987321
 H,0,6.0493201036,29.1321724748,13.2894190678
 H,0,7.5407748387,33.353507719,15.3053654205
 H,0,8.1889023701,31.7584697917,12.9262825908
 H,0,7.6862694043,30.1251621916,14.6477212171
 H,0,4.8827299714,31.364911514,14.8375566097
 H,0,6.1098203572,31.3832851441,16.1179666235
 H,0,5.4274596001,29.8429055784,15.5845493232
 N,0,5.886751478,32.8132142751,11.8616650897
 C,0,6.5311445946,32.5851450018,10.5594027539
 C,0,5.9847247498,31.339805522,9.8385654943
 O,0,6.1268634753,31.2176907169,8.6304834462
 C,0,8.080284167,32.5569954614,10.5252390303
 C,0,8.7546823464,31.1746758955,10.6651752786
 C,0,9.1397738999,30.489902273,9.3439574975
 N,0,9.9430757765,31.3598095237,8.474564359
 C,0,9.5608293645,31.8931378672,7.3129409884
 N,0,8.2828823388,31.9025604964,6.9182406212
 N,0,10.5062014127,32.4214753446,6.504383488
 O,0,5.3912284676,30.4063658978,10.5569506405
 H,0,5.5031502339,30.5796007727,11.5249847356
 H,0,5.0426229426,33.3736146133,11.7791445161
 H,0,6.2138548436,33.4222741861,9.9295189987
 H,0,8.4451654742,33.2491560368,11.291142702
 H,0,8.3820406309,33.008113514,9.5753179528
 H,0,9.6836890004,31.2789095941,11.2346640987
 H,0,8.121017079,30.4717211946,11.2134272987
 H,0,9.7429918153,29.6069064062,9.5779795672
 H,0,8.2721723025,30.1467766974,8.7809200833
 H,0,10.8801856972,31.6105807291,8.7850002342
 H,0,8.0596193303,32.0858936308,5.9504646376
 H,0,7.5023408913,31.6741800596,7.5456935127
 H,0,11.4676002456,32.4278661434,6.8293444615
 H,0,10.2444771136,33.1162808845,5.8197100646
 Recover connectivity data from disk.
                           ----------------------------
                           !    Current Parameters    !
                           ! (Angstroms and Degrees)  !
 --------------------------                            --------------------------
 ! Name  Definition              Value                                          !
 --------------------------------------------------------------------------------
 ! R1    R(1,2)                  1.4664                                         !
 ! R2    R(1,16)                 1.0196                                         !
 ! R3    R(1,17)                 1.0177                                         !
 ! R4    R(2,3)                  1.538                                          !
 ! R5    R(2,5)                  1.5601                                         !
 ! R6    R(2,11)                 1.1004                                         !
 ! R7    R(3,4)                  1.2258                                         !
 ! R8    R(3,18)                 1.37                                           !
 ! R9    R(5,6)                  1.5289                                         !
 ! R10   R(5,12)                 1.0943                                         !
 ! R11   R(5,13)                 1.0941                                         !
 ! R12   R(6,7)                  1.5094                                         !
 ! R13   R(6,14)                 1.0942                                         !
 ! R14   R(6,15)                 1.0997                                         !
 ! R15   R(7,8)                  1.2311                                         !
 ! R16   R(7,9)                  1.333                                          !
 ! R17   R(9,10)                 0.9771                                         !
 ! R18   R(18,19)                1.4577                                         !
 ! R19   R(18,32)                1.0194                                         !
 ! R20   R(19,20)                1.5452                                         !
 ! R21   R(19,22)                1.562                                          !
 ! R22   R(19,33)                1.0884                                         !
 ! R23   R(20,21)                1.2233                                         !
 ! R24   R(20,42)                1.3714                                         !
 ! R25   R(22,23)                1.4951                                         !
 ! R26   R(22,34)                1.0959                                         !
 ! R27   R(22,35)                1.0956                                         !
 ! R28   R(23,24)                1.3745                                         !
 ! R29   R(23,25)                1.4432                                         !
 ! R30   R(24,28)                1.3836                                         !
 ! R31   R(24,36)                1.0812                                         !
 ! R32   R(25,26)                1.423                                          !
 ! R33   R(25,27)                1.405                                          !
 ! R34   R(26,28)                1.3814                                         !
 ! R35   R(26,29)                1.3991                                         !
 ! R36   R(27,30)                1.3901                                         !
 ! R37   R(27,38)                1.0855                                         !
 ! R38   R(28,37)                1.0088                                         !
 ! R39   R(29,31)                1.3907                                         !
 ! R40   R(29,39)                1.0864                                         !
 ! R41   R(30,31)                1.4118                                         !
 ! R42   R(30,40)                1.087                                          !
 ! R43   R(31,41)                1.0861                                         !
 ! R44   R(42,43)                1.4484                                         !
 ! R45   R(42,50)                1.0164                                         !
 ! R46   R(43,44)                1.5376                                         !
 ! R47   R(43,46)                1.5567                                         !
 ! R48   R(43,51)                1.0844                                         !
 ! R49   R(44,45)                1.2232                                         !
 ! R50   R(44,56)                1.3818                                         !
 ! R51   R(46,47)                1.5216                                         !
 ! R52   R(46,48)                1.4432                                         !
 ! R53   R(46,52)                1.0968                                         !
 ! R54   R(47,53)                1.0925                                         !
 ! R55   R(47,54)                1.0939                                         !
 ! R56   R(47,55)                1.0961                                         !
 ! R57   R(48,49)                0.9712                                         !
 ! R58   R(56,57)                1.4708                                         !
 ! R59   R(56,69)                1.0166                                         !
 ! R60   R(57,58)                1.5392                                         !
 ! R61   R(57,60)                1.5498                                         !
 ! R62   R(57,70)                1.0946                                         !
 ! R63   R(58,59)                1.2225                                         !
 ! R64   R(58,67)                1.3189                                         !
 ! R65   R(60,61)                1.5444                                         !
 ! R66   R(60,71)                1.0949                                         !
 ! R67   R(60,72)                1.094                                          !
 ! R68   R(61,62)                1.5371                                         !
 ! R69   R(61,73)                1.0946                                         !
 ! R70   R(61,74)                1.0937                                         !
 ! R71   R(62,63)                1.469                                          !
 ! R72   R(62,75)                1.0947                                         !
 ! R73   R(62,76)                1.0897                                         !
 ! R74   R(63,64)                1.3341                                         !
 ! R75   R(63,77)                1.0185                                         !
 ! R76   R(64,65)                1.3375                                         !
 ! R77   R(64,66)                1.3515                                         !
 ! R78   R(65,78)                1.01                                           !
 ! R79   R(65,79)                1.0272                                         !
 ! R80   R(66,80)                1.0149                                         !
 ! R81   R(66,81)                1.01                                           !
 ! R82   R(67,68)                0.9898                                         !
 ! A1    A(2,1,16)             108.217                                          !
 ! A2    A(2,1,17)             110.051                                          !
 ! A3    A(16,1,17)            106.0475                                         !
 ! A4    A(1,2,3)              116.5101                                         !
 ! A5    A(1,2,5)              110.6382                                         !
 ! A6    A(1,2,11)             111.4275                                         !
 ! A7    A(3,2,5)              108.4759                                         !
 ! A8    A(3,2,11)             101.4806                                         !
 ! A9    A(5,2,11)             107.6624                                         !
 ! A10   A(2,3,4)              116.1899                                         !
 ! A11   A(2,3,18)             123.0315                                         !
 ! A12   A(4,3,18)             120.7758                                         !
 ! A13   A(2,5,6)              112.3823                                         !
 ! A14   A(2,5,12)             108.7208                                         !
 ! A15   A(2,5,13)             110.5038                                         !
 ! A16   A(6,5,12)             110.1811                                         !
 ! A17   A(6,5,13)             107.7822                                         !
 ! A18   A(12,5,13)            107.14                                           !
 ! A19   A(5,6,7)              112.8604                                         !
 ! A20   A(5,6,14)             110.8261                                         !
 ! A21   A(5,6,15)             111.1749                                         !
 ! A22   A(7,6,14)             109.1177                                         !
 ! A23   A(7,6,15)             106.2988                                         !
 ! A24   A(14,6,15)            106.2534                                         !
 ! A25   A(6,7,8)              125.4449                                         !
 ! A26   A(6,7,9)              112.7331                                         !
 ! A27   A(8,7,9)              121.8004                                         !
 ! A28   A(7,9,10)             108.7803                                         !
 ! A29   A(3,18,19)            132.1674                                         !
 ! A30   A(3,18,32)            110.948                                          !
 ! A31   A(19,18,32)           111.6686                                         !
 ! A32   A(18,19,20)           107.1127                                         !
 ! A33   A(18,19,22)           110.3694                                         !
 ! A34   A(18,19,33)           109.1932                                         !
 ! A35   A(20,19,22)           107.7511                                         !
 ! A36   A(20,19,33)           112.6998                                         !
 ! A37   A(22,19,33)           109.6782                                         !
 ! A38   A(19,20,21)           119.6399                                         !
 ! A39   A(19,20,42)           119.5461                                         !
 ! A40   A(21,20,42)           120.6725                                         !
 ! A41   A(19,22,23)           113.5737                                         !
 ! A42   A(19,22,34)           108.8996                                         !
 ! A43   A(19,22,35)           106.9594                                         !
 ! A44   A(23,22,34)           109.7032                                         !
 ! A45   A(23,22,35)           111.1407                                         !
 ! A46   A(34,22,35)           106.2659                                         !
 ! A47   A(22,23,24)           127.1295                                         !
 ! A48   A(22,23,25)           126.2693                                         !
 ! A49   A(24,23,25)           106.4715                                         !
 ! A50   A(23,24,28)           109.8811                                         !
 ! A51   A(23,24,36)           129.3596                                         !
 ! A52   A(28,24,36)           120.7566                                         !
 ! A53   A(23,25,26)           107.2469                                         !
 ! A54   A(23,25,27)           133.9354                                         !
 ! A55   A(26,25,27)           118.8097                                         !
 ! A56   A(25,26,28)           107.092                                          !
 ! A57   A(25,26,29)           122.3201                                         !
 ! A58   A(28,26,29)           130.5711                                         !
 ! A59   A(25,27,30)           119.1404                                         !
 ! A60   A(25,27,38)           120.8702                                         !
 ! A61   A(30,27,38)           119.9886                                         !
 ! A62   A(24,28,26)           109.3016                                         !
 ! A63   A(24,28,37)           124.9707                                         !
 ! A64   A(26,28,37)           125.2901                                         !
 ! A65   A(26,29,31)           117.5135                                         !
 ! A66   A(26,29,39)           121.3018                                         !
 ! A67   A(31,29,39)           121.1837                                         !
 ! A68   A(27,30,31)           121.0532                                         !
 ! A69   A(27,30,40)           119.6583                                         !
 ! A70   A(31,30,40)           119.2832                                         !
 ! A71   A(29,31,30)           121.1612                                         !
 ! A72   A(29,31,41)           119.3714                                         !
 ! A73   A(30,31,41)           119.4611                                         !
 ! A74   A(20,42,43)           130.3727                                         !
 ! A75   A(20,42,50)           114.0295                                         !
 ! A76   A(43,42,50)           114.7581                                         !
 ! A77   A(42,43,44)           107.9034                                         !
 ! A78   A(42,43,46)           111.2658                                         !
 ! A79   A(42,43,51)           109.7326                                         !
 ! A80   A(44,43,46)           108.7848                                         !
 ! A81   A(44,43,51)           112.5072                                         !
 ! A82   A(46,43,51)           106.6809                                         !
 ! A83   A(43,44,45)           118.3394                                         !
 ! A84   A(43,44,56)           121.5634                                         !
 ! A85   A(45,44,56)           119.5115                                         !
 ! A86   A(43,46,47)           115.6467                                         !
 ! A87   A(43,46,48)           105.3214                                         !
 ! A88   A(43,46,52)           105.8607                                         !
 ! A89   A(47,46,48)           111.9171                                         !
 ! A90   A(47,46,52)           109.2558                                         !
 ! A91   A(48,46,52)           108.453                                          !
 ! A92   A(46,47,53)           111.658                                          !
 ! A93   A(46,47,54)           110.3952                                         !
 ! A94   A(46,47,55)           109.7648                                         !
 ! A95   A(53,47,54)           108.4199                                         !
 ! A96   A(53,47,55)           108.9065                                         !
 ! A97   A(54,47,55)           107.5908                                         !
 ! A98   A(46,48,49)           108.771                                          !
 ! A99   A(44,56,57)           134.5099                                         !
 ! A100  A(44,56,69)           107.8912                                         !
 ! A101  A(57,56,69)           112.1742                                         !
 ! A102  A(56,57,58)           112.6187                                         !
 ! A103  A(56,57,60)           117.4059                                         !
 ! A104  A(56,57,70)           105.3026                                         !
 ! A105  A(58,57,60)           109.2593                                         !
 ! A106  A(58,57,70)           104.2629                                         !
 ! A107  A(60,57,70)           106.9147                                         !
 ! A108  A(57,58,59)           120.1547                                         !
 ! A109  A(57,58,67)           118.5075                                         !
 ! A110  A(59,58,67)           121.3225                                         !
 ! A111  A(57,60,61)           116.792                                          !
 ! A112  A(57,60,71)           107.8312                                         !
 ! A113  A(57,60,72)           106.6998                                         !
 ! A114  A(61,60,71)           110.9106                                         !
 ! A115  A(61,60,72)           109.1048                                         !
 ! A116  A(71,60,72)           104.7607                                         !
 ! A117  A(60,61,62)           115.4831                                         !
 ! A118  A(60,61,73)           109.4211                                         !
 ! A119  A(60,61,74)           111.573                                          !
 ! A120  A(62,61,73)           106.0797                                         !
 ! A121  A(62,61,74)           106.8386                                         !
 ! A122  A(73,61,74)           106.9843                                         !
 ! A123  A(61,62,63)           112.4507                                         !
 ! A124  A(61,62,75)           108.2786                                         !
 ! A125  A(61,62,76)           112.6384                                         !
 ! A126  A(63,62,75)           107.6295                                         !
 ! A127  A(63,62,76)           108.4247                                         !
 ! A128  A(75,62,76)           107.1694                                         !
 ! A129  A(62,63,64)           126.5384                                         !
 ! A130  A(62,63,77)           117.9397                                         !
 ! A131  A(64,63,77)           115.5029                                         !
 ! A132  A(63,64,65)           122.2421                                         !
 ! A133  A(63,64,66)           118.4738                                         !
 ! A134  A(65,64,66)           119.2763                                         !
 ! A135  A(64,65,78)           119.6863                                         !
 ! A136  A(64,65,79)           122.9703                                         !
 ! A137  A(78,65,79)           117.2393                                         !
 ! A138  A(64,66,80)           118.2642                                         !
 ! A139  A(64,66,81)           119.5533                                         !
 ! A140  A(80,66,81)           117.2731                                         !
 ! A141  A(58,67,68)           110.9747                                         !
 ! D1    D(16,1,2,3)          -159.2149                                         !
 ! D2    D(16,1,2,5)            76.2929                                         !
 ! D3    D(16,1,2,11)          -43.4492                                         !
 ! D4    D(17,1,2,3)           -43.7526                                         !
 ! D5    D(17,1,2,5)          -168.2448                                         !
 ! D6    D(17,1,2,11)           72.0131                                         !
 ! D7    D(1,2,3,4)            159.9728                                         !
 ! D8    D(1,2,3,18)           -19.4195                                         !
 ! D9    D(5,2,3,4)            -74.4395                                         !
 ! D10   D(5,2,3,18)           106.1681                                         !
 ! D11   D(11,2,3,4)            38.7821                                         !
 ! D12   D(11,2,3,18)         -140.6103                                         !
 ! D13   D(1,2,5,6)           -118.6671                                         !
 ! D14   D(1,2,5,12)             3.5748                                         !
 ! D15   D(1,2,5,13)           120.8939                                         !
 ! D16   D(3,2,5,6)            112.3765                                         !
 ! D17   D(3,2,5,12)          -125.3816                                         !
 ! D18   D(3,2,5,13)            -8.0625                                         !
 ! D19   D(11,2,5,6)             3.3124                                         !
 ! D20   D(11,2,5,12)          125.5543                                         !
 ! D21   D(11,2,5,13)         -117.1266                                         !
 ! D22   D(2,3,18,19)          -22.5135                                         !
 ! D23   D(2,3,18,32)         -174.1745                                         !
 ! D24   D(4,3,18,19)          158.1211                                         !
 ! D25   D(4,3,18,32)            6.4602                                         !
 ! D26   D(2,5,6,7)             66.0674                                         !
 ! D27   D(2,5,6,14)           -56.6601                                         !
 ! D28   D(2,5,6,15)          -174.596                                          !
 ! D29   D(12,5,6,7)           -55.3435                                         !
 ! D30   D(12,5,6,14)         -178.0711                                         !
 ! D31   D(12,5,6,15)           63.9931                                         !
 ! D32   D(13,5,6,7)          -171.9346                                         !
 ! D33   D(13,5,6,14)           65.3379                                         !
 ! D34   D(13,5,6,15)          -52.598                                          !
 ! D35   D(5,6,7,8)             24.1746                                         !
 ! D36   D(5,6,7,9)           -157.4978                                         !
 ! D37   D(14,6,7,8)           147.8509                                         !
 ! D38   D(14,6,7,9)           -33.8216                                         !
 ! D39   D(15,6,7,8)           -97.9456                                         !
 ! D40   D(15,6,7,9)            80.382                                          !
 ! D41   D(6,7,9,10)          -179.5073                                         !
 ! D42   D(8,7,9,10)            -1.1104                                         !
 ! D43   D(3,18,19,20)        -117.3154                                         !
 ! D44   D(3,18,19,22)         125.6456                                         !
 ! D45   D(3,18,19,33)           5.0094                                         !
 ! D46   D(32,18,19,20)         34.1935                                         !
 ! D47   D(32,18,19,22)        -82.8455                                         !
 ! D48   D(32,18,19,33)        156.5183                                         !
 ! D49   D(18,19,20,21)        -28.4127                                         !
 ! D50   D(18,19,20,42)        155.8814                                         !
 ! D51   D(22,19,20,21)         90.3355                                         !
 ! D52   D(22,19,20,42)        -85.3704                                         !
 ! D53   D(33,19,20,21)       -148.5222                                         !
 ! D54   D(33,19,20,42)         35.772                                          !
 ! D55   D(18,19,22,23)        -71.4907                                         !
 ! D56   D(18,19,22,34)        165.9483                                         !
 ! D57   D(18,19,22,35)         51.4967                                         !
 ! D58   D(20,19,22,23)        171.8664                                         !
 ! D59   D(20,19,22,34)         49.3054                                         !
 ! D60   D(20,19,22,35)        -65.1462                                         !
 ! D61   D(33,19,22,23)         48.8549                                         !
 ! D62   D(33,19,22,34)        -73.7062                                         !
 ! D63   D(33,19,22,35)        171.8422                                         !
 ! D64   D(19,20,42,43)        -10.9106                                         !
 ! D65   D(19,20,42,50)       -179.7055                                         !
 ! D66   D(21,20,42,43)        173.4288                                         !
 ! D67   D(21,20,42,50)          4.6339                                         !
 ! D68   D(19,22,23,24)         92.0435                                         !
 ! D69   D(19,22,23,25)        -83.2468                                         !
 ! D70   D(34,22,23,24)       -145.84                                           !
 ! D71   D(34,22,23,25)         38.8697                                         !
 ! D72   D(35,22,23,24)        -28.6167                                         !
 ! D73   D(35,22,23,25)        156.093                                          !
 ! D74   D(22,23,24,28)       -175.2462                                         !
 ! D75   D(22,23,24,36)          4.1625                                         !
 ! D76   D(25,23,24,28)          0.7954                                         !
 ! D77   D(25,23,24,36)       -179.7959                                         !
 ! D78   D(22,23,25,26)        175.6288                                         !
 ! D79   D(22,23,25,27)         -3.2877                                         !
 ! D80   D(24,23,25,26)         -0.4569                                         !
 ! D81   D(24,23,25,27)       -179.3735                                         !
 ! D82   D(23,24,28,26)         -0.85                                           !
 ! D83   D(23,24,28,37)       -173.5801                                         !
 ! D84   D(36,24,28,26)        179.682                                          !
 ! D85   D(36,24,28,37)          6.9519                                         !
 ! D86   D(23,25,26,28)         -0.0438                                         !
 ! D87   D(23,25,26,29)       -178.6967                                         !
 ! D88   D(27,25,26,28)        179.0658                                         !
 ! D89   D(27,25,26,29)          0.4129                                         !
 ! D90   D(23,25,27,30)        178.4106                                         !
 ! D91   D(23,25,27,38)         -1.92                                           !
 ! D92   D(26,25,27,30)         -0.4085                                         !
 ! D93   D(26,25,27,38)        179.2609                                         !
 ! D94   D(25,26,28,24)          0.5331                                         !
 ! D95   D(25,26,28,37)        173.2344                                         !
 ! D96   D(29,26,28,24)        179.0344                                         !
 ! D97   D(29,26,28,37)         -8.2643                                         !
 ! D98   D(25,26,29,31)         -0.0518                                         !
 ! D99   D(25,26,29,39)       -179.6933                                         !
 ! D100  D(28,26,29,31)       -178.3566                                         !
 ! D101  D(28,26,29,39)          2.0019                                         !
 ! D102  D(25,27,30,31)          0.0625                                         !
 ! D103  D(25,27,30,40)        179.2186                                         !
 ! D104  D(38,27,30,31)       -179.6098                                         !
 ! D105  D(38,27,30,40)         -0.4538                                         !
 ! D106  D(26,29,31,30)         -0.3083                                         !
 ! D107  D(26,29,31,41)       -179.3918                                         !
 ! D108  D(39,29,31,30)        179.3337                                         !
 ! D109  D(39,29,31,41)          0.2502                                         !
 ! D110  D(27,30,31,29)          0.3101                                         !
 ! D111  D(27,30,31,41)        179.3928                                         !
 ! D112  D(40,30,31,29)       -178.8491                                         !
 ! D113  D(40,30,31,41)          0.2337                                         !
 ! D114  D(20,42,43,44)       -136.3218                                         !
 ! D115  D(20,42,43,46)        104.4125                                         !
 ! D116  D(20,42,43,51)        -13.4164                                         !
 ! D117  D(50,42,43,44)         32.4074                                         !
 ! D118  D(50,42,43,46)        -86.8582                                         !
 ! D119  D(50,42,43,51)        155.3129                                         !
 ! D120  D(42,43,44,45)        -35.8393                                         !
 ! D121  D(42,43,44,56)        152.9817                                         !
 ! D122  D(46,43,44,45)         84.9898                                         !
 ! D123  D(46,43,44,56)        -86.1893                                         !
 ! D124  D(51,43,44,45)       -157.0326                                         !
 ! D125  D(51,43,44,56)         31.7883                                         !
 ! D126  D(42,43,46,47)         64.0969                                         !
 ! D127  D(42,43,46,48)       -171.7882                                         !
 ! D128  D(42,43,46,52)        -57.0154                                         !
 ! D129  D(44,43,46,47)        -54.6416                                         !
 ! D130  D(44,43,46,48)         69.4734                                         !
 ! D131  D(44,43,46,52)       -175.7539                                         !
 ! D132  D(51,43,46,47)       -176.2439                                         !
 ! D133  D(51,43,46,48)        -52.1289                                         !
 ! D134  D(51,43,46,52)         62.6438                                         !
 ! D135  D(43,44,56,57)        -38.9844                                         !
 ! D136  D(43,44,56,69)        170.149                                          !
 ! D137  D(45,44,56,57)        149.9376                                         !
 ! D138  D(45,44,56,69)         -0.9289                                         !
 ! D139  D(43,46,47,53)         62.6572                                         !
 ! D140  D(43,46,47,54)        -58.0307                                         !
 ! D141  D(43,46,47,55)       -176.469                                          !
 ! D142  D(48,46,47,53)        -57.9481                                         !
 ! D143  D(48,46,47,54)       -178.636                                          !
 ! D144  D(48,46,47,55)         62.9257                                         !
 ! D145  D(52,46,47,53)       -178.0776                                         !
 ! D146  D(52,46,47,54)         61.2346                                         !
 ! D147  D(52,46,47,55)        -57.2037                                         !
 ! D148  D(43,46,48,49)        176.9416                                         !
 ! D149  D(47,46,48,49)        -56.6196                                         !
 ! D150  D(52,46,48,49)         63.9777                                         !
 ! D151  D(44,56,57,58)        122.161                                          !
 ! D152  D(44,56,57,60)         -6.0474                                         !
 ! D153  D(44,56,57,70)       -124.8401                                         !
 ! D154  D(69,56,57,58)        -87.8591                                         !
 ! D155  D(69,56,57,60)        143.9325                                         !
 ! D156  D(69,56,57,70)         25.1397                                         !
 ! D157  D(56,57,58,59)        159.6197                                         !
 ! D158  D(56,57,58,67)        -21.786                                          !
 ! D159  D(60,57,58,59)        -68.0208                                         !
 ! D160  D(60,57,58,67)        110.5735                                         !
 ! D161  D(70,57,58,59)         45.9843                                         !
 ! D162  D(70,57,58,67)       -135.4214                                         !
 ! D163  D(56,57,60,61)         93.0677                                         !
 ! D164  D(56,57,60,71)        -32.5545                                         !
 ! D165  D(56,57,60,72)       -144.6361                                         !
 ! D166  D(58,57,60,61)        -36.7283                                         !
 ! D167  D(58,57,60,71)       -162.3505                                         !
 ! D168  D(58,57,60,72)         85.5679                                         !
 ! D169  D(70,57,60,61)       -149.002                                          !
 ! D170  D(70,57,60,71)         85.3758                                         !
 ! D171  D(70,57,60,72)        -26.7058                                         !
 ! D172  D(57,58,67,68)         -8.8995                                         !
 ! D173  D(59,58,67,68)        169.6776                                         !
 ! D174  D(57,60,61,62)         95.9498                                         !
 ! D175  D(57,60,61,73)       -144.4877                                         !
 ! D176  D(57,60,61,74)        -26.2933                                         !
 ! D177  D(71,60,61,62)       -139.9836                                         !
 ! D178  D(71,60,61,73)        -20.421                                          !
 ! D179  D(71,60,61,74)         97.7734                                         !
 ! D180  D(72,60,61,62)        -25.0868                                         !
 ! D181  D(72,60,61,73)         94.4758                                         !
 ! D182  D(72,60,61,74)       -147.3299                                         !
 ! D183  D(60,61,62,63)         52.3884                                         !
 ! D184  D(60,61,62,75)        171.178                                          !
 ! D185  D(60,61,62,76)        -70.4895                                         !
 ! D186  D(73,61,62,63)        -68.9924                                         !
 ! D187  D(73,61,62,75)         49.7971                                         !
 ! D188  D(73,61,62,76)        168.1297                                         !
 ! D189  D(74,61,62,63)        177.1251                                         !
 ! D190  D(74,61,62,75)        -64.0853                                         !
 ! D191  D(74,61,62,76)         54.2472                                         !
 ! D192  D(61,62,63,64)       -111.4178                                         !
 ! D193  D(61,62,63,77)         66.9191                                         !
 ! D194  D(75,62,63,64)        129.4129                                         !
 ! D195  D(75,62,63,77)        -52.2502                                         !
 ! D196  D(76,62,63,64)         13.7964                                         !
 ! D197  D(76,62,63,77)       -167.8667                                         !
 ! D198  D(62,63,64,65)         13.3198                                         !
 ! D199  D(62,63,64,66)       -165.6503                                         !
 ! D200  D(77,63,64,65)       -165.0523                                         !
 ! D201  D(77,63,64,66)         15.9775                                         !
 ! D202  D(63,64,65,78)       -163.908                                          !
 ! D203  D(63,64,65,79)         12.2776                                         !
 ! D204  D(66,64,65,78)         15.0541                                         !
 ! D205  D(66,64,65,79)       -168.7602                                         !
 ! D206  D(63,64,66,80)         -2.5489                                         !
 ! D207  D(63,64,66,81)       -157.0925                                         !
 ! D208  D(65,64,66,80)        178.4497                                         !
 ! D209  D(65,64,66,81)         23.9061                                         !
 --------------------------------------------------------------------------------
 Symmetry turned off by external request.
 Stoichiometry    C26H39N8O8(1+)
 Framework group  C1[X(C26H39N8O8)]
 Deg. of freedom   237
 Full point group                 C1      NOp   1
                          Input orientation:                          
 ---------------------------------------------------------------------
 Center     Atomic      Atomic             Coordinates (Angstroms)
 Number     Number       Type             X           Y           Z
 ---------------------------------------------------------------------
      1          7           0       11.903730   31.452749   11.620652
      2          6           0       12.496336   32.775014   11.846098
      3          6           0       12.557922   33.260121   13.304268
      4          8           0       13.365124   34.150826   13.544477
      5          6           0       11.763818   33.858224   10.995202
      6          6           0       12.696585   34.542056    9.995346
      7          6           0       13.193713   33.604944    8.921568
      8          8           0       12.627270   32.575515    8.554158
      9          8           0       14.327521   34.022146    8.358280
     10          1           0       14.591562   33.380623    7.670190
     11          1           0       13.559912   32.792178   11.564469
     12          1           0       10.927999   33.386165   10.469852
     13          1           0       11.341728   34.632948   11.642191
     14          1           0       13.554755   34.988751   10.506577
     15          1           0       12.186007   35.365063    9.474531
     16          1           0       12.226637   31.108638   10.716821
     17          1           0       12.250201   30.792438   12.313186
     18          7           0       11.776122   32.735460   14.299514
     19          6           0       10.507464   32.018001   14.271810
     20          6           0        9.478342   32.884580   15.031855
     21          8           0        9.857727   33.633601   15.921490
     22          6           0       10.635634   30.657489   15.028373
     23          6           0       11.455174   29.642257   14.298337
     24          6           0       12.805325   29.418427   14.426109
     25          6           0       10.992809   28.766757   13.248304
     26          6           0       12.122903   28.044025   12.773393
     27          6           0        9.742072   28.536547   12.651138
     28          7           0       13.213993   28.469068   13.506328
     29          6           0       12.033705   27.118921   11.727543
     30          6           0        9.647027   27.618748   11.611427
     31          6           0       10.783656   26.918639   11.151826
     32          1           0       11.896524   33.253736   15.168999
     33          1           0       10.221475   31.836636   13.237439
     34          1           0        9.631907   30.258292   15.213444
     35          1           0       11.064361   30.878048   16.012150
     36          1           0       13.514767   29.873697   15.103102
     37          1           0       14.138199   28.067018   13.462151
     38          1           0        8.855808   29.060536   12.995009
     39          1           0       12.906575   26.572510   11.381295
     40          1           0        8.681255   27.424708   11.151852
     41          1           0       10.678032   26.200029   10.344338
     42          7           0        8.141651   32.739886   14.761776
     43          6           0        7.472043   32.024193   13.695310
     44          6           0        6.341594   32.919794   13.162075
     45          8           0        5.733848   33.623009   13.957248
     46          6           0        6.854803   30.691262   14.210570
     47          6           0        5.747128   30.834524   15.243924
     48          8           0        6.402169   29.998449   13.028199
     49          1           0        6.049320   29.132172   13.289419
     50          1           0        7.540775   33.353508   15.305365
     51          1           0        8.188902   31.758470   12.926283
     52          1           0        7.686269   30.125162   14.647721
     53          1           0        4.882730   31.364912   14.837557
     54          1           0        6.109820   31.383285   16.117967
     55          1           0        5.427460   29.842906   15.584549
     56          7           0        5.886751   32.813214   11.861665
     57          6           0        6.531145   32.585145   10.559403
     58          6           0        5.984725   31.339806    9.838565
     59          8           0        6.126863   31.217691    8.630483
     60          6           0        8.080284   32.556995   10.525239
     61          6           0        8.754682   31.174676   10.665175
     62          6           0        9.139774   30.489902    9.343957
     63          7           0        9.943076   31.359810    8.474564
     64          6           0        9.560829   31.893138    7.312941
     65          7           0        8.282882   31.902560    6.918241
     66          7           0       10.506201   32.421475    6.504383
     67          8           0        5.391228   30.406366   10.556951
     68          1           0        5.503150   30.579601   11.524985
     69          1           0        5.042623   33.373615   11.779145
     70          1           0        6.213855   33.422274    9.929519
     71          1           0        8.445165   33.249156   11.291143
     72          1           0        8.382041   33.008114    9.575318
     73          1           0        9.683689   31.278910   11.234664
     74          1           0        8.121017   30.471721   11.213427
     75          1           0        9.742992   29.606906    9.577980
     76          1           0        8.272172   30.146777    8.780920
     77          1           0       10.880186   31.610581    8.785000
     78          1           0        8.059619   32.085894    5.950465
     79          1           0        7.502341   31.674180    7.545694
     80          1           0       11.467600   32.427866    6.829344
     81          1           0       10.244477   33.116281    5.819710
 ---------------------------------------------------------------------
 Rotational constants (GHZ):           0.0846865           0.0773563           0.0631918
 Standard basis: 6-31G(d) (6D, 7F)
   708 basis functions,  1332 primitive gaussians,   708 cartesian basis functions
   157 alpha electrons      157 beta electrons
       nuclear repulsion energy      5712.7930958553 Hartrees.
 NAtoms=   81 NActive=   81 NUniq=   81 SFac= 1.00D+00 NAtFMM=   60 NAOKFM=T Big=T
 Integral buffers will be    131072 words long.
 Raffenetti 2 integral format.
 Two-electron integral symmetry is turned off.
 Nuclear repulsion after empirical dispersion term =     5712.6637361485 Hartrees.
 One-electron integrals computed using PRISM.
 NBasis=   708 RedAO= T EigKep=  3.41D-04  NBF=   708
 NBsUse=   708 1.00D-06 EigRej= -1.00D+00 NBFU=   708
 Initial guess from the checkpoint file:  "conf-962.chk"
 B after Tr=     0.000000    0.000000    0.000000
         Rot=    1.000000    0.000000    0.000000    0.000000 Ang=   0.00 deg.
 Requested convergence on RMS density matrix=1.00D-08 within 128 cycles.
 Requested convergence on MAX density matrix=1.00D-06.
 Requested convergence on             energy=1.00D-06.
 No special actions if energy rises.
 SCF Done:  E(RB3LYP) =  -2054.05339546     A.U. after    1 cycles
            NFock=  1  Conv=0.74D-08     -V/T= 2.0093

 **********************************************************************

            Population analysis using the SCF Density.

 **********************************************************************

 Alpha  occ. eigenvalues --  -19.32545 -19.29773 -19.28418 -19.27956 -19.25130
 Alpha  occ. eigenvalues --  -19.22954 -19.20337 -19.18707 -14.50336 -14.50328
 Alpha  occ. eigenvalues --  -14.49694 -14.47664 -14.46779 -14.45398 -14.43609
 Alpha  occ. eigenvalues --  -14.41860 -10.46820 -10.45641 -10.43465 -10.40444
 Alpha  occ. eigenvalues --  -10.37960 -10.36812 -10.36451 -10.35842 -10.34859
 Alpha  occ. eigenvalues --  -10.34160 -10.32697 -10.31988 -10.31713 -10.31185
 Alpha  occ. eigenvalues --  -10.30727 -10.30679 -10.29660 -10.29313 -10.28542
 Alpha  occ. eigenvalues --  -10.27641 -10.27496 -10.27419 -10.27208 -10.27186
 Alpha  occ. eigenvalues --  -10.27037 -10.26993  -1.23891  -1.21387  -1.15583
 Alpha  occ. eigenvalues --   -1.15319  -1.14762  -1.14546  -1.12858  -1.12671
 Alpha  occ. eigenvalues --   -1.10954  -1.06650  -1.04566  -1.03675  -1.03157
 Alpha  occ. eigenvalues --   -1.02095  -1.00386  -0.98699  -0.92641  -0.91749
 Alpha  occ. eigenvalues --   -0.90553  -0.89285  -0.88396  -0.86600  -0.84479
 Alpha  occ. eigenvalues --   -0.82332  -0.82237  -0.81895  -0.80622  -0.79934
 Alpha  occ. eigenvalues --   -0.77386  -0.75903  -0.75137  -0.73884  -0.72979
 Alpha  occ. eigenvalues --   -0.72469  -0.71959  -0.70929  -0.70375  -0.69553
 Alpha  occ. eigenvalues --   -0.68811  -0.68093  -0.67614  -0.66180  -0.65404
 Alpha  occ. eigenvalues --   -0.65009  -0.64775  -0.63743  -0.63452  -0.62516
 Alpha  occ. eigenvalues --   -0.62336  -0.61764  -0.61318  -0.60639  -0.60064
 Alpha  occ. eigenvalues --   -0.59387  -0.58476  -0.58270  -0.58167  -0.57354
 Alpha  occ. eigenvalues --   -0.57275  -0.56995  -0.56524  -0.56249  -0.55980
 Alpha  occ. eigenvalues --   -0.55561  -0.55209  -0.54568  -0.54242  -0.53724
 Alpha  occ. eigenvalues --   -0.53298  -0.53004  -0.52673  -0.52274  -0.51974
 Alpha  occ. eigenvalues --   -0.51850  -0.51409  -0.50727  -0.50252  -0.50028
 Alpha  occ. eigenvalues --   -0.49699  -0.49476  -0.49232  -0.48465  -0.48228
 Alpha  occ. eigenvalues --   -0.47760  -0.47526  -0.47123  -0.46887  -0.46664
 Alpha  occ. eigenvalues --   -0.46292  -0.46219  -0.45950  -0.45719  -0.45257
 Alpha  occ. eigenvalues --   -0.44601  -0.44482  -0.43798  -0.43250  -0.42181
 Alpha  occ. eigenvalues --   -0.42141  -0.41916  -0.41607  -0.41348  -0.40550
 Alpha  occ. eigenvalues --   -0.40134  -0.39243  -0.37344  -0.36365  -0.36016
 Alpha  occ. eigenvalues --   -0.34745  -0.34511  -0.34207  -0.33313  -0.32169
 Alpha  occ. eigenvalues --   -0.31118  -0.29101
 Alpha virt. eigenvalues --   -0.12815  -0.11176  -0.10946  -0.10294  -0.09969
 Alpha virt. eigenvalues --   -0.07085  -0.06424  -0.06158  -0.05891  -0.05079
 Alpha virt. eigenvalues --   -0.04228  -0.03466  -0.03145  -0.02479  -0.01806
 Alpha virt. eigenvalues --   -0.01164  -0.00129  -0.00053   0.00360   0.01104
 Alpha virt. eigenvalues --    0.01347   0.01490   0.02166   0.02874   0.02957
 Alpha virt. eigenvalues --    0.03204   0.03858   0.04116   0.04300   0.04917
 Alpha virt. eigenvalues --    0.05347   0.05707   0.05769   0.06176   0.06618
 Alpha virt. eigenvalues --    0.06678   0.07125   0.07477   0.07903   0.08297
 Alpha virt. eigenvalues --    0.08459   0.08822   0.08833   0.09132   0.09496
 Alpha virt. eigenvalues --    0.09935   0.10140   0.10469   0.10946   0.11124
 Alpha virt. eigenvalues --    0.11607   0.12003   0.12244   0.12428   0.13073
 Alpha virt. eigenvalues --    0.13371   0.13781   0.14253   0.14720   0.14837
 Alpha virt. eigenvalues --    0.15074   0.16247   0.16426   0.16495   0.17501
 Alpha virt. eigenvalues --    0.18093   0.18485   0.18699   0.19382   0.19453
 Alpha virt. eigenvalues --    0.19843   0.20863   0.21615   0.22909   0.23970
 Alpha virt. eigenvalues --    0.24426   0.25244   0.25779   0.25937   0.26072
 Alpha virt. eigenvalues --    0.27335   0.27657   0.28594   0.29837   0.30573
 Alpha virt. eigenvalues --    0.30940   0.32713   0.33094   0.35012   0.35337
 Alpha virt. eigenvalues --    0.37164   0.37901   0.39096   0.39696   0.40286
 Alpha virt. eigenvalues --    0.41107   0.41180   0.41943   0.42238   0.42705
 Alpha virt. eigenvalues --    0.43282   0.43874   0.44052   0.44225   0.44679
 Alpha virt. eigenvalues --    0.44992   0.45511   0.45786   0.45936   0.46118
 Alpha virt. eigenvalues --    0.46822   0.47147   0.47275   0.47949   0.48112
 Alpha virt. eigenvalues --    0.48722   0.48958   0.49108   0.49669   0.50238
 Alpha virt. eigenvalues --    0.50381   0.50659   0.50994   0.51449   0.52010
 Alpha virt. eigenvalues --    0.52165   0.52259   0.52877   0.53132   0.53689
 Alpha virt. eigenvalues --    0.54223   0.54451   0.54972   0.55004   0.55448
 Alpha virt. eigenvalues --    0.56021   0.56484   0.56880   0.57186   0.57401
 Alpha virt. eigenvalues --    0.58049   0.58455   0.58679   0.59082   0.59354
 Alpha virt. eigenvalues --    0.60017   0.60447   0.61044   0.61473   0.62166
 Alpha virt. eigenvalues --    0.62595   0.63600   0.63839   0.64447   0.65197
 Alpha virt. eigenvalues --    0.65686   0.66180   0.66493   0.66791   0.67368
 Alpha virt. eigenvalues --    0.68159   0.68566   0.68722   0.70454   0.70572
 Alpha virt. eigenvalues --    0.71585   0.72019   0.72302   0.72466   0.72965
 Alpha virt. eigenvalues --    0.73287   0.73650   0.73855   0.74373   0.74520
 Alpha virt. eigenvalues --    0.74678   0.75069   0.75360   0.75408   0.76270
 Alpha virt. eigenvalues --    0.76856   0.77163   0.77407   0.77580   0.77976
 Alpha virt. eigenvalues --    0.78225   0.78576   0.78807   0.78974   0.79267
 Alpha virt. eigenvalues --    0.79641   0.79765   0.80214   0.80700   0.81194
 Alpha virt. eigenvalues --    0.81238   0.82102   0.82161   0.82863   0.83281
 Alpha virt. eigenvalues --    0.83456   0.84122   0.84972   0.85758   0.86023
 Alpha virt. eigenvalues --    0.86321   0.86933   0.87000   0.87454   0.88081
 Alpha virt. eigenvalues --    0.88398   0.89028   0.89280   0.89702   0.90114
 Alpha virt. eigenvalues --    0.90731   0.91873   0.92185   0.92846   0.93170
 Alpha virt. eigenvalues --    0.93841   0.94205   0.94873   0.95233   0.95917
 Alpha virt. eigenvalues --    0.97075   0.97595   0.98358   0.98586   0.98852
 Alpha virt. eigenvalues --    0.99806   1.00147   1.00986   1.01358   1.01564
 Alpha virt. eigenvalues --    1.01831   1.02381   1.03413   1.03661   1.04308
 Alpha virt. eigenvalues --    1.04891   1.05331   1.05976   1.06481   1.06675
 Alpha virt. eigenvalues --    1.07702   1.08041   1.08215   1.09113   1.09559
 Alpha virt. eigenvalues --    1.10484   1.10842   1.11965   1.12570   1.13738
 Alpha virt. eigenvalues --    1.15117   1.15909   1.16605   1.17216   1.17792
 Alpha virt. eigenvalues --    1.18078   1.19216   1.19526   1.20796   1.21352
 Alpha virt. eigenvalues --    1.21788   1.23311   1.23427   1.24704   1.25252
 Alpha virt. eigenvalues --    1.25810   1.26752   1.28442   1.29037   1.29158
 Alpha virt. eigenvalues --    1.29534   1.29834   1.30463   1.30954   1.32055
 Alpha virt. eigenvalues --    1.32691   1.32901   1.34581   1.34967   1.35306
 Alpha virt. eigenvalues --    1.36052   1.36489   1.37265   1.38197   1.38682
 Alpha virt. eigenvalues --    1.39173   1.40483   1.40881   1.41272   1.41911
 Alpha virt. eigenvalues --    1.42468   1.43341   1.43665   1.44121   1.45436
 Alpha virt. eigenvalues --    1.45720   1.47384   1.48333   1.48898   1.49178
 Alpha virt. eigenvalues --    1.50150   1.50475   1.51082   1.52053   1.52827
 Alpha virt. eigenvalues --    1.54096   1.54507   1.55000   1.56063   1.57068
 Alpha virt. eigenvalues --    1.57548   1.58282   1.59232   1.59682   1.61077
 Alpha virt. eigenvalues --    1.61772   1.62383   1.62482   1.63434   1.63798
 Alpha virt. eigenvalues --    1.65348   1.65529   1.66097   1.66232   1.66790
 Alpha virt. eigenvalues --    1.67114   1.68364   1.68651   1.68840   1.69045
 Alpha virt. eigenvalues --    1.70195   1.70258   1.71190   1.71556   1.72071
 Alpha virt. eigenvalues --    1.72279   1.72508   1.73326   1.74405   1.74857
 Alpha virt. eigenvalues --    1.75191   1.76213   1.76906   1.77571   1.78159
 Alpha virt. eigenvalues --    1.78492   1.79102   1.79439   1.80096   1.80428
 Alpha virt. eigenvalues --    1.80819   1.81399   1.82416   1.82946   1.83170
 Alpha virt. eigenvalues --    1.83533   1.83710   1.84018   1.84882   1.85130
 Alpha virt. eigenvalues --    1.85285   1.86221   1.86595   1.87080   1.87407
 Alpha virt. eigenvalues --    1.87714   1.88328   1.89327   1.89361   1.89960
 Alpha virt. eigenvalues --    1.90988   1.92360   1.92555   1.92675   1.93465
 Alpha virt. eigenvalues --    1.94144   1.94379   1.94903   1.95603   1.96380
 Alpha virt. eigenvalues --    1.96963   1.97683   1.98209   1.98877   1.99649
 Alpha virt. eigenvalues --    2.00187   2.00453   2.01242   2.02136   2.03177
 Alpha virt. eigenvalues --    2.03985   2.04354   2.04955   2.05679   2.06556
 Alpha virt. eigenvalues --    2.07308   2.08240   2.08701   2.09063   2.10140
 Alpha virt. eigenvalues --    2.10518   2.11803   2.12786   2.14380   2.15021
 Alpha virt. eigenvalues --    2.15540   2.15944   2.16490   2.16962   2.17684
 Alpha virt. eigenvalues --    2.18048   2.18812   2.19650   2.20194   2.21004
 Alpha virt. eigenvalues --    2.21475   2.22001   2.24365   2.25174   2.25528
 Alpha virt. eigenvalues --    2.26131   2.26466   2.28694   2.28956   2.29886
 Alpha virt. eigenvalues --    2.30441   2.30935   2.31680   2.32847   2.33432
 Alpha virt. eigenvalues --    2.34166   2.34784   2.35564   2.36638   2.37209
 Alpha virt. eigenvalues --    2.38169   2.38499   2.38909   2.39692   2.40679
 Alpha virt. eigenvalues --    2.41080   2.41535   2.42875   2.43970   2.44367
 Alpha virt. eigenvalues --    2.45134   2.45989   2.46682   2.47117   2.48486
 Alpha virt. eigenvalues --    2.49010   2.49365   2.49834   2.51543   2.52509
 Alpha virt. eigenvalues --    2.52850   2.53419   2.54514   2.54889   2.55794
 Alpha virt. eigenvalues --    2.56221   2.57569   2.58476   2.59158   2.59571
 Alpha virt. eigenvalues --    2.60236   2.61175   2.61824   2.61932   2.63613
 Alpha virt. eigenvalues --    2.64105   2.65116   2.65480   2.66613   2.68735
 Alpha virt. eigenvalues --    2.69286   2.70110   2.70784   2.72677   2.76055
 Alpha virt. eigenvalues --    2.76796   2.78767   2.79088   2.82577   2.85192
 Alpha virt. eigenvalues --    2.85947   2.89207   2.89951   2.90261   2.90560
 Alpha virt. eigenvalues --    2.92683   2.93026   2.93425   2.94839   2.95443
 Alpha virt. eigenvalues --    2.97058   2.98608   3.00170   3.02492   3.05061
 Alpha virt. eigenvalues --    3.05270   3.14857   3.17345   3.35553   3.68659
 Alpha virt. eigenvalues --    3.74510   3.75179   3.78541   3.83145   3.85061
 Alpha virt. eigenvalues --    3.91215   3.94314   3.95512   3.96496   3.98263
 Alpha virt. eigenvalues --    4.01985   4.02580   4.03333   4.05583   4.07631
 Alpha virt. eigenvalues --    4.09053   4.10082   4.10654   4.13692   4.14796
 Alpha virt. eigenvalues --    4.17199   4.19136   4.20778   4.24246   4.24982
 Alpha virt. eigenvalues --    4.27943   4.29337   4.30788   4.34269   4.34552
 Alpha virt. eigenvalues --    4.36845   4.38624   4.48071   4.48685   4.50054
 Alpha virt. eigenvalues --    4.55224   4.57342   4.59659   4.66974   4.72196
 Alpha virt. eigenvalues --    4.72865
          Condensed to atoms (all electrons):
 Mulliken charges:
               1
     1  N   -0.792877
     2  C   -0.032924
     3  C    0.561424
     4  O   -0.499343
     5  C   -0.286141
     6  C   -0.367846
     7  C    0.595344
     8  O   -0.526579
     9  O   -0.519040
    10  H    0.425810
    11  H    0.159064
    12  H    0.146028
    13  H    0.184551
    14  H    0.228290
    15  H    0.196194
    16  H    0.311120
    17  H    0.356539
    18  N   -0.594168
    19  C   -0.095962
    20  C    0.611508
    21  O   -0.493200
    22  C   -0.367004
    23  C    0.056131
    24  C   -0.010466
    25  C    0.082917
    26  C    0.297327
    27  C   -0.213414
    28  N   -0.678652
    29  C   -0.165247
    30  C   -0.164063
    31  C   -0.158102
    32  H    0.360298
    33  H    0.186084
    34  H    0.158785
    35  H    0.179386
    36  H    0.177508
    37  H    0.342099
    38  H    0.129841
    39  H    0.142624
    40  H    0.129406
    41  H    0.142499
    42  N   -0.614717
    43  C   -0.070802
    44  C    0.611447
    45  O   -0.486601
    46  C    0.126614
    47  C   -0.477591
    48  O   -0.657557
    49  H    0.426537
    50  H    0.366242
    51  H    0.174447
    52  H    0.160466
    53  H    0.187090
    54  H    0.184153
    55  H    0.159651
    56  N   -0.647720
    57  C   -0.067456
    58  C    0.625582
    59  O   -0.496665
    60  C   -0.311973
    61  C   -0.359887
    62  C   -0.195637
    63  N   -0.620922
    64  C    0.775904
    65  N   -0.793011
    66  N   -0.776873
    67  O   -0.559403
    68  H    0.465631
    69  H    0.355063
    70  H    0.195910
    71  H    0.178604
    72  H    0.158689
    73  H    0.245459
    74  H    0.183374
    75  H    0.199236
    76  H    0.195043
    77  H    0.405420
    78  H    0.368904
    79  H    0.437357
    80  H    0.389326
    81  H    0.364916
 Sum of Mulliken charges =   1.00000
 Mulliken charges with hydrogens summed into heavy atoms:
               1
     1  N   -0.125218
     2  C    0.126139
     3  C    0.561424
     4  O   -0.499343
     5  C    0.044438
     6  C    0.056639
     7  C    0.595344
     8  O   -0.526579
     9  O   -0.093230
    18  N   -0.233871
    19  C    0.090122
    20  C    0.611508
    21  O   -0.493200
    22  C   -0.028832
    23  C    0.056131
    24  C    0.167042
    25  C    0.082917
    26  C    0.297327
    27  C   -0.083574
    28  N   -0.336553
    29  C   -0.022623
    30  C   -0.034658
    31  C   -0.015602
    42  N   -0.248475
    43  C    0.103645
    44  C    0.611447
    45  O   -0.486601
    46  C    0.287081
    47  C    0.053303
    48  O   -0.231020
    56  N   -0.292658
    57  C    0.128454
    58  C    0.625582
    59  O   -0.496665
    60  C    0.025320
    61  C    0.068946
    62  C    0.198642
    63  N   -0.215502
    64  C    0.775904
    65  N    0.013250
    66  N   -0.022631
    67  O   -0.093771
 Electronic spatial extent (au):  <R**2>=        1392413.5289
 Charge=              1.0000 electrons
 Dipole moment (field-independent basis, Debye):
    X=             47.8906    Y=            149.3882    Z=             43.3506  Tot=            162.7564
 Quadrupole moment (field-independent basis, Debye-Ang):
   XX=            281.4625   YY=           4414.4748   ZZ=            183.8113
   XY=           1476.9422   XZ=            413.7368   YZ=           1298.2486
 Traceless Quadrupole moment (field-independent basis, Debye-Ang):
   XX=          -1345.1203   YY=           2787.8919   ZZ=          -1442.7716
   XY=           1476.9422   XZ=            413.7368   YZ=           1298.2486
 Octapole moment (field-independent basis, Debye-Ang**2):
  XXX=           -897.5892  YYY=         122606.2536  ZZZ=          -4129.2269  XYY=          43293.0313
  XXY=           8354.0596  XXZ=           1598.5993  XZZ=           1486.4786  YZZ=           4538.5122
  YYZ=          35961.2049  XYZ=          12208.6164
 Hexadecapole moment (field-independent basis, Debye-Ang**3):
 XXXX=         -70490.3104 YYYY=        3108865.6784 ZZZZ=        -163689.6026 XXXY=         -36466.3938
 XXXZ=         -30306.5629 YYYX=        1191363.4281 YYYZ=         889101.9958 ZZZX=         -45567.7103
 ZZZY=        -149807.9760 XXYY=         222949.5846 XXZZ=         -19376.9711 YYZZ=          66760.2535
 XXYZ=          39384.0319 YYXZ=         331399.2839 ZZXY=          32530.6511
 N-N= 5.712663736148D+03 E-N=-1.618116004381D+04  KE= 2.035188079544D+03
 Unable to Open any file for archive entry.
 1\1\GINC-VIM-002\SP\RB3LYP\6-31G(d)\C26H39N8O8(1+)\KENGMITH\27-May-202
 2\0\\# B3LYP/6-31G* empiricaldispersion=gd3 guess=read geom=check nosy
 mm integral(ultrafinegrid)\\Candidate Structure: Conf:962 Charge calc 
 in gas phase\\1,1\N,0,11.9037299553,31.4527494948,11.6206521541\C,0,12
 .4963362687,32.7750138747,11.8460983967\C,0,12.5579222431,33.260121233
 2,13.3042676102\O,0,13.3651237515,34.1508262941,13.5444773437\C,0,11.7
 63818305,33.8582236266,10.9952015768\C,0,12.6965846018,34.5420563723,9
 .9953455854\C,0,13.1937125442,33.6049444739,8.9215683135\O,0,12.627270
 4316,32.5755154732,8.5541581705\O,0,14.3275208727,34.02214647,8.358280
 2094\H,0,14.5915622576,33.3806230349,7.670190451\H,0,13.5599117441,32.
 792178277,11.5644685288\H,0,10.927998965,33.3861652995,10.469851887\H,
 0,11.341728348,34.632947654,11.642191328\H,0,13.5547553018,34.98875135
 81,10.5065769041\H,0,12.1860074108,35.365063115,9.4745312212\H,0,12.22
 6637378,31.1086384998,10.7168210823\H,0,12.2502005827,30.7924375968,12
 .3131860105\N,0,11.7761215496,32.7354595473,14.2995135975\C,0,10.50746
 42581,32.0180010258,14.2718099995\C,0,9.4783422045,32.8845803156,15.03
 18549873\O,0,9.8577268639,33.6336009543,15.9214895222\C,0,10.635633581
 8,30.6574894243,15.0283730471\C,0,11.4551741477,29.6422568718,14.29833
 72328\C,0,12.8053254845,29.4184272803,14.4261088773\C,0,10.9928085808,
 28.7667573112,13.2483040857\C,0,12.1229032749,28.0440246557,12.7733931
 84\C,0,9.7420721863,28.536547295,12.6511381455\N,0,13.2139925488,28.46
 9068148,13.5063284726\C,0,12.0337045631,27.1189210277,11.727542553\C,0
 ,9.6470271634,27.6187484693,11.611427015\C,0,10.7836555599,26.91863877
 79,11.1518264638\H,0,11.8965235303,33.25373594,15.1689990907\H,0,10.22
 14746501,31.8366359581,13.2374386628\H,0,9.6319071381,30.2582916243,15
 .2134444347\H,0,11.0643611451,30.8780482848,16.0121498103\H,0,13.51476
 74956,29.8736968475,15.1031015051\H,0,14.1381986156,28.0670184674,13.4
 621508937\H,0,8.8558075016,29.0605356705,12.9950092436\H,0,12.90657519
 07,26.5725101944,11.3812954645\H,0,8.6812553903,27.42470834,11.1518524
 416\H,0,10.6780319958,26.2000287336,10.3443378943\N,0,8.141651188,32.7
 398859417,14.7617756381\C,0,7.472043066,32.0241931545,13.6953099614\C,
 0,6.3415941657,32.9197942342,13.1620746892\O,0,5.7338476993,33.6230088
 702,13.9572479806\C,0,6.8548026125,30.6912619165,14.2105704094\C,0,5.7
 471277263,30.8345238976,15.2439236375\O,0,6.4021686026,29.9984492612,1
 3.0281987321\H,0,6.0493201036,29.1321724748,13.2894190678\H,0,7.540774
 8387,33.353507719,15.3053654205\H,0,8.1889023701,31.7584697917,12.9262
 825908\H,0,7.6862694043,30.1251621916,14.6477212171\H,0,4.8827299714,3
 1.364911514,14.8375566097\H,0,6.1098203572,31.3832851441,16.1179666235
 \H,0,5.4274596001,29.8429055784,15.5845493232\N,0,5.886751478,32.81321
 42751,11.8616650897\C,0,6.5311445946,32.5851450018,10.5594027539\C,0,5
 .9847247498,31.339805522,9.8385654943\O,0,6.1268634753,31.2176907169,8
 .6304834462\C,0,8.080284167,32.5569954614,10.5252390303\C,0,8.75468234
 64,31.1746758955,10.6651752786\C,0,9.1397738999,30.489902273,9.3439574
 975\N,0,9.9430757765,31.3598095237,8.474564359\C,0,9.5608293645,31.893
 1378672,7.3129409884\N,0,8.2828823388,31.9025604964,6.9182406212\N,0,1
 0.5062014127,32.4214753446,6.504383488\O,0,5.3912284676,30.4063658978,
 10.5569506405\H,0,5.5031502339,30.5796007727,11.5249847356\H,0,5.04262
 29426,33.3736146133,11.7791445161\H,0,6.2138548436,33.4222741861,9.929
 5189987\H,0,8.4451654742,33.2491560368,11.291142702\H,0,8.3820406309,3
 3.008113514,9.5753179528\H,0,9.6836890004,31.2789095941,11.2346640987\
 H,0,8.121017079,30.4717211946,11.2134272987\H,0,9.7429918153,29.606906
 4062,9.5779795672\H,0,8.2721723025,30.1467766974,8.7809200833\H,0,10.8
 801856972,31.6105807291,8.7850002342\H,0,8.0596193303,32.0858936308,5.
 9504646376\H,0,7.5023408913,31.6741800596,7.5456935127\H,0,11.46760024
 56,32.4278661434,6.8293444615\H,0,10.2444771136,33.1162808845,5.819710
 0646\\Version=ES64L-G16RevC.01\HF=-2054.0533955\RMSD=7.395e-09\Dipole=
 0.4351669,-0.7027838,-5.1536401\Quadrupole=-1000.0639861,2072.7293009,
 -1072.6653148,1098.0703283,307.6031337,965.2159982\PG=C01 [X(C26H39N8O
 8)]\\@
 The archive entry for this job was punched.


 IT IS BY LOGIC THAT WE PROVE, BUT BY INTUITION THAT WE DISCOVER.
     -- J.H.POINCARE (1854-1912)
 Job cpu time:       0 days  0 hours  3 minutes 23.9 seconds.
 Elapsed time:       0 days  0 hours  0 minutes 52.1 seconds.
 File lengths (MBytes):  RWF=    376 Int=      0 D2E=      0 Chk=     56 Scr=     16
 Normal termination of Gaussian 16 at Fri May 27 05:12:59 2022.
