 Entering Gaussian System, Link 0=/opt/software/Gaussian/g16-AVX2-C.01/g16/g16
 Input=charge-conf-746.com
 Output=charge-conf-746.log
 Initial command:
 /opt/software/Gaussian/g16-AVX2-C.01/g16/l1.exe "/mnt/gs18/scratch/users/kengmith/Gau-75686.inp" -scrdir="/mnt/gs18/scratch/users/kengmith/"
 Entering Link 1 = /opt/software/Gaussian/g16-AVX2-C.01/g16/l1.exe PID=     75740.
  
 Copyright (c) 1988-2019, Gaussian, Inc.  All Rights Reserved.
  
 This is part of the Gaussian(R) 16 program.  It is based on
 the Gaussian(R) 09 system (copyright 2009, Gaussian, Inc.),
 the Gaussian(R) 03 system (copyright 2003, Gaussian, Inc.),
 the Gaussian(R) 98 system (copyright 1998, Gaussian, Inc.),
 the Gaussian(R) 94 system (copyright 1995, Gaussian, Inc.),
 the Gaussian 92(TM) system (copyright 1992, Gaussian, Inc.),
 the Gaussian 90(TM) system (copyright 1990, Gaussian, Inc.),
 the Gaussian 88(TM) system (copyright 1988, Gaussian, Inc.),
 the Gaussian 86(TM) system (copyright 1986, Carnegie Mellon
 University), and the Gaussian 82(TM) system (copyright 1983,
 Carnegie Mellon University). Gaussian is a federally registered
 trademark of Gaussian, Inc.
  
 This software contains proprietary and confidential information,
 including trade secrets, belonging to Gaussian, Inc.
  
 This software is provided under written license and may be
 used, copied, transmitted, or stored only in accord with that
 written license.
  
 The following legend is applicable only to US Government
 contracts under FAR:
  
                    RESTRICTED RIGHTS LEGEND
  
 Use, reproduction and disclosure by the US Government is
 subject to restrictions as set forth in subparagraphs (a)
 and (c) of the Commercial Computer Software - Restricted
 Rights clause in FAR 52.227-19.
  
 Gaussian, Inc.
 340 Quinnipiac St., Bldg. 40, Wallingford CT 06492
  
  
 ---------------------------------------------------------------
 Warning -- This program may not be used in any manner that
 competes with the business of Gaussian, Inc. or will provide
 assistance to any competitor of Gaussian, Inc.  The licensee
 of this program is prohibited from giving any competitor of
 Gaussian, Inc. access to this program.  By using this program,
 the user acknowledges that Gaussian, Inc. is engaged in the
 business of creating and licensing software in the field of
 computational chemistry and represents and warrants to the
 licensee that it is not a competitor of Gaussian, Inc. and that
 it will not use this program in any manner prohibited above.
 ---------------------------------------------------------------
  

 Cite this work as:
 Gaussian 16, Revision C.01,
 M. J. Frisch, G. W. Trucks, H. B. Schlegel, G. E. Scuseria, 
 M. A. Robb, J. R. Cheeseman, G. Scalmani, V. Barone, 
 G. A. Petersson, H. Nakatsuji, X. Li, M. Caricato, A. V. Marenich, 
 J. Bloino, B. G. Janesko, R. Gomperts, B. Mennucci, H. P. Hratchian, 
 J. V. Ortiz, A. F. Izmaylov, J. L. Sonnenberg, D. Williams-Young, 
 F. Ding, F. Lipparini, F. Egidi, J. Goings, B. Peng, A. Petrone, 
 T. Henderson, D. Ranasinghe, V. G. Zakrzewski, J. Gao, N. Rega, 
 G. Zheng, W. Liang, M. Hada, M. Ehara, K. Toyota, R. Fukuda, 
 J. Hasegawa, M. Ishida, T. Nakajima, Y. Honda, O. Kitao, H. Nakai, 
 T. Vreven, K. Throssell, J. A. Montgomery, Jr., J. E. Peralta, 
 F. Ogliaro, M. J. Bearpark, J. J. Heyd, E. N. Brothers, K. N. Kudin, 
 V. N. Staroverov, T. A. Keith, R. Kobayashi, J. Normand, 
 K. Raghavachari, A. P. Rendell, J. C. Burant, S. S. Iyengar, 
 J. Tomasi, M. Cossi, J. M. Millam, M. Klene, C. Adamo, R. Cammi, 
 J. W. Ochterski, R. L. Martin, K. Morokuma, O. Farkas, 
 J. B. Foresman, and D. J. Fox, Gaussian, Inc., Wallingford CT, 2019.
 
 ******************************************
 Gaussian 16:  ES64L-G16RevC.01  3-Jul-2019
                27-May-2022 
 ******************************************
 %mem=8gb
 %nproc=4
 Will use up to    4 processors via shared memory.
 %chk=conf-746.chk
 ----------------------------------------------------------------------
 # B3LYP/6-31G* empiricaldispersion=gd3 guess=read geom=check nosymm in
 tegral(ultrafinegrid)
 ----------------------------------------------------------------------
 1/29=2,38=1,172=1/1;
 2/12=2,15=1,40=1/2;
 3/5=1,6=6,7=1,11=2,14=-4,25=1,30=1,74=-5,75=-5,116=-2,124=31/1,2,3;
 4/5=1/1;
 5/5=2,38=6/2;
 6/7=2,8=2,9=2,10=2,28=1/1;
 99/5=1,9=1/99;
 ------------------------------------------------------
 Candidate Structure: Conf:746 Charge calc in gas phase
 ------------------------------------------------------
 Structure from the checkpoint file:  "conf-746.chk"
 Charge =  1 Multiplicity = 1
 Redundant internal coordinates found in file.  (old form).
 N,0,9.7360506825,28.8417361824,11.3035051693
 C,0,9.8411217597,28.7899400503,9.8182108803
 C,0,11.2732574925,28.8541336905,9.2424925591
 O,0,11.7244172003,27.8533126035,8.6972263631
 C,0,8.8964814457,29.803135262,9.1488009464
 C,0,7.3963288235,29.4478080118,9.2365575808
 C,0,6.6865152809,29.7368476477,10.5483918129
 O,0,5.5840418274,30.2751029478,10.5670906831
 O,0,7.2726528488,29.3734680108,11.6867864934
 H,0,8.3044321014,29.0558856252,11.5758938149
 H,0,9.5164385015,27.7850314749,9.536177903
 H,0,9.0657982493,30.8211169144,9.5124322038
 H,0,9.1571157461,29.8336181459,8.0860524687
 H,0,7.2563819444,28.3781144692,9.0238725472
 H,0,6.8428211783,29.9955999882,8.4710946433
 H,0,10.1571019516,28.006833215,11.7129489799
 H,0,10.279895856,29.6150437456,11.6876018887
 N,0,11.965433468,30.0326628231,9.2313847961
 C,0,11.9251095875,31.2011367193,10.0901229046
 C,0,12.3223147175,32.4084457138,9.2217480046
 O,0,13.0441049492,32.238646416,8.2499365341
 C,0,12.9836539677,31.095062227,11.2359953136
 C,0,12.7680003364,29.9375134992,12.1625386867
 C,0,12.9239479563,28.599918263,11.8759154733
 C,0,12.3234417255,30.0130090368,13.5355318534
 C,0,12.2016476566,28.6786749838,14.0137125586
 C,0,12.076133193,31.0772892053,14.4215739711
 N,0,12.540004868,27.8385153916,12.9671197499
 C,0,11.8213916232,28.3853007127,15.3275290153
 C,0,11.7196062968,30.7898437323,15.733277552
 C,0,11.5846324006,29.4582771706,16.1799613366
 H,0,12.7954880431,30.0035586627,8.6442568495
 H,0,10.9253800108,31.3259205144,10.5083898472
 H,0,12.9819044657,32.032991792,11.8037599283
 H,0,13.963702325,31.0334209965,10.7483268427
 H,0,13.2496359323,28.1185419074,10.9644162769
 H,0,12.7232350134,26.8497164664,13.0607558483
 H,0,12.1722246666,32.1080790076,14.0922702519
 H,0,11.7388600417,27.3596485539,15.6760678864
 H,0,11.54794577,31.6037652914,16.4324182462
 H,0,11.3088957009,29.2665703216,17.212733234
 N,0,11.9806483867,33.6644108922,9.641745618
 C,0,10.9748625375,34.0919069172,10.5980088526
 C,0,9.571980636,33.6003432858,10.2228925851
 O,0,9.3151351433,33.2097076231,9.0935730244
 C,0,10.9901896565,35.6658678267,10.6176915214
 C,0,10.474189019,36.3028274046,9.3267756864
 O,0,10.3020490412,36.16476951,11.7478065279
 H,0,9.3569750645,36.2341174782,11.5355277274
 H,0,12.2910105082,34.3591079403,8.9720621211
 H,0,11.2381095287,33.7715377622,11.6103149618
 H,0,12.0402798353,35.9388047432,10.773743851
 H,0,10.5815259944,37.3884168853,9.3990985424
 H,0,9.4149672719,36.0656705183,9.1713246788
 H,0,11.0132756171,35.9641870211,8.4368462129
 N,0,8.5412435458,33.7664531906,11.1464475426
 C,0,8.5029878742,33.4011709271,12.5807583395
 C,0,9.1379794432,34.4461019809,13.5063142584
 O,0,8.5286370355,35.3908253718,13.9459278128
 C,0,8.9814207526,31.9680882647,12.8435413485
 C,0,8.7088823517,31.4439987656,14.2630036757
 C,0,7.2751565358,31.6153741128,14.7760662674
 N,0,6.3000162619,31.0175414643,13.8593640832
 C,0,4.9814949942,31.228019252,13.9140824297
 N,0,4.4476877216,31.8939368757,14.9586538589
 N,0,4.2061842735,30.8005894945,12.9174171601
 O,0,10.4198062252,34.1580285117,13.8289264324
 H,0,10.7669535075,34.9338080882,14.3104607634
 H,0,7.67223279,33.5092503239,10.6848917781
 H,0,7.4403589446,33.4731018011,12.8229424778
 H,0,10.0591304872,31.902296186,12.6652778166
 H,0,8.489120499,31.3301840627,12.1074682124
 H,0,8.9917870146,30.3862254429,14.3053489467
 H,0,9.3673155206,31.9504064323,14.9726351625
 H,0,7.2031204873,31.1471313382,15.7676529038
 H,0,7.037127843,32.6798047904,14.8961957667
 H,0,6.6368817077,30.3598571536,13.1479584806
 H,0,3.4722928755,32.1533135182,14.9624107475
 H,0,4.9536319509,31.9997627324,15.8248760615
 H,0,4.6382810093,30.5252081748,12.0172165187
 H,0,3.2000604918,30.8217756315,12.9956481337
 Recover connectivity data from disk.
                           ----------------------------
                           !    Current Parameters    !
                           ! (Angstroms and Degrees)  !
 --------------------------                            --------------------------
 ! Name  Definition              Value                                          !
 --------------------------------------------------------------------------------
 ! R1    R(1,2)                  1.4899                                         !
 ! R2    R(1,16)                 1.0208                                         !
 ! R3    R(1,17)                 1.0204                                         !
 ! R4    R(2,3)                  1.5449                                         !
 ! R5    R(2,5)                  1.5385                                         !
 ! R6    R(2,11)                 1.0931                                         !
 ! R7    R(3,4)                  1.2258                                         !
 ! R8    R(3,18)                 1.3668                                         !
 ! R9    R(5,6)                  1.5442                                         !
 ! R10   R(5,12)                 1.0942                                         !
 ! R11   R(5,13)                 1.0947                                         !
 ! R12   R(6,7)                  1.5193                                         !
 ! R13   R(6,14)                 1.0996                                         !
 ! R14   R(6,15)                 1.092                                          !
 ! R15   R(7,8)                  1.227                                          !
 ! R16   R(7,9)                  1.331                                          !
 ! R17   R(9,10)                 1.0852                                         !
 ! R18   R(18,19)                1.4507                                         !
 ! R19   R(18,32)                1.0171                                         !
 ! R20   R(19,20)                1.5393                                         !
 ! R21   R(19,22)                1.5636                                         !
 ! R22   R(19,33)                1.0909                                         !
 ! R23   R(20,21)                1.2224                                         !
 ! R24   R(20,42)                1.3677                                         !
 ! R25   R(22,23)                1.4983                                         !
 ! R26   R(22,34)                1.0964                                         !
 ! R27   R(22,35)                1.0964                                         !
 ! R28   R(23,24)                1.3768                                         !
 ! R29   R(23,25)                1.4451                                         !
 ! R30   R(24,28)                1.3849                                         !
 ! R31   R(24,36)                1.081                                          !
 ! R32   R(25,26)                1.4227                                         !
 ! R33   R(25,27)                1.4067                                         !
 ! R34   R(26,28)                1.3841                                         !
 ! R35   R(26,29)                1.3988                                         !
 ! R36   R(27,30)                1.3894                                         !
 ! R37   R(27,38)                1.0864                                         !
 ! R38   R(28,37)                1.01                                           !
 ! R39   R(29,31)                1.3907                                         !
 ! R40   R(29,39)                1.0864                                         !
 ! R41   R(30,31)                1.411                                          !
 ! R42   R(30,40)                1.0866                                         !
 ! R43   R(31,41)                1.086                                          !
 ! R44   R(42,43)                1.4522                                         !
 ! R45   R(42,50)                1.0136                                         !
 ! R46   R(43,44)                1.5331                                         !
 ! R47   R(43,46)                1.5742                                         !
 ! R48   R(43,51)                1.0939                                         !
 ! R49   R(44,45)                1.2223                                         !
 ! R50   R(44,56)                1.3939                                         !
 ! R51   R(46,47)                1.5292                                         !
 ! R52   R(46,48)                1.4141                                         !
 ! R53   R(46,52)                1.0961                                         !
 ! R54   R(47,53)                1.0933                                         !
 ! R55   R(47,54)                1.0965                                         !
 ! R56   R(47,55)                1.0942                                         !
 ! R57   R(48,49)                0.9711                                         !
 ! R58   R(56,57)                1.4806                                         !
 ! R59   R(56,69)                1.017                                          !
 ! R60   R(57,58)                1.5335                                         !
 ! R61   R(57,60)                1.5335                                         !
 ! R62   R(57,70)                1.0922                                         !
 ! R63   R(58,59)                1.2071                                         !
 ! R64   R(58,67)                1.3528                                         !
 ! R65   R(60,61)                1.5375                                         !
 ! R66   R(60,71)                1.0943                                         !
 ! R67   R(60,72)                1.0914                                         !
 ! R68   R(61,62)                1.5324                                         !
 ! R69   R(61,73)                1.0958                                         !
 ! R70   R(61,74)                1.0925                                         !
 ! R71   R(62,63)                1.4658                                         !
 ! R72   R(62,75)                1.0989                                         !
 ! R73   R(62,76)                1.0973                                         !
 ! R74   R(63,64)                1.3363                                         !
 ! R75   R(63,77)                1.0257                                         !
 ! R76   R(64,65)                1.3489                                         !
 ! R77   R(64,66)                1.3331                                         !
 ! R78   R(65,78)                1.0093                                         !
 ! R79   R(65,79)                1.0087                                         !
 ! R80   R(66,80)                1.0358                                         !
 ! R81   R(66,81)                1.0094                                         !
 ! R82   R(67,68)                0.9768                                         !
 ! A1    A(2,1,16)             110.0197                                         !
 ! A2    A(2,1,17)             111.3459                                         !
 ! A3    A(16,1,17)            104.4191                                         !
 ! A4    A(1,2,3)              115.8136                                         !
 ! A5    A(1,2,5)              111.5652                                         !
 ! A6    A(1,2,11)             105.5592                                         !
 ! A7    A(3,2,5)              112.314                                          !
 ! A8    A(3,2,11)             102.557                                          !
 ! A9    A(5,2,11)             108.1071                                         !
 ! A10   A(2,3,4)              118.2329                                         !
 ! A11   A(2,3,18)             120.5523                                         !
 ! A12   A(4,3,18)             120.931                                          !
 ! A13   A(2,5,6)              114.8492                                         !
 ! A14   A(2,5,12)             111.9064                                         !
 ! A15   A(2,5,13)             107.1315                                         !
 ! A16   A(6,5,12)             110.2147                                         !
 ! A17   A(6,5,13)             107.0312                                         !
 ! A18   A(12,5,13)            105.0639                                         !
 ! A19   A(5,6,7)              117.334                                          !
 ! A20   A(5,6,14)             109.6645                                         !
 ! A21   A(5,6,15)             109.7047                                         !
 ! A22   A(7,6,14)             107.0151                                         !
 ! A23   A(7,6,15)             105.8438                                         !
 ! A24   A(14,6,15)            106.7336                                         !
 ! A25   A(6,7,8)              121.0909                                         !
 ! A26   A(6,7,9)              118.7389                                         !
 ! A27   A(8,7,9)              120.1599                                         !
 ! A28   A(7,9,10)             114.2792                                         !
 ! A29   A(3,18,19)            132.5038                                         !
 ! A30   A(3,18,32)            113.1596                                         !
 ! A31   A(19,18,32)           112.7952                                         !
 ! A32   A(18,19,20)           106.896                                          !
 ! A33   A(18,19,22)           111.1223                                         !
 ! A34   A(18,19,33)           110.1568                                         !
 ! A35   A(20,19,22)           106.9743                                         !
 ! A36   A(20,19,33)           111.289                                          !
 ! A37   A(22,19,33)           110.3166                                         !
 ! A38   A(19,20,21)           119.4665                                         !
 ! A39   A(19,20,42)           118.8522                                         !
 ! A40   A(21,20,42)           121.2789                                         !
 ! A41   A(19,22,23)           114.0894                                         !
 ! A42   A(19,22,34)           108.6865                                         !
 ! A43   A(19,22,35)           106.4394                                         !
 ! A44   A(23,22,34)           109.9042                                         !
 ! A45   A(23,22,35)           111.1171                                         !
 ! A46   A(34,22,35)           106.2515                                         !
 ! A47   A(22,23,24)           127.2666                                         !
 ! A48   A(22,23,25)           126.2591                                         !
 ! A49   A(24,23,25)           106.462                                          !
 ! A50   A(23,24,28)           109.7978                                         !
 ! A51   A(23,24,36)           129.9608                                         !
 ! A52   A(28,24,36)           120.204                                          !
 ! A53   A(23,25,26)           107.2581                                         !
 ! A54   A(23,25,27)           133.7895                                         !
 ! A55   A(26,25,27)           118.8706                                         !
 ! A56   A(25,26,28)           107.112                                          !
 ! A57   A(25,26,29)           122.3891                                         !
 ! A58   A(28,26,29)           130.492                                          !
 ! A59   A(25,27,30)           118.8972                                         !
 ! A60   A(25,27,38)           120.7555                                         !
 ! A61   A(30,27,38)           120.3437                                         !
 ! A62   A(24,28,26)           109.2598                                         !
 ! A63   A(24,28,37)           124.1265                                         !
 ! A64   A(26,28,37)           124.6475                                         !
 ! A65   A(26,29,31)           117.398                                          !
 ! A66   A(26,29,39)           121.3302                                         !
 ! A67   A(31,29,39)           121.2536                                         !
 ! A68   A(27,30,31)           121.2441                                         !
 ! A69   A(27,30,40)           119.5393                                         !
 ! A70   A(31,30,40)           119.2151                                         !
 ! A71   A(29,31,30)           121.1846                                         !
 ! A72   A(29,31,41)           119.3371                                         !
 ! A73   A(30,31,41)           119.4685                                         !
 ! A74   A(20,42,43)           130.2088                                         !
 ! A75   A(20,42,50)           110.4874                                         !
 ! A76   A(43,42,50)           116.4477                                         !
 ! A77   A(42,43,44)           112.2263                                         !
 ! A78   A(42,43,46)           107.2078                                         !
 ! A79   A(42,43,51)           110.8844                                         !
 ! A80   A(44,43,46)           109.4243                                         !
 ! A81   A(44,43,51)           110.6537                                         !
 ! A82   A(46,43,51)           106.1951                                         !
 ! A83   A(43,44,45)           121.3882                                         !
 ! A84   A(43,44,56)           118.4456                                         !
 ! A85   A(45,44,56)           119.6619                                         !
 ! A86   A(43,46,47)           113.7433                                         !
 ! A87   A(43,46,48)           110.9788                                         !
 ! A88   A(43,46,52)           105.0744                                         !
 ! A89   A(47,46,48)           111.3151                                         !
 ! A90   A(47,46,52)           109.8599                                         !
 ! A91   A(48,46,52)           105.3411                                         !
 ! A92   A(46,47,53)           108.9432                                         !
 ! A93   A(46,47,54)           110.8268                                         !
 ! A94   A(46,47,55)           113.0434                                         !
 ! A95   A(53,47,54)           108.6011                                         !
 ! A96   A(53,47,55)           108.2246                                         !
 ! A97   A(54,47,55)           107.0784                                         !
 ! A98   A(46,48,49)           108.9104                                         !
 ! A99   A(44,56,57)           129.1656                                         !
 ! A100  A(44,56,69)           107.5182                                         !
 ! A101  A(57,56,69)           110.8038                                         !
 ! A102  A(56,57,58)           113.9457                                         !
 ! A103  A(56,57,60)           112.8611                                         !
 ! A104  A(56,57,70)           102.9258                                         !
 ! A105  A(58,57,60)           113.838                                          !
 ! A106  A(58,57,70)           102.9525                                         !
 ! A107  A(60,57,70)           109.0911                                         !
 ! A108  A(57,58,59)           122.9608                                         !
 ! A109  A(57,58,67)           113.0273                                         !
 ! A110  A(59,58,67)           123.9257                                         !
 ! A111  A(57,60,61)           114.9265                                         !
 ! A112  A(57,60,71)           109.6038                                         !
 ! A113  A(57,60,72)           106.8528                                         !
 ! A114  A(61,60,71)           107.7264                                         !
 ! A115  A(61,60,72)           110.0889                                         !
 ! A116  A(71,60,72)           107.4112                                         !
 ! A117  A(60,61,62)           115.9028                                         !
 ! A118  A(60,61,73)           108.6006                                         !
 ! A119  A(60,61,74)           109.5634                                         !
 ! A120  A(62,61,73)           109.6685                                         !
 ! A121  A(62,61,74)           107.1316                                         !
 ! A122  A(73,61,74)           105.4713                                         !
 ! A123  A(61,62,63)           111.5568                                         !
 ! A124  A(61,62,75)           108.4082                                         !
 ! A125  A(61,62,76)           110.3708                                         !
 ! A126  A(63,62,75)           110.298                                          !
 ! A127  A(63,62,76)           108.6498                                         !
 ! A128  A(75,62,76)           107.4765                                         !
 ! A129  A(62,63,64)           124.5091                                         !
 ! A130  A(62,63,77)           118.4745                                         !
 ! A131  A(64,63,77)           116.9636                                         !
 ! A132  A(63,64,65)           119.995                                          !
 ! A133  A(63,64,66)           119.5195                                         !
 ! A134  A(65,64,66)           120.4702                                         !
 ! A135  A(64,65,78)           120.81                                           !
 ! A136  A(64,65,79)           121.218                                          !
 ! A137  A(78,65,79)           117.0369                                         !
 ! A138  A(64,66,80)           119.4971                                         !
 ! A139  A(64,66,81)           120.9998                                         !
 ! A140  A(80,66,81)           119.2583                                         !
 ! A141  A(58,67,68)           106.5689                                         !
 ! D1    D(16,1,2,3)           -65.7058                                         !
 ! D2    D(16,1,2,5)           164.1517                                         !
 ! D3    D(16,1,2,11)           46.9615                                         !
 ! D4    D(17,1,2,3)            49.5678                                         !
 ! D5    D(17,1,2,5)           -80.5746                                         !
 ! D6    D(17,1,2,11)          162.2352                                         !
 ! D7    D(1,2,3,4)            111.5879                                         !
 ! D8    D(1,2,3,18)           -74.4742                                         !
 ! D9    D(5,2,3,4)           -118.6295                                         !
 ! D10   D(5,2,3,18)            55.3083                                         !
 ! D11   D(11,2,3,4)            -2.8061                                         !
 ! D12   D(11,2,3,18)          171.1318                                         !
 ! D13   D(1,2,5,6)            -71.2237                                         !
 ! D14   D(1,2,5,12)            55.4071                                         !
 ! D15   D(1,2,5,13)           170.0575                                         !
 ! D16   D(3,2,5,6)            156.8381                                         !
 ! D17   D(3,2,5,12)           -76.531                                          !
 ! D18   D(3,2,5,13)            38.1194                                         !
 ! D19   D(11,2,5,6)            44.4144                                         !
 ! D20   D(11,2,5,12)          171.0452                                         !
 ! D21   D(11,2,5,13)          -74.3044                                         !
 ! D22   D(2,3,18,19)           28.7998                                         !
 ! D23   D(2,3,18,32)         -166.7019                                         !
 ! D24   D(4,3,18,19)         -157.4273                                         !
 ! D25   D(4,3,18,32)            7.071                                          !
 ! D26   D(2,5,6,7)             78.805                                          !
 ! D27   D(2,5,6,14)           -43.5061                                         !
 ! D28   D(2,5,6,15)          -160.4267                                         !
 ! D29   D(12,5,6,7)           -48.6884                                         !
 ! D30   D(12,5,6,14)         -170.9995                                         !
 ! D31   D(12,5,6,15)           72.0799                                         !
 ! D32   D(13,5,6,7)          -162.4201                                         !
 ! D33   D(13,5,6,14)           75.2688                                         !
 ! D34   D(13,5,6,15)          -41.6518                                         !
 ! D35   D(5,6,7,8)            134.7656                                         !
 ! D36   D(5,6,7,9)            -46.3981                                         !
 ! D37   D(14,6,7,8)          -101.5701                                         !
 ! D38   D(14,6,7,9)            77.2662                                         !
 ! D39   D(15,6,7,8)            11.9981                                         !
 ! D40   D(15,6,7,9)          -169.1656                                         !
 ! D41   D(6,7,9,10)            10.5354                                         !
 ! D42   D(8,7,9,10)          -170.6172                                         !
 ! D43   D(3,18,19,20)        -150.7025                                         !
 ! D44   D(3,18,19,22)          92.9106                                         !
 ! D45   D(3,18,19,33)         -29.6578                                         !
 ! D46   D(32,18,19,20)         44.7565                                         !
 ! D47   D(32,18,19,22)        -71.6305                                         !
 ! D48   D(32,18,19,33)        165.8012                                         !
 ! D49   D(18,19,20,21)        -27.0565                                         !
 ! D50   D(18,19,20,42)        160.1294                                         !
 ! D51   D(22,19,20,21)         92.0535                                         !
 ! D52   D(22,19,20,42)        -80.7606                                         !
 ! D53   D(33,19,20,21)       -147.3793                                         !
 ! D54   D(33,19,20,42)         39.8066                                         !
 ! D55   D(18,19,22,23)        -62.0366                                         !
 ! D56   D(18,19,22,34)        174.9457                                         !
 ! D57   D(18,19,22,35)         60.878                                          !
 ! D58   D(20,19,22,23)       -178.3755                                         !
 ! D59   D(20,19,22,34)         58.6068                                         !
 ! D60   D(20,19,22,35)        -55.4608                                         !
 ! D61   D(33,19,22,23)         60.4394                                         !
 ! D62   D(33,19,22,34)        -62.5783                                         !
 ! D63   D(33,19,22,35)       -176.6459                                         !
 ! D64   D(19,20,42,43)        -19.4198                                         !
 ! D65   D(19,20,42,50)       -179.2067                                         !
 ! D66   D(21,20,42,43)        167.9013                                         !
 ! D67   D(21,20,42,50)          8.1144                                         !
 ! D68   D(19,22,23,24)         69.273                                          !
 ! D69   D(19,22,23,25)       -109.2798                                         !
 ! D70   D(34,22,23,24)       -168.3738                                         !
 ! D71   D(34,22,23,25)         13.0734                                         !
 ! D72   D(35,22,23,24)        -51.0577                                         !
 ! D73   D(35,22,23,25)        130.3894                                         !
 ! D74   D(22,23,24,28)       -175.8602                                         !
 ! D75   D(22,23,24,36)          1.8715                                         !
 ! D76   D(25,23,24,28)          2.923                                          !
 ! D77   D(25,23,24,36)       -179.3453                                         !
 ! D78   D(22,23,25,26)        177.517                                          !
 ! D79   D(22,23,25,27)         -5.9336                                         !
 ! D80   D(24,23,25,26)         -1.2821                                         !
 ! D81   D(24,23,25,27)        175.2673                                         !
 ! D82   D(23,24,28,26)         -3.5359                                         !
 ! D83   D(23,24,28,37)       -168.1822                                         !
 ! D84   D(36,24,28,26)        178.4758                                         !
 ! D85   D(36,24,28,37)         13.8295                                         !
 ! D86   D(23,25,26,28)         -0.8044                                         !
 ! D87   D(23,25,26,29)        178.3261                                         !
 ! D88   D(27,25,26,28)       -177.9605                                         !
 ! D89   D(27,25,26,29)          1.17                                           !
 ! D90   D(23,25,27,30)       -176.3186                                         !
 ! D91   D(23,25,27,38)          2.9993                                         !
 ! D92   D(26,25,27,30)         -0.082                                          !
 ! D93   D(26,25,27,38)        179.2359                                         !
 ! D94   D(25,26,28,24)          2.6148                                         !
 ! D95   D(25,26,28,37)        167.1629                                         !
 ! D96   D(29,26,28,24)       -176.4196                                         !
 ! D97   D(29,26,28,37)        -11.8716                                         !
 ! D98   D(25,26,29,31)         -1.2047                                         !
 ! D99   D(25,26,29,39)       -179.6727                                         !
 ! D100  D(28,26,29,31)        177.7025                                         !
 ! D101  D(28,26,29,39)         -0.7654                                         !
 ! D102  D(25,27,30,31)         -0.9125                                         !
 ! D103  D(25,27,30,40)        178.6348                                         !
 ! D104  D(38,27,30,31)        179.7667                                         !
 ! D105  D(38,27,30,40)         -0.686                                          !
 ! D106  D(26,29,31,30)          0.1834                                         !
 ! D107  D(26,29,31,41)       -178.6698                                         !
 ! D108  D(39,29,31,30)        178.6526                                         !
 ! D109  D(39,29,31,41)         -0.2006                                         !
 ! D110  D(27,30,31,29)          0.8795                                         !
 ! D111  D(27,30,31,41)        179.7312                                         !
 ! D112  D(40,30,31,29)       -178.6692                                         !
 ! D113  D(40,30,31,41)          0.1824                                         !
 ! D114  D(20,42,43,44)        -56.9856                                         !
 ! D115  D(20,42,43,46)       -177.1604                                         !
 ! D116  D(20,42,43,51)         67.3291                                         !
 ! D117  D(50,42,43,44)        101.8225                                         !
 ! D118  D(50,42,43,46)        -18.3523                                         !
 ! D119  D(50,42,43,51)       -133.8628                                         !
 ! D120  D(42,43,44,45)        -17.4196                                         !
 ! D121  D(42,43,44,56)        170.756                                          !
 ! D122  D(46,43,44,45)        101.4597                                         !
 ! D123  D(46,43,44,56)        -70.3647                                         !
 ! D124  D(51,43,44,45)       -141.8622                                         !
 ! D125  D(51,43,44,56)         46.3134                                         !
 ! D126  D(42,43,46,47)         68.6253                                         !
 ! D127  D(42,43,46,48)       -164.9359                                         !
 ! D128  D(42,43,46,52)        -51.5626                                         !
 ! D129  D(44,43,46,47)        -53.3195                                         !
 ! D130  D(44,43,46,48)         73.1193                                         !
 ! D131  D(44,43,46,52)       -173.5073                                         !
 ! D132  D(51,43,46,47)       -172.7836                                         !
 ! D133  D(51,43,46,48)        -46.3448                                         !
 ! D134  D(51,43,46,52)         67.0286                                         !
 ! D135  D(43,44,56,57)        -50.3381                                         !
 ! D136  D(43,44,56,69)        172.1438                                         !
 ! D137  D(45,44,56,57)        137.6925                                         !
 ! D138  D(45,44,56,69)          0.1745                                         !
 ! D139  D(43,46,47,53)       -176.2369                                         !
 ! D140  D(43,46,47,54)         64.3318                                         !
 ! D141  D(43,46,47,55)        -55.8845                                         !
 ! D142  D(48,46,47,53)         57.501                                          !
 ! D143  D(48,46,47,54)        -61.9302                                         !
 ! D144  D(48,46,47,55)        177.8534                                         !
 ! D145  D(52,46,47,53)        -58.7872                                         !
 ! D146  D(52,46,47,54)       -178.2184                                         !
 ! D147  D(52,46,47,55)         61.5652                                         !
 ! D148  D(43,46,48,49)        -86.3107                                         !
 ! D149  D(47,46,48,49)         41.4598                                         !
 ! D150  D(52,46,48,49)        160.4843                                         !
 ! D151  D(44,56,57,58)         83.4007                                         !
 ! D152  D(44,56,57,60)        -48.4466                                         !
 ! D153  D(44,56,57,70)       -165.8946                                         !
 ! D154  D(69,56,57,58)       -140.1466                                         !
 ! D155  D(69,56,57,60)         88.006                                          !
 ! D156  D(69,56,57,70)        -29.442                                          !
 ! D157  D(56,57,58,59)         86.4069                                         !
 ! D158  D(56,57,58,67)        -96.8492                                         !
 ! D159  D(60,57,58,59)       -142.2206                                         !
 ! D160  D(60,57,58,67)         34.5233                                         !
 ! D161  D(70,57,58,59)        -24.2815                                         !
 ! D162  D(70,57,58,67)        152.4624                                         !
 ! D163  D(56,57,60,61)       -168.6703                                         !
 ! D164  D(56,57,60,71)         69.868                                          !
 ! D165  D(56,57,60,72)        -46.2219                                         !
 ! D166  D(58,57,60,61)         59.4291                                         !
 ! D167  D(58,57,60,71)        -62.0326                                         !
 ! D168  D(58,57,60,72)       -178.1225                                         !
 ! D169  D(70,57,60,61)        -54.9163                                         !
 ! D170  D(70,57,60,71)       -176.378                                          !
 ! D171  D(70,57,60,72)         67.5321                                         !
 ! D172  D(57,58,67,68)        172.3496                                         !
 ! D173  D(59,58,67,68)        -10.943                                          !
 ! D174  D(57,60,61,62)         50.1101                                         !
 ! D175  D(57,60,61,73)        174.0435                                         !
 ! D176  D(57,60,61,74)        -71.2292                                         !
 ! D177  D(71,60,61,62)        172.588                                          !
 ! D178  D(71,60,61,73)        -63.4785                                         !
 ! D179  D(71,60,61,74)         51.2487                                         !
 ! D180  D(72,60,61,62)        -70.5787                                         !
 ! D181  D(72,60,61,73)         53.3548                                         !
 ! D182  D(72,60,61,74)        168.082                                          !
 ! D183  D(60,61,62,63)         54.9102                                         !
 ! D184  D(60,61,62,75)        176.5506                                         !
 ! D185  D(60,61,62,76)        -65.9845                                         !
 ! D186  D(73,61,62,63)        -68.4668                                         !
 ! D187  D(73,61,62,75)         53.1737                                         !
 ! D188  D(73,61,62,76)        170.6385                                         !
 ! D189  D(74,61,62,63)        177.541                                          !
 ! D190  D(74,61,62,75)        -60.8185                                         !
 ! D191  D(74,61,62,76)         56.6463                                         !
 ! D192  D(61,62,63,64)       -166.8548                                         !
 ! D193  D(61,62,63,77)         15.8733                                         !
 ! D194  D(75,62,63,64)         72.6056                                         !
 ! D195  D(75,62,63,77)       -104.6663                                         !
 ! D196  D(76,62,63,64)        -44.9609                                         !
 ! D197  D(76,62,63,77)        137.7672                                         !
 ! D198  D(62,63,64,65)         -8.6281                                         !
 ! D199  D(62,63,64,66)        169.9576                                         !
 ! D200  D(77,63,64,65)        168.6814                                         !
 ! D201  D(77,63,64,66)        -12.733                                          !
 ! D202  D(63,64,65,78)        172.8742                                         !
 ! D203  D(63,64,65,79)        -18.5202                                         !
 ! D204  D(66,64,65,78)         -5.6979                                         !
 ! D205  D(66,64,65,79)        162.9078                                         !
 ! D206  D(63,64,66,80)        -14.9778                                         !
 ! D207  D(63,64,66,81)        170.748                                          !
 ! D208  D(65,64,66,80)        163.601                                          !
 ! D209  D(65,64,66,81)        -10.6732                                         !
 --------------------------------------------------------------------------------
 Symmetry turned off by external request.
 Stoichiometry    C26H39N8O8(1+)
 Framework group  C1[X(C26H39N8O8)]
 Deg. of freedom   237
 Full point group                 C1      NOp   1
                          Input orientation:                          
 ---------------------------------------------------------------------
 Center     Atomic      Atomic             Coordinates (Angstroms)
 Number     Number       Type             X           Y           Z
 ---------------------------------------------------------------------
      1          7           0        9.736051   28.841736   11.303505
      2          6           0        9.841122   28.789940    9.818211
      3          6           0       11.273257   28.854134    9.242493
      4          8           0       11.724417   27.853313    8.697226
      5          6           0        8.896481   29.803135    9.148801
      6          6           0        7.396329   29.447808    9.236558
      7          6           0        6.686515   29.736848   10.548392
      8          8           0        5.584042   30.275103   10.567091
      9          8           0        7.272653   29.373468   11.686786
     10          1           0        8.304432   29.055886   11.575894
     11          1           0        9.516439   27.785031    9.536178
     12          1           0        9.065798   30.821117    9.512432
     13          1           0        9.157116   29.833618    8.086052
     14          1           0        7.256382   28.378114    9.023873
     15          1           0        6.842821   29.995600    8.471095
     16          1           0       10.157102   28.006833   11.712949
     17          1           0       10.279896   29.615044   11.687602
     18          7           0       11.965433   30.032663    9.231385
     19          6           0       11.925110   31.201137   10.090123
     20          6           0       12.322315   32.408446    9.221748
     21          8           0       13.044105   32.238646    8.249937
     22          6           0       12.983654   31.095062   11.235995
     23          6           0       12.768000   29.937513   12.162539
     24          6           0       12.923948   28.599918   11.875915
     25          6           0       12.323442   30.013009   13.535532
     26          6           0       12.201648   28.678675   14.013713
     27          6           0       12.076133   31.077289   14.421574
     28          7           0       12.540005   27.838515   12.967120
     29          6           0       11.821392   28.385301   15.327529
     30          6           0       11.719606   30.789844   15.733278
     31          6           0       11.584632   29.458277   16.179961
     32          1           0       12.795488   30.003559    8.644257
     33          1           0       10.925380   31.325921   10.508390
     34          1           0       12.981904   32.032992   11.803760
     35          1           0       13.963702   31.033421   10.748327
     36          1           0       13.249636   28.118542   10.964416
     37          1           0       12.723235   26.849716   13.060756
     38          1           0       12.172225   32.108079   14.092270
     39          1           0       11.738860   27.359649   15.676068
     40          1           0       11.547946   31.603765   16.432418
     41          1           0       11.308896   29.266570   17.212733
     42          7           0       11.980648   33.664411    9.641746
     43          6           0       10.974863   34.091907   10.598009
     44          6           0        9.571981   33.600343   10.222893
     45          8           0        9.315135   33.209708    9.093573
     46          6           0       10.990190   35.665868   10.617692
     47          6           0       10.474189   36.302827    9.326776
     48          8           0       10.302049   36.164770   11.747807
     49          1           0        9.356975   36.234117   11.535528
     50          1           0       12.291011   34.359108    8.972062
     51          1           0       11.238110   33.771538   11.610315
     52          1           0       12.040280   35.938805   10.773744
     53          1           0       10.581526   37.388417    9.399099
     54          1           0        9.414967   36.065671    9.171325
     55          1           0       11.013276   35.964187    8.436846
     56          7           0        8.541244   33.766453   11.146448
     57          6           0        8.502988   33.401171   12.580758
     58          6           0        9.137979   34.446102   13.506314
     59          8           0        8.528637   35.390825   13.945928
     60          6           0        8.981421   31.968088   12.843541
     61          6           0        8.708882   31.443999   14.263004
     62          6           0        7.275157   31.615374   14.776066
     63          7           0        6.300016   31.017541   13.859364
     64          6           0        4.981495   31.228019   13.914082
     65          7           0        4.447688   31.893937   14.958654
     66          7           0        4.206184   30.800589   12.917417
     67          8           0       10.419806   34.158029   13.828926
     68          1           0       10.766954   34.933808   14.310461
     69          1           0        7.672233   33.509250   10.684892
     70          1           0        7.440359   33.473102   12.822942
     71          1           0       10.059130   31.902296   12.665278
     72          1           0        8.489120   31.330184   12.107468
     73          1           0        8.991787   30.386225   14.305349
     74          1           0        9.367316   31.950406   14.972635
     75          1           0        7.203120   31.147131   15.767653
     76          1           0        7.037128   32.679805   14.896196
     77          1           0        6.636882   30.359857   13.147958
     78          1           0        3.472293   32.153314   14.962411
     79          1           0        4.953632   31.999763   15.824876
     80          1           0        4.638281   30.525208   12.017217
     81          1           0        3.200060   30.821776   12.995648
 ---------------------------------------------------------------------
 Rotational constants (GHZ):           0.0875598           0.0774213           0.0679499
 Standard basis: 6-31G(d) (6D, 7F)
   708 basis functions,  1332 primitive gaussians,   708 cartesian basis functions
   157 alpha electrons      157 beta electrons
       nuclear repulsion energy      5782.6576564655 Hartrees.
 NAtoms=   81 NActive=   81 NUniq=   81 SFac= 1.00D+00 NAtFMM=   60 NAOKFM=T Big=T
 Integral buffers will be    131072 words long.
 Raffenetti 2 integral format.
 Two-electron integral symmetry is turned off.
 Nuclear repulsion after empirical dispersion term =     5782.5242182494 Hartrees.
 One-electron integrals computed using PRISM.
 NBasis=   708 RedAO= T EigKep=  3.65D-04  NBF=   708
 NBsUse=   708 1.00D-06 EigRej= -1.00D+00 NBFU=   708
 Initial guess from the checkpoint file:  "conf-746.chk"
 B after Tr=     0.000000    0.000000    0.000000
         Rot=    1.000000    0.000000    0.000000    0.000000 Ang=   0.00 deg.
 Requested convergence on RMS density matrix=1.00D-08 within 128 cycles.
 Requested convergence on MAX density matrix=1.00D-06.
 Requested convergence on             energy=1.00D-06.
 No special actions if energy rises.
 SCF Done:  E(RB3LYP) =  -2054.06268907     A.U. after    1 cycles
            NFock=  1  Conv=0.68D-08     -V/T= 2.0093

 **********************************************************************

            Population analysis using the SCF Density.

 **********************************************************************

 Alpha  occ. eigenvalues --  -19.30621 -19.28369 -19.24725 -19.24686 -19.24632
 Alpha  occ. eigenvalues --  -19.23192 -19.20445 -19.19983 -14.51570 -14.50124
 Alpha  occ. eigenvalues --  -14.49166 -14.47704 -14.47380 -14.47292 -14.45229
 Alpha  occ. eigenvalues --  -14.44443 -10.46969 -10.42997 -10.42913 -10.39916
 Alpha  occ. eigenvalues --  -10.37978 -10.37827 -10.35977 -10.35957 -10.34782
 Alpha  occ. eigenvalues --  -10.33929 -10.33819 -10.33696 -10.31513 -10.31265
 Alpha  occ. eigenvalues --  -10.31061 -10.30916 -10.30315 -10.29848 -10.29298
 Alpha  occ. eigenvalues --  -10.28307 -10.28150 -10.28004 -10.27964 -10.27747
 Alpha  occ. eigenvalues --  -10.27465 -10.27162  -1.21352  -1.19828  -1.15469
 Alpha  occ. eigenvalues --   -1.15207  -1.12916  -1.12542  -1.12368  -1.11983
 Alpha  occ. eigenvalues --   -1.11353  -1.07468  -1.04912  -1.03497  -1.03368
 Alpha  occ. eigenvalues --   -1.02981  -1.01885  -1.01075  -0.93331  -0.92459
 Alpha  occ. eigenvalues --   -0.90239  -0.89721  -0.87493  -0.86500  -0.85188
 Alpha  occ. eigenvalues --   -0.82935  -0.82010  -0.81480  -0.81222  -0.80630
 Alpha  occ. eigenvalues --   -0.77988  -0.76419  -0.74631  -0.73873  -0.73489
 Alpha  occ. eigenvalues --   -0.72400  -0.71551  -0.71508  -0.70097  -0.69674
 Alpha  occ. eigenvalues --   -0.68958  -0.68573  -0.68270  -0.66665  -0.65478
 Alpha  occ. eigenvalues --   -0.64853  -0.64626  -0.63524  -0.63361  -0.63101
 Alpha  occ. eigenvalues --   -0.61362  -0.61067  -0.60714  -0.59958  -0.59798
 Alpha  occ. eigenvalues --   -0.59492  -0.59280  -0.58891  -0.58049  -0.57788
 Alpha  occ. eigenvalues --   -0.57242  -0.56583  -0.56433  -0.56118  -0.55852
 Alpha  occ. eigenvalues --   -0.55622  -0.55153  -0.54929  -0.54661  -0.54318
 Alpha  occ. eigenvalues --   -0.53838  -0.52959  -0.52656  -0.52345  -0.52104
 Alpha  occ. eigenvalues --   -0.51559  -0.51438  -0.51078  -0.50607  -0.50119
 Alpha  occ. eigenvalues --   -0.49983  -0.49614  -0.49251  -0.49054  -0.48004
 Alpha  occ. eigenvalues --   -0.47875  -0.47658  -0.47360  -0.47331  -0.46913
 Alpha  occ. eigenvalues --   -0.46657  -0.46386  -0.45901  -0.45675  -0.45260
 Alpha  occ. eigenvalues --   -0.44529  -0.44426  -0.42938  -0.42757  -0.42604
 Alpha  occ. eigenvalues --   -0.42443  -0.42225  -0.41889  -0.40825  -0.39552
 Alpha  occ. eigenvalues --   -0.39268  -0.38291  -0.37845  -0.37141  -0.36822
 Alpha  occ. eigenvalues --   -0.35658  -0.34851  -0.34742  -0.33575  -0.33009
 Alpha  occ. eigenvalues --   -0.31861  -0.29808
 Alpha virt. eigenvalues --   -0.11375  -0.10888  -0.10809  -0.10481  -0.10209
 Alpha virt. eigenvalues --   -0.07715  -0.07528  -0.07102  -0.06946  -0.05152
 Alpha virt. eigenvalues --   -0.04236  -0.03695  -0.03225  -0.02292  -0.01776
 Alpha virt. eigenvalues --   -0.01001  -0.00726  -0.00474  -0.00028   0.00206
 Alpha virt. eigenvalues --    0.01403   0.01589   0.01623   0.02155   0.02659
 Alpha virt. eigenvalues --    0.03098   0.03429   0.03794   0.03949   0.04381
 Alpha virt. eigenvalues --    0.04920   0.05478   0.05963   0.06383   0.06755
 Alpha virt. eigenvalues --    0.06799   0.07322   0.07592   0.07841   0.08164
 Alpha virt. eigenvalues --    0.08604   0.08644   0.08832   0.09278   0.09420
 Alpha virt. eigenvalues --    0.09681   0.09984   0.10072   0.10563   0.10981
 Alpha virt. eigenvalues --    0.11270   0.11388   0.11838   0.12151   0.12930
 Alpha virt. eigenvalues --    0.13197   0.13521   0.14062   0.14179   0.14495
 Alpha virt. eigenvalues --    0.15068   0.15525   0.16153   0.16420   0.16504
 Alpha virt. eigenvalues --    0.16980   0.17616   0.17980   0.18469   0.19258
 Alpha virt. eigenvalues --    0.19678   0.20080   0.20497   0.22108   0.23196
 Alpha virt. eigenvalues --    0.23594   0.25006   0.25151   0.25669   0.26199
 Alpha virt. eigenvalues --    0.27174   0.27978   0.28606   0.28844   0.30008
 Alpha virt. eigenvalues --    0.30411   0.31636   0.32374   0.33266   0.34807
 Alpha virt. eigenvalues --    0.36390   0.37350   0.37691   0.38126   0.39005
 Alpha virt. eigenvalues --    0.40422   0.40891   0.41132   0.41667   0.42343
 Alpha virt. eigenvalues --    0.42630   0.43115   0.43505   0.43813   0.44369
 Alpha virt. eigenvalues --    0.44853   0.45111   0.45631   0.45970   0.46223
 Alpha virt. eigenvalues --    0.46616   0.46868   0.47231   0.47724   0.48127
 Alpha virt. eigenvalues --    0.48476   0.48777   0.49387   0.49603   0.50135
 Alpha virt. eigenvalues --    0.50480   0.50627   0.50854   0.51436   0.51566
 Alpha virt. eigenvalues --    0.52061   0.52693   0.53172   0.53198   0.53661
 Alpha virt. eigenvalues --    0.53867   0.54078   0.54500   0.54856   0.55476
 Alpha virt. eigenvalues --    0.55755   0.56599   0.56783   0.57039   0.57238
 Alpha virt. eigenvalues --    0.57818   0.58212   0.59037   0.59119   0.59616
 Alpha virt. eigenvalues --    0.60166   0.60500   0.60744   0.61243   0.61361
 Alpha virt. eigenvalues --    0.62216   0.63212   0.63636   0.64358   0.64956
 Alpha virt. eigenvalues --    0.65448   0.65993   0.66568   0.66822   0.67763
 Alpha virt. eigenvalues --    0.68320   0.68995   0.69303   0.69909   0.70714
 Alpha virt. eigenvalues --    0.71422   0.71695   0.71853   0.72453   0.72823
 Alpha virt. eigenvalues --    0.73285   0.73545   0.74026   0.74089   0.74442
 Alpha virt. eigenvalues --    0.74503   0.75448   0.75544   0.75845   0.76550
 Alpha virt. eigenvalues --    0.76732   0.77032   0.77444   0.77571   0.78045
 Alpha virt. eigenvalues --    0.78191   0.78908   0.79153   0.79452   0.79883
 Alpha virt. eigenvalues --    0.80052   0.80316   0.80491   0.80880   0.81059
 Alpha virt. eigenvalues --    0.81324   0.81809   0.82316   0.82648   0.83391
 Alpha virt. eigenvalues --    0.83485   0.83662   0.84044   0.84344   0.84850
 Alpha virt. eigenvalues --    0.85090   0.85275   0.86068   0.86437   0.87339
 Alpha virt. eigenvalues --    0.87537   0.88241   0.88717   0.89601   0.89682
 Alpha virt. eigenvalues --    0.90078   0.90671   0.91451   0.91918   0.92588
 Alpha virt. eigenvalues --    0.93335   0.93655   0.94294   0.95037   0.95369
 Alpha virt. eigenvalues --    0.95674   0.96022   0.96513   0.97295   0.97453
 Alpha virt. eigenvalues --    0.98953   0.99303   1.00306   1.00431   1.00982
 Alpha virt. eigenvalues --    1.01220   1.02058   1.02859   1.03287   1.04161
 Alpha virt. eigenvalues --    1.05356   1.05797   1.06337   1.06748   1.06928
 Alpha virt. eigenvalues --    1.07993   1.08649   1.09170   1.09340   1.10428
 Alpha virt. eigenvalues --    1.11319   1.11749   1.12332   1.13256   1.13473
 Alpha virt. eigenvalues --    1.14156   1.15081   1.15381   1.15925   1.17370
 Alpha virt. eigenvalues --    1.17562   1.19525   1.19986   1.20436   1.20868
 Alpha virt. eigenvalues --    1.21453   1.22167   1.23375   1.23941   1.24167
 Alpha virt. eigenvalues --    1.25471   1.26553   1.27671   1.28112   1.28509
 Alpha virt. eigenvalues --    1.30182   1.30499   1.30824   1.31776   1.32078
 Alpha virt. eigenvalues --    1.32786   1.33406   1.33740   1.34303   1.35100
 Alpha virt. eigenvalues --    1.35479   1.36059   1.37681   1.38165   1.38416
 Alpha virt. eigenvalues --    1.38846   1.40477   1.41117   1.41611   1.41943
 Alpha virt. eigenvalues --    1.42638   1.43350   1.43960   1.44835   1.45213
 Alpha virt. eigenvalues --    1.45676   1.46834   1.47708   1.48387   1.48882
 Alpha virt. eigenvalues --    1.49352   1.50378   1.51723   1.52718   1.52968
 Alpha virt. eigenvalues --    1.53292   1.53837   1.54927   1.55310   1.55770
 Alpha virt. eigenvalues --    1.56387   1.57182   1.58836   1.59741   1.59994
 Alpha virt. eigenvalues --    1.61725   1.62068   1.62961   1.64125   1.64423
 Alpha virt. eigenvalues --    1.65033   1.65883   1.66337   1.66989   1.67505
 Alpha virt. eigenvalues --    1.68272   1.69062   1.69391   1.69474   1.70251
 Alpha virt. eigenvalues --    1.70606   1.70894   1.71474   1.72062   1.72727
 Alpha virt. eigenvalues --    1.72823   1.73037   1.73993   1.74251   1.74853
 Alpha virt. eigenvalues --    1.75391   1.76312   1.76954   1.77055   1.77662
 Alpha virt. eigenvalues --    1.78024   1.78910   1.79187   1.79254   1.80418
 Alpha virt. eigenvalues --    1.80753   1.81261   1.81726   1.82354   1.82535
 Alpha virt. eigenvalues --    1.83046   1.83658   1.84282   1.84369   1.84616
 Alpha virt. eigenvalues --    1.85220   1.85945   1.86822   1.86939   1.87458
 Alpha virt. eigenvalues --    1.88268   1.89087   1.89260   1.90068   1.90898
 Alpha virt. eigenvalues --    1.91164   1.91481   1.91777   1.92583   1.92836
 Alpha virt. eigenvalues --    1.94030   1.94444   1.94979   1.95607   1.96137
 Alpha virt. eigenvalues --    1.96208   1.97604   1.98462   1.98690   1.98916
 Alpha virt. eigenvalues --    1.99305   2.00188   2.01394   2.02580   2.02936
 Alpha virt. eigenvalues --    2.03924   2.04517   2.04714   2.05175   2.05985
 Alpha virt. eigenvalues --    2.06978   2.08303   2.08702   2.09799   2.10342
 Alpha virt. eigenvalues --    2.11243   2.11610   2.12581   2.13659   2.14345
 Alpha virt. eigenvalues --    2.16040   2.16564   2.16720   2.17328   2.17896
 Alpha virt. eigenvalues --    2.19130   2.19475   2.20071   2.20485   2.21206
 Alpha virt. eigenvalues --    2.22592   2.23146   2.23819   2.24426   2.25743
 Alpha virt. eigenvalues --    2.26981   2.27687   2.28791   2.28994   2.29559
 Alpha virt. eigenvalues --    2.30190   2.30769   2.31345   2.31851   2.33626
 Alpha virt. eigenvalues --    2.34089   2.34586   2.35816   2.36250   2.38084
 Alpha virt. eigenvalues --    2.38767   2.39579   2.40124   2.41565   2.42072
 Alpha virt. eigenvalues --    2.42206   2.42724   2.43720   2.44507   2.45904
 Alpha virt. eigenvalues --    2.46633   2.46848   2.47066   2.47309   2.49199
 Alpha virt. eigenvalues --    2.50160   2.50489   2.51008   2.51307   2.51969
 Alpha virt. eigenvalues --    2.52279   2.53675   2.55319   2.55978   2.56813
 Alpha virt. eigenvalues --    2.57200   2.57376   2.58037   2.59011   2.59305
 Alpha virt. eigenvalues --    2.60594   2.61045   2.61520   2.61965   2.64188
 Alpha virt. eigenvalues --    2.65284   2.66589   2.67338   2.67684   2.69081
 Alpha virt. eigenvalues --    2.69815   2.71012   2.72929   2.74204   2.74783
 Alpha virt. eigenvalues --    2.76655   2.77962   2.79411   2.82678   2.84141
 Alpha virt. eigenvalues --    2.86016   2.88716   2.89188   2.89860   2.90442
 Alpha virt. eigenvalues --    2.90978   2.91929   2.93181   2.94460   2.98128
 Alpha virt. eigenvalues --    2.98824   2.99562   2.99945   3.01197   3.02566
 Alpha virt. eigenvalues --    3.05043   3.11541   3.15581   3.34775   3.67530
 Alpha virt. eigenvalues --    3.76275   3.78963   3.84054   3.86681   3.88048
 Alpha virt. eigenvalues --    3.90289   3.91138   3.95289   3.97220   4.00914
 Alpha virt. eigenvalues --    4.01337   4.02242   4.03216   4.04889   4.07200
 Alpha virt. eigenvalues --    4.07842   4.09814   4.13853   4.14401   4.15733
 Alpha virt. eigenvalues --    4.16537   4.21603   4.22414   4.23754   4.25130
 Alpha virt. eigenvalues --    4.26537   4.30387   4.32694   4.34628   4.37465
 Alpha virt. eigenvalues --    4.38508   4.40013   4.42974   4.46582   4.48930
 Alpha virt. eigenvalues --    4.50647   4.57574   4.58354   4.62588   4.69099
 Alpha virt. eigenvalues --    4.70993
          Condensed to atoms (all electrons):
 Mulliken charges:
               1
     1  N   -0.841024
     2  C   -0.067721
     3  C    0.578223
     4  O   -0.496105
     5  C   -0.324391
     6  C   -0.373043
     7  C    0.613036
     8  O   -0.499183
     9  O   -0.642620
    10  H    0.487272
    11  H    0.191850
    12  H    0.185610
    13  H    0.203531
    14  H    0.193514
    15  H    0.205242
    16  H    0.364133
    17  H    0.371487
    18  N   -0.571436
    19  C   -0.077165
    20  C    0.643550
    21  O   -0.499954
    22  C   -0.366155
    23  C    0.047275
    24  C   -0.022758
    25  C    0.061924
    26  C    0.294656
    27  C   -0.216698
    28  N   -0.690253
    29  C   -0.164459
    30  C   -0.151628
    31  C   -0.156060
    32  H    0.361674
    33  H    0.127242
    34  H    0.165993
    35  H    0.188498
    36  H    0.201337
    37  H    0.348447
    38  H    0.142253
    39  H    0.145955
    40  H    0.133366
    41  H    0.144517
    42  N   -0.615646
    43  C   -0.056239
    44  C    0.562545
    45  O   -0.483792
    46  C    0.106718
    47  C   -0.493262
    48  O   -0.623411
    49  H    0.411597
    50  H    0.349256
    51  H    0.182584
    52  H    0.171727
    53  H    0.189435
    54  H    0.166410
    55  H    0.172198
    56  N   -0.609495
    57  C   -0.050177
    58  C    0.621125
    59  O   -0.455269
    60  C   -0.314599
    61  C   -0.314237
    62  C   -0.164484
    63  N   -0.643858
    64  C    0.801699
    65  N   -0.763227
    66  N   -0.793365
    67  O   -0.568660
    68  H    0.433313
    69  H    0.342780
    70  H    0.177288
    71  H    0.176008
    72  H    0.147023
    73  H    0.176588
    74  H    0.188176
    75  H    0.177755
    76  H    0.181710
    77  H    0.421132
    78  H    0.377411
    79  H    0.382575
    80  H    0.429248
    81  H    0.363487
 Sum of Mulliken charges =   1.00000
 Mulliken charges with hydrogens summed into heavy atoms:
               1
     1  N   -0.105404
     2  C    0.124129
     3  C    0.578223
     4  O   -0.496105
     5  C    0.064750
     6  C    0.025713
     7  C    0.613036
     8  O   -0.499183
     9  O   -0.155348
    18  N   -0.209763
    19  C    0.050077
    20  C    0.643550
    21  O   -0.499954
    22  C   -0.011664
    23  C    0.047275
    24  C    0.178579
    25  C    0.061924
    26  C    0.294656
    27  C   -0.074446
    28  N   -0.341806
    29  C   -0.018504
    30  C   -0.018262
    31  C   -0.011543
    42  N   -0.266390
    43  C    0.126345
    44  C    0.562545
    45  O   -0.483792
    46  C    0.278446
    47  C    0.034781
    48  O   -0.211814
    56  N   -0.266715
    57  C    0.127112
    58  C    0.621125
    59  O   -0.455269
    60  C    0.008432
    61  C    0.050526
    62  C    0.194981
    63  N   -0.222727
    64  C    0.801699
    65  N   -0.003241
    66  N   -0.000629
    67  O   -0.135347
 Electronic spatial extent (au):  <R**2>=        1392954.2249
 Charge=              1.0000 electrons
 Dipole moment (field-independent basis, Debye):
    X=             35.3876    Y=            149.7491    Z=             67.0344  Tot=            167.8412
 Quadrupole moment (field-independent basis, Debye-Ang):
   XX=             70.4365   YY=           4457.9541   ZZ=            692.5135
   XY=           1100.7670   XZ=            494.7507   YZ=           2078.4429
 Traceless Quadrupole moment (field-independent basis, Debye-Ang):
   XX=          -1669.8648   YY=           2717.6527   ZZ=          -1047.7879
   XY=           1100.7670   XZ=            494.7507   YZ=           2078.4429
 Octapole moment (field-independent basis, Debye-Ang**2):
  XXX=          -4134.1509  YYY=         125646.1234  ZZZ=           4562.8150  XYY=          32240.6833
  XXY=           2117.2779  XXZ=           1569.2277  XZZ=           4413.2697  YZZ=          21291.0807
  YYZ=          61928.3207  XYZ=          15227.0013
 Hexadecapole moment (field-independent basis, Debye-Ang**3):
 XXXX=        -119572.0827 YYYY=        3276471.6315 ZZZZ=         -22740.4970 XXXY=        -130426.6027
 XXXZ=         -40180.7047 YYYX=         876519.7648 YYYZ=        1760122.4574 ZZZX=           9780.4451
 ZZZY=         136725.7317 XXYY=          41899.4325 XXZZ=            382.6806 YYZZ=         621962.2728
 XXYZ=          46029.6085 YYXZ=         445170.9950 ZZXY=         133147.9432
 N-N= 5.782524218249D+03 E-N=-1.632066796961D+04  KE= 2.035192484470D+03
 Unable to Open any file for archive entry.
 1\1\GINC-VIM-002\SP\RB3LYP\6-31G(d)\C26H39N8O8(1+)\KENGMITH\27-May-202
 2\0\\# B3LYP/6-31G* empiricaldispersion=gd3 guess=read geom=check nosy
 mm integral(ultrafinegrid)\\Candidate Structure: Conf:746 Charge calc 
 in gas phase\\1,1\N,0,9.7360506825,28.8417361824,11.3035051693\C,0,9.8
 411217597,28.7899400503,9.8182108803\C,0,11.2732574925,28.8541336905,9
 .2424925591\O,0,11.7244172003,27.8533126035,8.6972263631\C,0,8.8964814
 457,29.803135262,9.1488009464\C,0,7.3963288235,29.4478080118,9.2365575
 808\C,0,6.6865152809,29.7368476477,10.5483918129\O,0,5.5840418274,30.2
 751029478,10.5670906831\O,0,7.2726528488,29.3734680108,11.6867864934\H
 ,0,8.3044321014,29.0558856252,11.5758938149\H,0,9.5164385015,27.785031
 4749,9.536177903\H,0,9.0657982493,30.8211169144,9.5124322038\H,0,9.157
 1157461,29.8336181459,8.0860524687\H,0,7.2563819444,28.3781144692,9.02
 38725472\H,0,6.8428211783,29.9955999882,8.4710946433\H,0,10.1571019516
 ,28.006833215,11.7129489799\H,0,10.279895856,29.6150437456,11.68760188
 87\N,0,11.965433468,30.0326628231,9.2313847961\C,0,11.9251095875,31.20
 11367193,10.0901229046\C,0,12.3223147175,32.4084457138,9.2217480046\O,
 0,13.0441049492,32.238646416,8.2499365341\C,0,12.9836539677,31.0950622
 27,11.2359953136\C,0,12.7680003364,29.9375134992,12.1625386867\C,0,12.
 9239479563,28.599918263,11.8759154733\C,0,12.3234417255,30.0130090368,
 13.5355318534\C,0,12.2016476566,28.6786749838,14.0137125586\C,0,12.076
 133193,31.0772892053,14.4215739711\N,0,12.540004868,27.8385153916,12.9
 671197499\C,0,11.8213916232,28.3853007127,15.3275290153\C,0,11.7196062
 968,30.7898437323,15.733277552\C,0,11.5846324006,29.4582771706,16.1799
 613366\H,0,12.7954880431,30.0035586627,8.6442568495\H,0,10.9253800108,
 31.3259205144,10.5083898472\H,0,12.9819044657,32.032991792,11.80375992
 83\H,0,13.963702325,31.0334209965,10.7483268427\H,0,13.2496359323,28.1
 185419074,10.9644162769\H,0,12.7232350134,26.8497164664,13.0607558483\
 H,0,12.1722246666,32.1080790076,14.0922702519\H,0,11.7388600417,27.359
 6485539,15.6760678864\H,0,11.54794577,31.6037652914,16.4324182462\H,0,
 11.3088957009,29.2665703216,17.212733234\N,0,11.9806483867,33.66441089
 22,9.641745618\C,0,10.9748625375,34.0919069172,10.5980088526\C,0,9.571
 980636,33.6003432858,10.2228925851\O,0,9.3151351433,33.2097076231,9.09
 35730244\C,0,10.9901896565,35.6658678267,10.6176915214\C,0,10.47418901
 9,36.3028274046,9.3267756864\O,0,10.3020490412,36.16476951,11.74780652
 79\H,0,9.3569750645,36.2341174782,11.5355277274\H,0,12.2910105082,34.3
 591079403,8.9720621211\H,0,11.2381095287,33.7715377622,11.6103149618\H
 ,0,12.0402798353,35.9388047432,10.773743851\H,0,10.5815259944,37.38841
 68853,9.3990985424\H,0,9.4149672719,36.0656705183,9.1713246788\H,0,11.
 0132756171,35.9641870211,8.4368462129\N,0,8.5412435458,33.7664531906,1
 1.1464475426\C,0,8.5029878742,33.4011709271,12.5807583395\C,0,9.137979
 4432,34.4461019809,13.5063142584\O,0,8.5286370355,35.3908253718,13.945
 9278128\C,0,8.9814207526,31.9680882647,12.8435413485\C,0,8.7088823517,
 31.4439987656,14.2630036757\C,0,7.2751565358,31.6153741128,14.77606626
 74\N,0,6.3000162619,31.0175414643,13.8593640832\C,0,4.9814949942,31.22
 8019252,13.9140824297\N,0,4.4476877216,31.8939368757,14.9586538589\N,0
 ,4.2061842735,30.8005894945,12.9174171601\O,0,10.4198062252,34.1580285
 117,13.8289264324\H,0,10.7669535075,34.9338080882,14.3104607634\H,0,7.
 67223279,33.5092503239,10.6848917781\H,0,7.4403589446,33.4731018011,12
 .8229424778\H,0,10.0591304872,31.902296186,12.6652778166\H,0,8.4891204
 99,31.3301840627,12.1074682124\H,0,8.9917870146,30.3862254429,14.30534
 89467\H,0,9.3673155206,31.9504064323,14.9726351625\H,0,7.2031204873,31
 .1471313382,15.7676529038\H,0,7.037127843,32.6798047904,14.8961957667\
 H,0,6.6368817077,30.3598571536,13.1479584806\H,0,3.4722928755,32.15331
 35182,14.9624107475\H,0,4.9536319509,31.9997627324,15.8248760615\H,0,4
 .6382810093,30.5252081748,12.0172165187\H,0,3.2000604918,30.8217756315
 ,12.9956481337\\Version=ES64L-G16RevC.01\HF=-2054.0626891\RMSD=6.774e-
 09\Dipole=-4.5395036,-0.5153293,3.9876189\Quadrupole=-1241.5035815,202
 0.5081788,-779.0045973,818.3932855,367.8349848,1545.2713458\PG=C01 [X(
 C26H39N8O8)]\\@
 The archive entry for this job was punched.


 SLITHERY-DITHERY
 FRIEDRICH A. KEKULE
 DREAMT ON A BUS OF THINGS
 FREUD WOULD THINK KEEN.
 MOST OF THE TIME THEY WERE
 HERPETOLOGICAL
 BITING THEIR TAILS IN THE
 SHAPE OF BENZENE.
 Job cpu time:       0 days  0 hours  3 minutes 28.4 seconds.
 Elapsed time:       0 days  0 hours  0 minutes 53.2 seconds.
 File lengths (MBytes):  RWF=    376 Int=      0 D2E=      0 Chk=     56 Scr=     16
 Normal termination of Gaussian 16 at Fri May 27 05:13:00 2022.
