 Entering Gaussian System, Link 0=/opt/software/Gaussian/g16-AVX2-C.01/g16/g16
 Input=charge-conf-102.com
 Output=charge-conf-102.log
 Initial command:
 /opt/software/Gaussian/g16-AVX2-C.01/g16/l1.exe "/mnt/gs18/scratch/users/kengmith/Gau-17082.inp" -scrdir="/mnt/gs18/scratch/users/kengmith/"
 Entering Link 1 = /opt/software/Gaussian/g16-AVX2-C.01/g16/l1.exe PID=     17092.
  
 Copyright (c) 1988-2019, Gaussian, Inc.  All Rights Reserved.
  
 This is part of the Gaussian(R) 16 program.  It is based on
 the Gaussian(R) 09 system (copyright 2009, Gaussian, Inc.),
 the Gaussian(R) 03 system (copyright 2003, Gaussian, Inc.),
 the Gaussian(R) 98 system (copyright 1998, Gaussian, Inc.),
 the Gaussian(R) 94 system (copyright 1995, Gaussian, Inc.),
 the Gaussian 92(TM) system (copyright 1992, Gaussian, Inc.),
 the Gaussian 90(TM) system (copyright 1990, Gaussian, Inc.),
 the Gaussian 88(TM) system (copyright 1988, Gaussian, Inc.),
 the Gaussian 86(TM) system (copyright 1986, Carnegie Mellon
 University), and the Gaussian 82(TM) system (copyright 1983,
 Carnegie Mellon University). Gaussian is a federally registered
 trademark of Gaussian, Inc.
  
 This software contains proprietary and confidential information,
 including trade secrets, belonging to Gaussian, Inc.
  
 This software is provided under written license and may be
 used, copied, transmitted, or stored only in accord with that
 written license.
  
 The following legend is applicable only to US Government
 contracts under FAR:
  
                    RESTRICTED RIGHTS LEGEND
  
 Use, reproduction and disclosure by the US Government is
 subject to restrictions as set forth in subparagraphs (a)
 and (c) of the Commercial Computer Software - Restricted
 Rights clause in FAR 52.227-19.
  
 Gaussian, Inc.
 340 Quinnipiac St., Bldg. 40, Wallingford CT 06492
  
  
 ---------------------------------------------------------------
 Warning -- This program may not be used in any manner that
 competes with the business of Gaussian, Inc. or will provide
 assistance to any competitor of Gaussian, Inc.  The licensee
 of this program is prohibited from giving any competitor of
 Gaussian, Inc. access to this program.  By using this program,
 the user acknowledges that Gaussian, Inc. is engaged in the
 business of creating and licensing software in the field of
 computational chemistry and represents and warrants to the
 licensee that it is not a competitor of Gaussian, Inc. and that
 it will not use this program in any manner prohibited above.
 ---------------------------------------------------------------
  

 Cite this work as:
 Gaussian 16, Revision C.01,
 M. J. Frisch, G. W. Trucks, H. B. Schlegel, G. E. Scuseria, 
 M. A. Robb, J. R. Cheeseman, G. Scalmani, V. Barone, 
 G. A. Petersson, H. Nakatsuji, X. Li, M. Caricato, A. V. Marenich, 
 J. Bloino, B. G. Janesko, R. Gomperts, B. Mennucci, H. P. Hratchian, 
 J. V. Ortiz, A. F. Izmaylov, J. L. Sonnenberg, D. Williams-Young, 
 F. Ding, F. Lipparini, F. Egidi, J. Goings, B. Peng, A. Petrone, 
 T. Henderson, D. Ranasinghe, V. G. Zakrzewski, J. Gao, N. Rega, 
 G. Zheng, W. Liang, M. Hada, M. Ehara, K. Toyota, R. Fukuda, 
 J. Hasegawa, M. Ishida, T. Nakajima, Y. Honda, O. Kitao, H. Nakai, 
 T. Vreven, K. Throssell, J. A. Montgomery, Jr., J. E. Peralta, 
 F. Ogliaro, M. J. Bearpark, J. J. Heyd, E. N. Brothers, K. N. Kudin, 
 V. N. Staroverov, T. A. Keith, R. Kobayashi, J. Normand, 
 K. Raghavachari, A. P. Rendell, J. C. Burant, S. S. Iyengar, 
 J. Tomasi, M. Cossi, J. M. Millam, M. Klene, C. Adamo, R. Cammi, 
 J. W. Ochterski, R. L. Martin, K. Morokuma, O. Farkas, 
 J. B. Foresman, and D. J. Fox, Gaussian, Inc., Wallingford CT, 2019.
 
 ******************************************
 Gaussian 16:  ES64L-G16RevC.01  3-Jul-2019
                27-May-2022 
 ******************************************
 %mem=8gb
 %nproc=4
 Will use up to    4 processors via shared memory.
 %chk=conf-102.chk
 ----------------------------------------------------------------------
 # B3LYP/6-31G* empiricaldispersion=gd3 guess=read geom=check nosymm in
 tegral(ultrafinegrid)
 ----------------------------------------------------------------------
 1/29=2,38=1,172=1/1;
 2/12=2,15=1,40=1/2;
 3/5=1,6=6,7=1,11=2,14=-4,25=1,30=1,74=-5,75=-5,116=-2,124=31/1,2,3;
 4/5=1/1;
 5/5=2,38=6/2;
 6/7=2,8=2,9=2,10=2,28=1/1;
 99/5=1,9=1/99;
 ------------------------------------------------------
 Candidate Structure: Conf:102 Charge calc in gas phase
 ------------------------------------------------------
 Structure from the checkpoint file:  "conf-102.chk"
 Charge =  1 Multiplicity = 1
 Redundant internal coordinates found in file.  (old form).
 N,0,10.7470391538,30.4190770181,9.4352043599
 C,0,10.7989749226,31.5354535571,8.4508255962
 C,0,12.0306059656,32.4728421312,8.4918092534
 O,0,12.7643325106,32.5148481383,7.5128479839
 C,0,9.4941632078,32.3542355365,8.4657925707
 C,0,8.2626402891,31.6029898271,7.9143304603
 C,0,7.5210010414,30.7024855628,8.8880950915
 O,0,6.2967621106,30.6567803022,8.9033070734
 O,0,8.2274828915,29.9570706354,9.7323812537
 H,0,9.2819615726,30.05099671,9.6013870329
 H,0,10.8878572154,31.0667348764,7.4678116434
 H,0,9.288832769,32.7399656286,9.4724014959
 H,0,9.6549807571,33.2344827646,7.8355126252
 H,0,8.5581715298,30.9860948395,7.0537420448
 H,0,7.5208523213,32.3130850955,7.5422842627
 H,0,11.3775980605,29.670011156,9.1497970957
 H,0,11.0981055317,30.7002620496,10.350020045
 N,0,12.1763594904,33.3580665545,9.527614662
 C,0,11.8099953139,33.2337856164,10.9251838207
 C,0,11.4687332947,34.6442532515,11.4480919336
 O,0,11.9772405371,35.6258042127,10.9275470989
 C,0,12.9872842743,32.6266767654,11.7531835079
 C,0,13.2877448002,31.2114376878,11.3709688977
 C,0,13.9705836217,30.773142607,10.2599695959
 C,0,12.7943214798,30.0317712023,12.0440602111
 C,0,13.205342982,28.9069597266,11.274667645
 C,0,12.0658298022,29.8193728001,13.2299562368
 N,0,13.898562606,29.3941119609,10.1806514649
 C,0,12.901436221,27.5934000233,11.6474322814
 C,0,11.7705443783,28.5137405071,13.605181744
 C,0,12.1769211688,27.413352029,12.8204384743
 H,0,12.8787560037,34.0719421936,9.3533432034
 H,0,10.9342192206,32.5869540209,11.0053417442
 H,0,12.7452172951,32.6738588441,12.8193389685
 H,0,13.8532111748,33.2811049809,11.6015989286
 H,0,14.4722388182,31.3403527942,9.4884840191
 H,0,14.4376409623,28.8306278332,9.5392203574
 H,0,11.7688438163,30.6496064584,13.8651712469
 H,0,13.2304713175,26.7462054387,11.0522620611
 H,0,11.2317079443,28.3337125763,14.531234233
 H,0,11.9359524522,26.4060203573,13.1470450804
 N,0,10.6112597502,34.74699233,12.5087250806
 C,0,10.012995746,33.6969329304,13.311712364
 C,0,8.5407270431,34.0634766309,13.5430500742
 O,0,8.2298141091,35.2470064821,13.5705343361
 C,0,10.7623591711,33.531579383,14.6804268037
 C,0,10.4948333091,34.6503421882,15.6807317634
 O,0,10.5036368796,32.2436924058,15.2270008896
 H,0,9.6894835568,32.2778486319,15.7565478806
 H,0,10.3540143239,35.6969042545,12.7568954701
 H,0,10.1135268992,32.7519799742,12.7869711282
 H,0,11.8268473321,33.5318551658,14.4271162257
 H,0,9.4457471422,34.6589746037,15.9984960595
 H,0,10.7164828606,35.6305747729,15.2488548362
 H,0,11.1268541038,34.5073477292,16.5616623198
 N,0,7.5605915515,33.126352398,13.811579196
 C,0,7.3843718174,31.6740482947,13.7956110087
 C,0,7.0645219625,31.1376866072,15.1939360594
 O,0,6.1835037123,30.3253028453,15.4121419526
 C,0,8.4960751399,30.8483154031,13.1174339135
 C,0,8.3893590927,29.3144698847,13.2143292593
 C,0,7.0461108045,28.6344444064,12.8861385192
 N,0,6.2809005973,29.3106068015,11.8359311594
 C,0,4.9987042299,29.678210969,11.9092287458
 N,0,4.3594516131,29.7344747021,13.0932978088
 N,0,4.3392088948,29.974163736,10.7785513423
 O,0,7.841457981,31.6336537951,16.1719300265
 H,0,7.566682474,31.2261682832,17.0173908021
 H,0,6.6965321109,33.6280247991,13.9961768723
 H,0,6.4631906648,31.4913124609,13.2373200923
 H,0,9.4544540202,31.1074368166,13.5647088494
 H,0,8.5080130752,31.1448708312,12.0628218185
 H,0,9.1697245555,28.9219798951,12.5560992799
 H,0,8.6743704625,28.9886941753,14.2219213474
 H,0,7.2374075182,27.6061529269,12.5589083294
 H,0,6.4295160461,28.565995929,13.7788334144
 H,0,6.7525470391,29.4128450859,10.9366707188
 H,0,3.364347589,29.9007128613,13.1205306412
 H,0,4.8731637998,29.7943219392,13.970615063
 H,0,4.8982131369,30.0682250331,9.9235041518
 H,0,3.5014793086,30.5371471764,10.8320989509
 Recover connectivity data from disk.
                           ----------------------------
                           !    Current Parameters    !
                           ! (Angstroms and Degrees)  !
 --------------------------                            --------------------------
 ! Name  Definition              Value                                          !
 --------------------------------------------------------------------------------
 ! R1    R(1,2)                  1.4893                                         !
 ! R2    R(1,16)                 1.0199                                         !
 ! R3    R(1,17)                 1.0194                                         !
 ! R4    R(2,3)                  1.5483                                         !
 ! R5    R(2,5)                  1.5405                                         !
 ! R6    R(2,11)                 1.0927                                         !
 ! R7    R(3,4)                  1.2241                                         !
 ! R8    R(3,18)                 1.3703                                         !
 ! R9    R(5,6)                  1.5444                                         !
 ! R10   R(5,12)                 1.0974                                         !
 ! R11   R(5,13)                 1.0945                                         !
 ! R12   R(6,7)                  1.5196                                         !
 ! R13   R(6,14)                 1.0993                                         !
 ! R14   R(6,15)                 1.0922                                         !
 ! R15   R(7,8)                  1.2252                                         !
 ! R16   R(7,9)                  1.3295                                         !
 ! R17   R(9,10)                 1.0667                                         !
 ! R18   R(18,19)                1.4501                                         !
 ! R19   R(18,32)                1.0165                                         !
 ! R20   R(19,20)                1.5425                                         !
 ! R21   R(19,22)                1.5621                                         !
 ! R22   R(19,33)                1.0917                                         !
 ! R23   R(20,21)                1.2219                                         !
 ! R24   R(20,42)                1.3678                                         !
 ! R25   R(22,23)                1.4964                                         !
 ! R26   R(22,34)                1.0943                                         !
 ! R27   R(22,35)                1.0959                                         !
 ! R28   R(23,24)                1.3758                                         !
 ! R29   R(23,25)                1.445                                          !
 ! R30   R(24,28)                1.3832                                         !
 ! R31   R(24,36)                1.081                                          !
 ! R32   R(25,26)                1.4234                                         !
 ! R33   R(25,27)                1.4079                                         !
 ! R34   R(26,28)                1.3837                                         !
 ! R35   R(26,29)                1.3988                                         !
 ! R36   R(27,30)                1.3902                                         !
 ! R37   R(27,38)                1.0867                                         !
 ! R38   R(28,37)                1.0097                                         !
 ! R39   R(29,31)                1.3904                                         !
 ! R40   R(29,39)                1.0864                                         !
 ! R41   R(30,31)                1.4113                                         !
 ! R42   R(30,40)                1.0864                                         !
 ! R43   R(31,41)                1.086                                          !
 ! R44   R(42,43)                1.451                                          !
 ! R45   R(42,50)                1.0149                                         !
 ! R46   R(43,44)                1.5347                                         !
 ! R47   R(43,46)                1.5692                                         !
 ! R48   R(43,51)                1.0855                                         !
 ! R49   R(44,45)                1.224                                          !
 ! R50   R(44,56)                1.3824                                         !
 ! R51   R(46,47)                1.5244                                         !
 ! R52   R(46,48)                1.4228                                         !
 ! R53   R(46,52)                1.0942                                         !
 ! R54   R(47,53)                1.0962                                         !
 ! R55   R(47,54)                1.0938                                         !
 ! R56   R(47,55)                1.0936                                         !
 ! R57   R(48,49)                0.9718                                         !
 ! R58   R(56,57)                1.463                                          !
 ! R59   R(56,69)                1.016                                          !
 ! R60   R(57,58)                1.5314                                         !
 ! R61   R(57,60)                1.542                                          !
 ! R62   R(57,70)                1.0925                                         !
 ! R63   R(58,59)                1.2181                                         !
 ! R64   R(58,67)                1.3439                                         !
 ! R65   R(60,61)                1.5406                                         !
 ! R66   R(60,71)                1.0889                                         !
 ! R67   R(60,72)                1.0956                                         !
 ! R68   R(61,62)                1.5409                                         !
 ! R69   R(61,73)                1.0937                                         !
 ! R70   R(61,74)                1.0966                                         !
 ! R71   R(62,63)                1.4648                                         !
 ! R72   R(62,75)                1.0959                                         !
 ! R73   R(62,76)                1.0871                                         !
 ! R74   R(63,64)                1.3359                                         !
 ! R75   R(63,77)                1.0206                                         !
 ! R76   R(64,65)                1.3468                                         !
 ! R77   R(64,66)                1.342                                          !
 ! R78   R(65,78)                1.0093                                         !
 ! R79   R(65,79)                1.0184                                         !
 ! R80   R(66,80)                1.0259                                         !
 ! R81   R(66,81)                1.0107                                         !
 ! R82   R(67,68)                0.9779                                         !
 ! A1    A(2,1,16)             110.1223                                         !
 ! A2    A(2,1,17)             111.986                                          !
 ! A3    A(16,1,17)            103.9336                                         !
 ! A4    A(1,2,3)              117.6501                                         !
 ! A5    A(1,2,5)              111.2511                                         !
 ! A6    A(1,2,11)             106.017                                          !
 ! A7    A(3,2,5)              110.5924                                         !
 ! A8    A(3,2,11)             102.6394                                         !
 ! A9    A(5,2,11)             107.7965                                         !
 ! A10   A(2,3,4)              118.4504                                         !
 ! A11   A(2,3,18)             119.7174                                         !
 ! A12   A(4,3,18)             121.2371                                         !
 ! A13   A(2,5,6)              114.4189                                         !
 ! A14   A(2,5,12)             110.7458                                         !
 ! A15   A(2,5,13)             107.302                                          !
 ! A16   A(6,5,12)             110.4459                                         !
 ! A17   A(6,5,13)             107.623                                          !
 ! A18   A(12,5,13)            105.8446                                         !
 ! A19   A(5,6,7)              116.6556                                         !
 ! A20   A(5,6,14)             109.7629                                         !
 ! A21   A(5,6,15)             110.3014                                         !
 ! A22   A(7,6,14)             107.4761                                         !
 ! A23   A(7,6,15)             105.7888                                         !
 ! A24   A(14,6,15)            106.3053                                         !
 ! A25   A(6,7,8)              121.1806                                         !
 ! A26   A(6,7,9)              118.6753                                         !
 ! A27   A(8,7,9)              120.1441                                         !
 ! A28   A(7,9,10)             113.4492                                         !
 ! A29   A(3,18,19)            130.2599                                         !
 ! A30   A(3,18,32)            113.4264                                         !
 ! A31   A(19,18,32)           113.5768                                         !
 ! A32   A(18,19,20)           107.7125                                         !
 ! A33   A(18,19,22)           110.7166                                         !
 ! A34   A(18,19,33)           108.9182                                         !
 ! A35   A(20,19,22)           110.025                                          !
 ! A36   A(20,19,33)           109.8411                                         !
 ! A37   A(22,19,33)           109.5969                                         !
 ! A38   A(19,20,21)           119.8716                                         !
 ! A39   A(19,20,42)           118.0514                                         !
 ! A40   A(21,20,42)           122.0678                                         !
 ! A41   A(19,22,23)           112.5508                                         !
 ! A42   A(19,22,34)           109.4478                                         !
 ! A43   A(19,22,35)           106.8633                                         !
 ! A44   A(23,22,34)           109.5142                                         !
 ! A45   A(23,22,35)           111.7632                                         !
 ! A46   A(34,22,35)           106.4865                                         !
 ! A47   A(22,23,24)           127.3893                                         !
 ! A48   A(22,23,25)           125.7703                                         !
 ! A49   A(24,23,25)           106.5921                                         !
 ! A50   A(23,24,28)           109.7608                                         !
 ! A51   A(23,24,36)           129.7547                                         !
 ! A52   A(28,24,36)           120.4222                                         !
 ! A53   A(23,25,26)           107.1413                                         !
 ! A54   A(23,25,27)           133.8037                                         !
 ! A55   A(26,25,27)           119.0449                                         !
 ! A56   A(25,26,28)           107.0863                                         !
 ! A57   A(25,26,29)           122.3623                                         !
 ! A58   A(28,26,29)           130.5504                                         !
 ! A59   A(25,27,30)           118.6161                                         !
 ! A60   A(25,27,38)           121.2319                                         !
 ! A61   A(30,27,38)           120.1116                                         !
 ! A62   A(24,28,26)           109.3747                                         !
 ! A63   A(24,28,37)           124.4028                                         !
 ! A64   A(26,28,37)           124.9764                                         !
 ! A65   A(26,29,31)           117.3623                                         !
 ! A66   A(26,29,39)           121.3656                                         !
 ! A67   A(31,29,39)           121.2663                                         !
 ! A68   A(27,30,31)           121.4007                                         !
 ! A69   A(27,30,40)           119.4087                                         !
 ! A70   A(31,30,40)           119.1807                                         !
 ! A71   A(29,31,30)           121.2092                                         !
 ! A72   A(29,31,41)           119.3034                                         !
 ! A73   A(30,31,41)           119.4776                                         !
 ! A74   A(20,42,43)           129.2922                                         !
 ! A75   A(20,42,50)           114.7597                                         !
 ! A76   A(43,42,50)           115.9445                                         !
 ! A77   A(42,43,44)           107.825                                          !
 ! A78   A(42,43,46)           111.2276                                         !
 ! A79   A(42,43,51)           108.9212                                         !
 ! A80   A(44,43,46)           110.5977                                         !
 ! A81   A(44,43,51)           111.6911                                         !
 ! A82   A(46,43,51)           106.5999                                         !
 ! A83   A(43,44,45)           118.5544                                         !
 ! A84   A(43,44,56)           123.1979                                         !
 ! A85   A(45,44,56)           118.1012                                         !
 ! A86   A(43,46,47)           114.2818                                         !
 ! A87   A(43,46,48)           110.0982                                         !
 ! A88   A(43,46,52)           105.2261                                         !
 ! A89   A(47,46,48)           112.3536                                         !
 ! A90   A(47,46,52)           108.8113                                         !
 ! A91   A(48,46,52)           105.4301                                         !
 ! A92   A(46,47,53)           111.3431                                         !
 ! A93   A(46,47,54)           111.2865                                         !
 ! A94   A(46,47,55)           109.3419                                         !
 ! A95   A(53,47,54)           107.5369                                         !
 ! A96   A(53,47,55)           108.7003                                         !
 ! A97   A(54,47,55)           108.5489                                         !
 ! A98   A(46,48,49)           109.2599                                         !
 ! A99   A(44,56,57)           139.1312                                         !
 ! A100  A(44,56,69)           107.6701                                         !
 ! A101  A(57,56,69)           112.9345                                         !
 ! A102  A(56,57,58)           111.2756                                         !
 ! A103  A(56,57,60)           116.7141                                         !
 ! A104  A(56,57,70)           105.8525                                         !
 ! A105  A(58,57,60)           111.3837                                         !
 ! A106  A(58,57,70)           103.4094                                         !
 ! A107  A(60,57,70)           107.0719                                         !
 ! A108  A(57,58,59)           123.2439                                         !
 ! A109  A(57,58,67)           114.4862                                         !
 ! A110  A(59,58,67)           122.2695                                         !
 ! A111  A(57,60,61)           117.1008                                         !
 ! A112  A(57,60,71)           109.054                                          !
 ! A113  A(57,60,72)           106.6349                                         !
 ! A114  A(61,60,71)           105.7866                                         !
 ! A115  A(61,60,72)           109.317                                          !
 ! A116  A(71,60,72)           108.7474                                         !
 ! A117  A(60,61,62)           119.1016                                         !
 ! A118  A(60,61,73)           105.6644                                         !
 ! A119  A(60,61,74)           109.606                                          !
 ! A120  A(62,61,73)           109.5975                                         !
 ! A121  A(62,61,74)           106.9266                                         !
 ! A122  A(73,61,74)           105.1243                                         !
 ! A123  A(61,62,63)           113.8515                                         !
 ! A124  A(61,62,75)           108.9963                                         !
 ! A125  A(61,62,76)           110.3236                                         !
 ! A126  A(63,62,75)           108.0728                                         !
 ! A127  A(63,62,76)           108.7543                                         !
 ! A128  A(75,62,76)           106.5659                                         !
 ! A129  A(62,63,64)           126.0927                                         !
 ! A130  A(62,63,77)           115.8844                                         !
 ! A131  A(64,63,77)           117.6683                                         !
 ! A132  A(63,64,65)           121.0187                                         !
 ! A133  A(63,64,66)           119.0874                                         !
 ! A134  A(65,64,66)           119.8857                                         !
 ! A135  A(64,65,78)           119.9072                                         !
 ! A136  A(64,65,79)           121.3594                                         !
 ! A137  A(78,65,79)           117.6729                                         !
 ! A138  A(64,66,80)           117.0437                                         !
 ! A139  A(64,66,81)           119.0457                                         !
 ! A140  A(80,66,81)           116.4049                                         !
 ! A141  A(58,67,68)           108.2361                                         !
 ! D1    D(16,1,2,3)           -76.1293                                         !
 ! D2    D(16,1,2,5)           154.8369                                         !
 ! D3    D(16,1,2,11)           37.9121                                         !
 ! D4    D(17,1,2,3)            38.9892                                         !
 ! D5    D(17,1,2,5)           -90.0446                                         !
 ! D6    D(17,1,2,11)          153.0306                                         !
 ! D7    D(1,2,3,4)            117.0461                                         !
 ! D8    D(1,2,3,18)           -71.6872                                         !
 ! D9    D(5,2,3,4)           -113.6112                                         !
 ! D10   D(5,2,3,18)            57.6554                                         !
 ! D11   D(11,2,3,4)             1.1516                                         !
 ! D12   D(11,2,3,18)          172.4183                                         !
 ! D13   D(1,2,5,6)            -68.8449                                         !
 ! D14   D(1,2,5,12)            56.7614                                         !
 ! D15   D(1,2,5,13)           171.8354                                         !
 ! D16   D(3,2,5,6)            158.4649                                         !
 ! D17   D(3,2,5,12)           -75.9288                                         !
 ! D18   D(3,2,5,13)            39.1452                                         !
 ! D19   D(11,2,5,6)            46.9893                                         !
 ! D20   D(11,2,5,12)          172.5956                                         !
 ! D21   D(11,2,5,13)          -72.3304                                         !
 ! D22   D(2,3,18,19)           34.2683                                         !
 ! D23   D(2,3,18,32)         -165.9885                                         !
 ! D24   D(4,3,18,19)         -154.7142                                         !
 ! D25   D(4,3,18,32)            5.029                                          !
 ! D26   D(2,5,6,7)             84.3                                            !
 ! D27   D(2,5,6,14)           -38.2073                                         !
 ! D28   D(2,5,6,15)          -155.0152                                         !
 ! D29   D(12,5,6,7)           -41.4632                                         !
 ! D30   D(12,5,6,14)         -163.9705                                         !
 ! D31   D(12,5,6,15)           79.2215                                         !
 ! D32   D(13,5,6,7)          -156.5607                                         !
 ! D33   D(13,5,6,14)           80.9319                                         !
 ! D34   D(13,5,6,15)          -35.876                                          !
 ! D35   D(5,6,7,8)            139.1355                                         !
 ! D36   D(5,6,7,9)            -40.8593                                         !
 ! D37   D(14,6,7,8)           -97.1752                                         !
 ! D38   D(14,6,7,9)            82.8301                                         !
 ! D39   D(15,6,7,8)            16.0849                                         !
 ! D40   D(15,6,7,9)          -163.9098                                         !
 ! D41   D(6,7,9,10)            -2.2673                                         !
 ! D42   D(8,7,9,10)           177.7378                                         !
 ! D43   D(3,18,19,20)        -149.5692                                         !
 ! D44   D(3,18,19,22)          90.0921                                         !
 ! D45   D(3,18,19,33)         -30.484                                          !
 ! D46   D(32,18,19,20)         50.7117                                         !
 ! D47   D(32,18,19,22)        -69.627                                          !
 ! D48   D(32,18,19,33)        169.7969                                         !
 ! D49   D(18,19,20,21)        -26.9858                                         !
 ! D50   D(18,19,20,42)        154.0962                                         !
 ! D51   D(22,19,20,21)         93.7878                                         !
 ! D52   D(22,19,20,42)        -85.1301                                         !
 ! D53   D(33,19,20,21)       -145.4803                                         !
 ! D54   D(33,19,20,42)         35.6018                                         !
 ! D55   D(18,19,22,23)        -65.9893                                         !
 ! D56   D(18,19,22,34)        171.9915                                         !
 ! D57   D(18,19,22,35)         57.0613                                         !
 ! D58   D(20,19,22,23)        175.061                                          !
 ! D59   D(20,19,22,34)         53.0418                                         !
 ! D60   D(20,19,22,35)        -61.8885                                         !
 ! D61   D(33,19,22,23)         54.1823                                         !
 ! D62   D(33,19,22,34)        -67.8369                                         !
 ! D63   D(33,19,22,35)        177.2328                                         !
 ! D64   D(19,20,42,43)          4.6886                                         !
 ! D65   D(19,20,42,50)       -174.5941                                         !
 ! D66   D(21,20,42,43)       -174.2041                                         !
 ! D67   D(21,20,42,50)          6.5131                                         !
 ! D68   D(19,22,23,24)         77.1625                                         !
 ! D69   D(19,22,23,25)        -96.3331                                         !
 ! D70   D(34,22,23,24)       -160.8559                                         !
 ! D71   D(34,22,23,25)         25.6485                                         !
 ! D72   D(35,22,23,24)        -43.1019                                         !
 ! D73   D(35,22,23,25)        143.4025                                         !
 ! D74   D(22,23,24,28)       -172.7745                                         !
 ! D75   D(22,23,24,36)          4.3067                                         !
 ! D76   D(25,23,24,28)          1.7221                                         !
 ! D77   D(25,23,24,36)        178.8033                                         !
 ! D78   D(22,23,25,26)        174.0236                                         !
 ! D79   D(22,23,25,27)         -7.1906                                         !
 ! D80   D(24,23,25,26)         -0.5876                                         !
 ! D81   D(24,23,25,27)        178.1983                                         !
 ! D82   D(23,24,28,26)         -2.2579                                         !
 ! D83   D(23,24,28,37)       -170.0214                                         !
 ! D84   D(36,24,28,26)       -179.6559                                         !
 ! D85   D(36,24,28,37)         12.5806                                         !
 ! D86   D(23,25,26,28)         -0.7447                                         !
 ! D87   D(23,25,26,29)        179.5811                                         !
 ! D88   D(27,25,26,28)       -179.7424                                         !
 ! D89   D(27,25,26,29)          0.5834                                         !
 ! D90   D(23,25,27,30)       -178.8475                                         !
 ! D91   D(23,25,27,38)         -1.1587                                         !
 ! D92   D(26,25,27,30)         -0.1746                                         !
 ! D93   D(26,25,27,38)        177.5141                                         !
 ! D94   D(25,26,28,24)          1.8179                                         !
 ! D95   D(25,26,28,37)        169.495                                          !
 ! D96   D(29,26,28,24)       -178.5442                                         !
 ! D97   D(29,26,28,37)        -10.8672                                         !
 ! D98   D(25,26,29,31)         -0.3529                                         !
 ! D99   D(25,26,29,39)       -179.4857                                         !
 ! D100  D(28,26,29,31)       -179.9431                                         !
 ! D101  D(28,26,29,39)          0.9242                                         !
 ! D102  D(25,27,30,31)         -0.4379                                         !
 ! D103  D(25,27,30,40)        178.4073                                         !
 ! D104  D(38,27,30,31)       -178.1534                                         !
 ! D105  D(38,27,30,40)          0.6918                                         !
 ! D106  D(26,29,31,30)         -0.273                                          !
 ! D107  D(26,29,31,41)       -179.1283                                         !
 ! D108  D(39,29,31,30)        178.8607                                         !
 ! D109  D(39,29,31,41)          0.0054                                         !
 ! D110  D(27,30,31,29)          0.6817                                         !
 ! D111  D(27,30,31,41)        179.5351                                         !
 ! D112  D(40,30,31,29)       -178.1661                                         !
 ! D113  D(40,30,31,41)          0.6873                                         !
 ! D114  D(20,42,43,44)       -137.404                                          !
 ! D115  D(20,42,43,46)        101.1738                                         !
 ! D116  D(20,42,43,51)        -16.0288                                         !
 ! D117  D(50,42,43,44)         41.8717                                         !
 ! D118  D(50,42,43,46)        -79.5506                                         !
 ! D119  D(50,42,43,51)        163.2468                                         !
 ! D120  D(42,43,44,45)        -29.3419                                         !
 ! D121  D(42,43,44,56)        155.1456                                         !
 ! D122  D(46,43,44,45)         92.4713                                         !
 ! D123  D(46,43,44,56)        -83.0412                                         !
 ! D124  D(51,43,44,45)       -148.9772                                         !
 ! D125  D(51,43,44,56)         35.5103                                         !
 ! D126  D(42,43,46,47)         73.276                                          !
 ! D127  D(42,43,46,48)       -159.1804                                         !
 ! D128  D(42,43,46,52)        -46.0256                                         !
 ! D129  D(44,43,46,47)        -46.5127                                         !
 ! D130  D(44,43,46,48)         81.0309                                         !
 ! D131  D(44,43,46,52)       -165.8143                                         !
 ! D132  D(51,43,46,47)       -168.1173                                         !
 ! D133  D(51,43,46,48)        -40.5737                                         !
 ! D134  D(51,43,46,52)         72.5811                                         !
 ! D135  D(43,44,56,57)        -11.1338                                         !
 ! D136  D(43,44,56,69)        175.5543                                         !
 ! D137  D(45,44,56,57)        173.3346                                         !
 ! D138  D(45,44,56,69)          0.0227                                         !
 ! D139  D(43,46,47,53)         65.3071                                         !
 ! D140  D(43,46,47,54)        -54.6555                                         !
 ! D141  D(43,46,47,55)       -174.5621                                         !
 ! D142  D(48,46,47,53)        -61.0722                                         !
 ! D143  D(48,46,47,54)        178.9652                                         !
 ! D144  D(48,46,47,55)         59.0586                                         !
 ! D145  D(52,46,47,53)       -177.4313                                         !
 ! D146  D(52,46,47,54)         62.6061                                         !
 ! D147  D(52,46,47,55)        -57.3005                                         !
 ! D148  D(43,46,48,49)        -87.2954                                         !
 ! D149  D(47,46,48,49)         41.3092                                         !
 ! D150  D(52,46,48,49)        159.681                                          !
 ! D151  D(44,56,57,58)        118.2375                                         !
 ! D152  D(44,56,57,60)        -11.1082                                         !
 ! D153  D(44,56,57,70)       -130.0912                                         !
 ! D154  D(69,56,57,58)        -68.6831                                         !
 ! D155  D(69,56,57,60)        161.9712                                         !
 ! D156  D(69,56,57,70)         42.9882                                         !
 ! D157  D(56,57,58,59)        134.7089                                         !
 ! D158  D(56,57,58,67)        -45.5083                                         !
 ! D159  D(60,57,58,59)        -93.1811                                         !
 ! D160  D(60,57,58,67)         86.6016                                         !
 ! D161  D(70,57,58,59)         21.4935                                         !
 ! D162  D(70,57,58,67)       -158.7238                                         !
 ! D163  D(56,57,60,61)        174.2399                                         !
 ! D164  D(56,57,60,71)         54.2351                                         !
 ! D165  D(56,57,60,72)        -63.0275                                         !
 ! D166  D(58,57,60,61)         44.9457                                         !
 ! D167  D(58,57,60,71)        -75.059                                          !
 ! D168  D(58,57,60,72)        167.6783                                         !
 ! D169  D(70,57,60,61)        -67.4366                                         !
 ! D170  D(70,57,60,71)        172.5587                                         !
 ! D171  D(70,57,60,72)         55.296                                          !
 ! D172  D(57,58,67,68)       -179.4314                                         !
 ! D173  D(59,58,67,68)          0.3537                                         !
 ! D174  D(57,60,61,62)         48.0419                                         !
 ! D175  D(57,60,61,73)        171.7365                                         !
 ! D176  D(57,60,61,74)        -75.4619                                         !
 ! D177  D(71,60,61,62)        169.7625                                         !
 ! D178  D(71,60,61,73)        -66.5429                                         !
 ! D179  D(71,60,61,74)         46.2587                                         !
 ! D180  D(72,60,61,62)        -73.2999                                         !
 ! D181  D(72,60,61,73)         50.3947                                         !
 ! D182  D(72,60,61,74)        163.1963                                         !
 ! D183  D(60,61,62,63)         33.66                                           !
 ! D184  D(60,61,62,75)        154.3862                                         !
 ! D185  D(60,61,62,76)        -88.9301                                         !
 ! D186  D(73,61,62,63)        -88.0886                                         !
 ! D187  D(73,61,62,75)         32.6376                                         !
 ! D188  D(73,61,62,76)        149.3213                                         !
 ! D189  D(74,61,62,63)        158.4675                                         !
 ! D190  D(74,61,62,75)        -80.8063                                         !
 ! D191  D(74,61,62,76)         35.8774                                         !
 ! D192  D(61,62,63,64)       -129.0255                                         !
 ! D193  D(61,62,63,77)         58.0094                                         !
 ! D194  D(75,62,63,64)        109.7327                                         !
 ! D195  D(75,62,63,77)        -63.2324                                         !
 ! D196  D(76,62,63,64)         -5.5783                                         !
 ! D197  D(76,62,63,77)       -178.5435                                         !
 ! D198  D(62,63,64,65)         15.7025                                         !
 ! D199  D(62,63,64,66)       -163.2512                                         !
 ! D200  D(77,63,64,65)       -171.4443                                         !
 ! D201  D(77,63,64,66)          9.602                                          !
 ! D202  D(63,64,65,78)       -172.3313                                         !
 ! D203  D(63,64,65,79)         19.7189                                         !
 ! D204  D(66,64,65,78)          6.6141                                         !
 ! D205  D(66,64,65,79)       -161.3357                                         !
 ! D206  D(63,64,66,80)        -10.7994                                         !
 ! D207  D(63,64,66,81)       -159.5189                                         !
 ! D208  D(65,64,66,80)        170.2348                                         !
 ! D209  D(65,64,66,81)         21.5154                                         !
 --------------------------------------------------------------------------------
 Symmetry turned off by external request.
 Stoichiometry    C26H39N8O8(1+)
 Framework group  C1[X(C26H39N8O8)]
 Deg. of freedom   237
 Full point group                 C1      NOp   1
                          Input orientation:                          
 ---------------------------------------------------------------------
 Center     Atomic      Atomic             Coordinates (Angstroms)
 Number     Number       Type             X           Y           Z
 ---------------------------------------------------------------------
      1          7           0       10.747039   30.419077    9.435204
      2          6           0       10.798975   31.535454    8.450826
      3          6           0       12.030606   32.472842    8.491809
      4          8           0       12.764333   32.514848    7.512848
      5          6           0        9.494163   32.354236    8.465793
      6          6           0        8.262640   31.602990    7.914330
      7          6           0        7.521001   30.702486    8.888095
      8          8           0        6.296762   30.656780    8.903307
      9          8           0        8.227483   29.957071    9.732381
     10          1           0        9.281962   30.050997    9.601387
     11          1           0       10.887857   31.066735    7.467812
     12          1           0        9.288833   32.739966    9.472401
     13          1           0        9.654981   33.234483    7.835513
     14          1           0        8.558172   30.986095    7.053742
     15          1           0        7.520852   32.313085    7.542284
     16          1           0       11.377598   29.670011    9.149797
     17          1           0       11.098106   30.700262   10.350020
     18          7           0       12.176359   33.358067    9.527615
     19          6           0       11.809995   33.233786   10.925184
     20          6           0       11.468733   34.644253   11.448092
     21          8           0       11.977241   35.625804   10.927547
     22          6           0       12.987284   32.626677   11.753184
     23          6           0       13.287745   31.211438   11.370969
     24          6           0       13.970584   30.773143   10.259970
     25          6           0       12.794321   30.031771   12.044060
     26          6           0       13.205343   28.906960   11.274668
     27          6           0       12.065830   29.819373   13.229956
     28          7           0       13.898563   29.394112   10.180651
     29          6           0       12.901436   27.593400   11.647432
     30          6           0       11.770544   28.513741   13.605182
     31          6           0       12.176921   27.413352   12.820438
     32          1           0       12.878756   34.071942    9.353343
     33          1           0       10.934219   32.586954   11.005342
     34          1           0       12.745217   32.673859   12.819339
     35          1           0       13.853211   33.281105   11.601599
     36          1           0       14.472239   31.340353    9.488484
     37          1           0       14.437641   28.830628    9.539220
     38          1           0       11.768844   30.649606   13.865171
     39          1           0       13.230471   26.746205   11.052262
     40          1           0       11.231708   28.333713   14.531234
     41          1           0       11.935952   26.406020   13.147045
     42          7           0       10.611260   34.746992   12.508725
     43          6           0       10.012996   33.696933   13.311712
     44          6           0        8.540727   34.063477   13.543050
     45          8           0        8.229814   35.247006   13.570534
     46          6           0       10.762359   33.531579   14.680427
     47          6           0       10.494833   34.650342   15.680732
     48          8           0       10.503637   32.243692   15.227001
     49          1           0        9.689484   32.277849   15.756548
     50          1           0       10.354014   35.696904   12.756895
     51          1           0       10.113527   32.751980   12.786971
     52          1           0       11.826847   33.531855   14.427116
     53          1           0        9.445747   34.658975   15.998496
     54          1           0       10.716483   35.630575   15.248855
     55          1           0       11.126854   34.507348   16.561662
     56          7           0        7.560592   33.126352   13.811579
     57          6           0        7.384372   31.674048   13.795611
     58          6           0        7.064522   31.137687   15.193936
     59          8           0        6.183504   30.325303   15.412142
     60          6           0        8.496075   30.848315   13.117434
     61          6           0        8.389359   29.314470   13.214329
     62          6           0        7.046111   28.634444   12.886139
     63          7           0        6.280901   29.310607   11.835931
     64          6           0        4.998704   29.678211   11.909229
     65          7           0        4.359452   29.734475   13.093298
     66          7           0        4.339209   29.974164   10.778551
     67          8           0        7.841458   31.633654   16.171930
     68          1           0        7.566682   31.226168   17.017391
     69          1           0        6.696532   33.628025   13.996177
     70          1           0        6.463191   31.491312   13.237320
     71          1           0        9.454454   31.107437   13.564709
     72          1           0        8.508013   31.144871   12.062822
     73          1           0        9.169725   28.921980   12.556099
     74          1           0        8.674370   28.988694   14.221921
     75          1           0        7.237408   27.606153   12.558908
     76          1           0        6.429516   28.565996   13.778833
     77          1           0        6.752547   29.412845   10.936671
     78          1           0        3.364348   29.900713   13.120531
     79          1           0        4.873164   29.794322   13.970615
     80          1           0        4.898213   30.068225    9.923504
     81          1           0        3.501479   30.537147   10.832099
 ---------------------------------------------------------------------
 Rotational constants (GHZ):           0.0957403           0.0708508           0.0639522
 Standard basis: 6-31G(d) (6D, 7F)
   708 basis functions,  1332 primitive gaussians,   708 cartesian basis functions
   157 alpha electrons      157 beta electrons
       nuclear repulsion energy      5728.5971110222 Hartrees.
 NAtoms=   81 NActive=   81 NUniq=   81 SFac= 1.00D+00 NAtFMM=   60 NAOKFM=T Big=T
 Integral buffers will be    131072 words long.
 Raffenetti 2 integral format.
 Two-electron integral symmetry is turned off.
 Nuclear repulsion after empirical dispersion term =     5728.4674932964 Hartrees.
 One-electron integrals computed using PRISM.
 NBasis=   708 RedAO= T EigKep=  3.52D-04  NBF=   708
 NBsUse=   708 1.00D-06 EigRej= -1.00D+00 NBFU=   708
 Initial guess from the checkpoint file:  "conf-102.chk"
 B after Tr=     0.000000    0.000000    0.000000
         Rot=    1.000000    0.000000    0.000000    0.000000 Ang=   0.00 deg.
 Requested convergence on RMS density matrix=1.00D-08 within 128 cycles.
 Requested convergence on MAX density matrix=1.00D-06.
 Requested convergence on             energy=1.00D-06.
 No special actions if energy rises.
 SCF Done:  E(RB3LYP) =  -2054.06617119     A.U. after    1 cycles
            NFock=  1  Conv=0.65D-08     -V/T= 2.0093

 **********************************************************************

            Population analysis using the SCF Density.

 **********************************************************************

 Alpha  occ. eigenvalues --  -19.34420 -19.28818 -19.28226 -19.24956 -19.24442
 Alpha  occ. eigenvalues --  -19.22431 -19.20291 -19.20096 -14.50150 -14.49954
 Alpha  occ. eigenvalues --  -14.49061 -14.48094 -14.47513 -14.46609 -14.45264
 Alpha  occ. eigenvalues --  -14.44546 -10.46566 -10.46477 -10.42762 -10.40346
 Alpha  occ. eigenvalues --  -10.38086 -10.37888 -10.37724 -10.34935 -10.34407
 Alpha  occ. eigenvalues --  -10.34231 -10.34031 -10.33670 -10.31594 -10.31341
 Alpha  occ. eigenvalues --  -10.31143 -10.30988 -10.30496 -10.30421 -10.29295
 Alpha  occ. eigenvalues --  -10.28107 -10.27922 -10.27771 -10.27652 -10.27573
 Alpha  occ. eigenvalues --  -10.27296 -10.26946  -1.25211  -1.19733  -1.16153
 Alpha  occ. eigenvalues --   -1.15043  -1.14929  -1.12778  -1.12444  -1.11998
 Alpha  occ. eigenvalues --   -1.11219  -1.07317  -1.04468  -1.04057  -1.02869
 Alpha  occ. eigenvalues --   -1.02559  -1.01925  -1.01125  -0.93112  -0.92528
 Alpha  occ. eigenvalues --   -0.90342  -0.89730  -0.87848  -0.86944  -0.85165
 Alpha  occ. eigenvalues --   -0.82755  -0.82434  -0.82030  -0.81106  -0.80699
 Alpha  occ. eigenvalues --   -0.77743  -0.76492  -0.76028  -0.73843  -0.73556
 Alpha  occ. eigenvalues --   -0.72245  -0.72188  -0.71318  -0.69977  -0.69652
 Alpha  occ. eigenvalues --   -0.68962  -0.68370  -0.68160  -0.67486  -0.65440
 Alpha  occ. eigenvalues --   -0.65323  -0.64398  -0.64300  -0.63315  -0.62964
 Alpha  occ. eigenvalues --   -0.62626  -0.61304  -0.61279  -0.60795  -0.60395
 Alpha  occ. eigenvalues --   -0.59917  -0.59309  -0.58914  -0.58514  -0.57966
 Alpha  occ. eigenvalues --   -0.57597  -0.57356  -0.56592  -0.56376  -0.56181
 Alpha  occ. eigenvalues --   -0.55858  -0.55699  -0.55150  -0.54746  -0.54716
 Alpha  occ. eigenvalues --   -0.54144  -0.53564  -0.52985  -0.52689  -0.52176
 Alpha  occ. eigenvalues --   -0.51941  -0.51464  -0.51146  -0.50822  -0.50456
 Alpha  occ. eigenvalues --   -0.50042  -0.49661  -0.49195  -0.49141  -0.48261
 Alpha  occ. eigenvalues --   -0.47759  -0.47700  -0.47548  -0.47256  -0.46795
 Alpha  occ. eigenvalues --   -0.46664  -0.46417  -0.46113  -0.45844  -0.45589
 Alpha  occ. eigenvalues --   -0.45361  -0.44767  -0.44406  -0.42971  -0.42701
 Alpha  occ. eigenvalues --   -0.42508  -0.42103  -0.41890  -0.41059  -0.40603
 Alpha  occ. eigenvalues --   -0.39132  -0.38882  -0.38089  -0.37064  -0.36623
 Alpha  occ. eigenvalues --   -0.36543  -0.34847  -0.33999  -0.33527  -0.32916
 Alpha  occ. eigenvalues --   -0.31718  -0.29642
 Alpha virt. eigenvalues --   -0.14067  -0.10935  -0.10580  -0.09752  -0.09125
 Alpha virt. eigenvalues --   -0.07688  -0.07438  -0.06773  -0.06718  -0.05416
 Alpha virt. eigenvalues --   -0.05206  -0.03373  -0.02323  -0.01854  -0.01693
 Alpha virt. eigenvalues --   -0.01028  -0.00311  -0.00060   0.00319   0.00877
 Alpha virt. eigenvalues --    0.01498   0.01817   0.01956   0.02481   0.02875
 Alpha virt. eigenvalues --    0.03073   0.03157   0.03634   0.03878   0.04618
 Alpha virt. eigenvalues --    0.04791   0.05111   0.05515   0.05951   0.06467
 Alpha virt. eigenvalues --    0.06874   0.07104   0.07453   0.07767   0.08175
 Alpha virt. eigenvalues --    0.08310   0.08460   0.08756   0.09070   0.09140
 Alpha virt. eigenvalues --    0.09632   0.09968   0.10219   0.10557   0.10918
 Alpha virt. eigenvalues --    0.11088   0.11562   0.12336   0.12933   0.12991
 Alpha virt. eigenvalues --    0.13304   0.13853   0.14012   0.14238   0.14722
 Alpha virt. eigenvalues --    0.14871   0.15337   0.15611   0.15925   0.16507
 Alpha virt. eigenvalues --    0.17152   0.17534   0.18188   0.18328   0.19442
 Alpha virt. eigenvalues --    0.19929   0.20481   0.21811   0.22230   0.23404
 Alpha virt. eigenvalues --    0.23922   0.24748   0.25190   0.25543   0.26657
 Alpha virt. eigenvalues --    0.27097   0.27794   0.28553   0.29626   0.29937
 Alpha virt. eigenvalues --    0.30862   0.31522   0.32458   0.33357   0.34755
 Alpha virt. eigenvalues --    0.36334   0.37073   0.37232   0.38294   0.39433
 Alpha virt. eigenvalues --    0.39606   0.40046   0.40993   0.41592   0.41920
 Alpha virt. eigenvalues --    0.42576   0.43142   0.43451   0.43641   0.43911
 Alpha virt. eigenvalues --    0.44667   0.45314   0.45596   0.45737   0.46272
 Alpha virt. eigenvalues --    0.46334   0.46844   0.47313   0.47917   0.48423
 Alpha virt. eigenvalues --    0.48563   0.48719   0.48961   0.49329   0.49439
 Alpha virt. eigenvalues --    0.49877   0.50917   0.51103   0.51330   0.51495
 Alpha virt. eigenvalues --    0.51950   0.52623   0.52656   0.53099   0.53410
 Alpha virt. eigenvalues --    0.53787   0.54100   0.54169   0.54469   0.54770
 Alpha virt. eigenvalues --    0.55525   0.55953   0.56312   0.56829   0.56984
 Alpha virt. eigenvalues --    0.57635   0.57886   0.58773   0.59287   0.59390
 Alpha virt. eigenvalues --    0.59850   0.60055   0.60488   0.60873   0.61108
 Alpha virt. eigenvalues --    0.62241   0.62854   0.63277   0.63860   0.64526
 Alpha virt. eigenvalues --    0.64707   0.65262   0.66329   0.66843   0.66929
 Alpha virt. eigenvalues --    0.67895   0.68744   0.69759   0.69866   0.70607
 Alpha virt. eigenvalues --    0.71274   0.71440   0.72289   0.72530   0.72914
 Alpha virt. eigenvalues --    0.73165   0.73680   0.73878   0.74017   0.74438
 Alpha virt. eigenvalues --    0.74812   0.75165   0.75515   0.75788   0.75906
 Alpha virt. eigenvalues --    0.76076   0.76527   0.76880   0.77263   0.77672
 Alpha virt. eigenvalues --    0.77982   0.78332   0.78531   0.78947   0.79166
 Alpha virt. eigenvalues --    0.79943   0.80242   0.80676   0.81041   0.81396
 Alpha virt. eigenvalues --    0.81924   0.82091   0.82429   0.82814   0.83258
 Alpha virt. eigenvalues --    0.83839   0.83951   0.84511   0.84873   0.85474
 Alpha virt. eigenvalues --    0.85621   0.86366   0.86815   0.87144   0.87448
 Alpha virt. eigenvalues --    0.88153   0.88589   0.89062   0.89426   0.89871
 Alpha virt. eigenvalues --    0.89977   0.90768   0.91430   0.91719   0.92241
 Alpha virt. eigenvalues --    0.93056   0.93535   0.94161   0.94480   0.95185
 Alpha virt. eigenvalues --    0.95854   0.95935   0.96182   0.97557   0.97727
 Alpha virt. eigenvalues --    0.98374   0.99254   0.99846   1.00200   1.00365
 Alpha virt. eigenvalues --    1.01539   1.02228   1.02471   1.02759   1.03830
 Alpha virt. eigenvalues --    1.04717   1.04904   1.05478   1.05919   1.06484
 Alpha virt. eigenvalues --    1.07150   1.07527   1.08650   1.10273   1.10524
 Alpha virt. eigenvalues --    1.11207   1.12042   1.12732   1.13314   1.14477
 Alpha virt. eigenvalues --    1.14813   1.15616   1.16277   1.17381   1.17823
 Alpha virt. eigenvalues --    1.18049   1.19267   1.20196   1.20373   1.21022
 Alpha virt. eigenvalues --    1.22878   1.23215   1.24012   1.24313   1.24825
 Alpha virt. eigenvalues --    1.25530   1.25852   1.27026   1.28401   1.29055
 Alpha virt. eigenvalues --    1.29110   1.29791   1.31140   1.31517   1.32137
 Alpha virt. eigenvalues --    1.32199   1.32612   1.33704   1.34502   1.34916
 Alpha virt. eigenvalues --    1.35430   1.36314   1.36622   1.36906   1.37797
 Alpha virt. eigenvalues --    1.38996   1.40240   1.40868   1.41452   1.41878
 Alpha virt. eigenvalues --    1.41937   1.43155   1.43924   1.44707   1.45530
 Alpha virt. eigenvalues --    1.46396   1.47639   1.48052   1.48455   1.49487
 Alpha virt. eigenvalues --    1.50947   1.51557   1.51726   1.51961   1.52659
 Alpha virt. eigenvalues --    1.53101   1.53334   1.54353   1.54886   1.56348
 Alpha virt. eigenvalues --    1.57443   1.58330   1.58774   1.59558   1.59976
 Alpha virt. eigenvalues --    1.60543   1.61043   1.62729   1.63314   1.63934
 Alpha virt. eigenvalues --    1.65194   1.65790   1.66480   1.67286   1.67499
 Alpha virt. eigenvalues --    1.67684   1.67734   1.68240   1.68728   1.68880
 Alpha virt. eigenvalues --    1.69639   1.69880   1.70770   1.71015   1.71502
 Alpha virt. eigenvalues --    1.72288   1.72461   1.73082   1.73516   1.73796
 Alpha virt. eigenvalues --    1.74082   1.74452   1.75641   1.76042   1.76818
 Alpha virt. eigenvalues --    1.77072   1.77864   1.78566   1.78695   1.78896
 Alpha virt. eigenvalues --    1.79491   1.80299   1.80912   1.81719   1.82033
 Alpha virt. eigenvalues --    1.82740   1.83066   1.83585   1.84062   1.84468
 Alpha virt. eigenvalues --    1.85614   1.85724   1.86084   1.86804   1.87821
 Alpha virt. eigenvalues --    1.87936   1.88447   1.89005   1.89980   1.90074
 Alpha virt. eigenvalues --    1.91079   1.91404   1.92083   1.92418   1.93051
 Alpha virt. eigenvalues --    1.93383   1.93938   1.94261   1.94727   1.95348
 Alpha virt. eigenvalues --    1.95793   1.96478   1.97256   1.97990   1.98450
 Alpha virt. eigenvalues --    1.98856   1.99314   2.00433   2.02098   2.02650
 Alpha virt. eigenvalues --    2.02800   2.03870   2.04741   2.04894   2.06114
 Alpha virt. eigenvalues --    2.06997   2.07486   2.08777   2.09349   2.10423
 Alpha virt. eigenvalues --    2.10870   2.11885   2.13085   2.13851   2.14548
 Alpha virt. eigenvalues --    2.15539   2.16112   2.16543   2.17229   2.17788
 Alpha virt. eigenvalues --    2.17885   2.18200   2.18458   2.19778   2.20182
 Alpha virt. eigenvalues --    2.21160   2.22207   2.22943   2.24446   2.24601
 Alpha virt. eigenvalues --    2.26004   2.27986   2.28195   2.28415   2.29399
 Alpha virt. eigenvalues --    2.29797   2.30999   2.31345   2.31933   2.32492
 Alpha virt. eigenvalues --    2.33418   2.33591   2.34024   2.35495   2.36730
 Alpha virt. eigenvalues --    2.38043   2.38224   2.38689   2.39922   2.40349
 Alpha virt. eigenvalues --    2.41158   2.42341   2.43205   2.44089   2.44257
 Alpha virt. eigenvalues --    2.45932   2.46378   2.47207   2.47670   2.48500
 Alpha virt. eigenvalues --    2.48917   2.50302   2.51619   2.51726   2.52667
 Alpha virt. eigenvalues --    2.52717   2.53055   2.53365   2.54214   2.54867
 Alpha virt. eigenvalues --    2.56320   2.57565   2.58454   2.58780   2.59807
 Alpha virt. eigenvalues --    2.60593   2.61146   2.61792   2.62543   2.63687
 Alpha virt. eigenvalues --    2.64589   2.65713   2.66470   2.67280   2.67659
 Alpha virt. eigenvalues --    2.68882   2.70076   2.71849   2.73136   2.73702
 Alpha virt. eigenvalues --    2.74718   2.76008   2.78611   2.82957   2.84812
 Alpha virt. eigenvalues --    2.86786   2.87884   2.88599   2.89466   2.90243
 Alpha virt. eigenvalues --    2.91750   2.92256   2.92661   2.93199   2.96645
 Alpha virt. eigenvalues --    2.98328   2.99191   2.99754   3.02180   3.03771
 Alpha virt. eigenvalues --    3.05724   3.12332   3.15986   3.34954   3.70409
 Alpha virt. eigenvalues --    3.72741   3.80799   3.82585   3.84930   3.87881
 Alpha virt. eigenvalues --    3.90623   3.91527   3.95904   3.96752   4.00623
 Alpha virt. eigenvalues --    4.01327   4.02466   4.02566   4.03850   4.05137
 Alpha virt. eigenvalues --    4.06179   4.08692   4.13211   4.14794   4.15327
 Alpha virt. eigenvalues --    4.16872   4.18652   4.19920   4.24040   4.25554
 Alpha virt. eigenvalues --    4.26456   4.29966   4.30388   4.32934   4.33721
 Alpha virt. eigenvalues --    4.36566   4.39828   4.46613   4.47278   4.49445
 Alpha virt. eigenvalues --    4.50164   4.57850   4.59056   4.61666   4.65799
 Alpha virt. eigenvalues --    4.72325
          Condensed to atoms (all electrons):
 Mulliken charges:
               1
     1  N   -0.841440
     2  C   -0.057369
     3  C    0.579092
     4  O   -0.493449
     5  C   -0.308929
     6  C   -0.377941
     7  C    0.619905
     8  O   -0.512781
     9  O   -0.641455
    10  H    0.482702
    11  H    0.191574
    12  H    0.155204
    13  H    0.201932
    14  H    0.195453
    15  H    0.201767
    16  H    0.362184
    17  H    0.372203
    18  N   -0.572064
    19  C   -0.088866
    20  C    0.624886
    21  O   -0.491802
    22  C   -0.366445
    23  C    0.041206
    24  C   -0.003011
    25  C    0.045379
    26  C    0.297953
    27  C   -0.240560
    28  N   -0.686997
    29  C   -0.165615
    30  C   -0.156347
    31  C   -0.153352
    32  H    0.358121
    33  H    0.130173
    34  H    0.168861
    35  H    0.184532
    36  H    0.196722
    37  H    0.348058
    38  H    0.177053
    39  H    0.146520
    40  H    0.130315
    41  H    0.144129
    42  N   -0.607751
    43  C   -0.082351
    44  C    0.617335
    45  O   -0.493396
    46  C    0.123346
    47  C   -0.487149
    48  O   -0.647148
    49  H    0.429042
    50  H    0.364169
    51  H    0.154540
    52  H    0.169649
    53  H    0.160136
    54  H    0.178439
    55  H    0.179861
    56  N   -0.637189
    57  C   -0.028350
    58  C    0.619503
    59  O   -0.477508
    60  C   -0.339495
    61  C   -0.299912
    62  C   -0.167496
    63  N   -0.621331
    64  C    0.762260
    65  N   -0.785717
    66  N   -0.769718
    67  O   -0.559846
    68  H    0.442882
    69  H    0.345777
    70  H    0.173471
    71  H    0.218190
    72  H    0.160452
    73  H    0.187155
    74  H    0.166658
    75  H    0.193991
    76  H    0.187831
    77  H    0.408732
    78  H    0.369983
    79  H    0.412843
    80  H    0.421482
    81  H    0.359130
 Sum of Mulliken charges =   1.00000
 Mulliken charges with hydrogens summed into heavy atoms:
               1
     1  N   -0.107053
     2  C    0.134205
     3  C    0.579092
     4  O   -0.493449
     5  C    0.048208
     6  C    0.019278
     7  C    0.619905
     8  O   -0.512781
     9  O   -0.158753
    18  N   -0.213944
    19  C    0.041308
    20  C    0.624886
    21  O   -0.491802
    22  C   -0.013052
    23  C    0.041206
    24  C    0.193711
    25  C    0.045379
    26  C    0.297953
    27  C   -0.063507
    28  N   -0.338939
    29  C   -0.019095
    30  C   -0.026031
    31  C   -0.009223
    42  N   -0.243582
    43  C    0.072189
    44  C    0.617335
    45  O   -0.493396
    46  C    0.292995
    47  C    0.031288
    48  O   -0.218106
    56  N   -0.291412
    57  C    0.145121
    58  C    0.619503
    59  O   -0.477508
    60  C    0.039146
    61  C    0.053901
    62  C    0.214327
    63  N   -0.212599
    64  C    0.762260
    65  N   -0.002891
    66  N    0.010895
    67  O   -0.116965
 Electronic spatial extent (au):  <R**2>=        1391637.6806
 Charge=              1.0000 electrons
 Dipole moment (field-independent basis, Debye):
    X=             36.4890    Y=            143.1307    Z=             60.9004  Tot=            159.7708
 Quadrupole moment (field-independent basis, Debye-Ang):
   XX=             93.9657   YY=           4013.2248   ZZ=            562.1984
   XY=           1068.9645   XZ=            453.3627   YZ=           1835.1125
 Traceless Quadrupole moment (field-independent basis, Debye-Ang):
   XX=          -1462.4973   YY=           2456.7619   ZZ=           -994.2646
   XY=           1068.9645   XZ=            453.3627   YZ=           1835.1125
 Octapole moment (field-independent basis, Debye-Ang**2):
  XXX=          -3594.7166  YYY=         103221.0949  ZZZ=           2454.7037  XYY=          28837.2867
  XXY=           2075.9021  XXZ=           1158.9269  XZZ=           3509.1603  YZZ=          16882.8966
  YYZ=          52365.9094  XYZ=          13543.4316
 Hexadecapole moment (field-independent basis, Debye-Ang**3):
 XXXX=        -109503.5960 YYYY=        2272043.1445 ZZZZ=         -53797.8449 XXXY=        -124026.5110
 XXXZ=         -43034.5151 YYYX=         681994.2133 YYYZ=        1388159.0546 ZZZX=          -3265.0944
 ZZZY=          69367.4578 XXYY=          12529.1448 XXZZ=         -10339.6985 YYZZ=         470103.9757
 XXYZ=          29054.1793 YYXZ=         376446.1897 ZZXY=         104052.0970
 N-N= 5.728467493296D+03 E-N=-1.621182488274D+04  KE= 2.035164856814D+03
 Unable to Open any file for archive entry.
 1\1\GINC-LAC-256\SP\RB3LYP\6-31G(d)\C26H39N8O8(1+)\KENGMITH\27-May-202
 2\0\\# B3LYP/6-31G* empiricaldispersion=gd3 guess=read geom=check nosy
 mm integral(ultrafinegrid)\\Candidate Structure: Conf:102 Charge calc 
 in gas phase\\1,1\N,0,10.7470391538,30.4190770181,9.4352043599\C,0,10.
 7989749226,31.5354535571,8.4508255962\C,0,12.0306059656,32.4728421312,
 8.4918092534\O,0,12.7643325106,32.5148481383,7.5128479839\C,0,9.494163
 2078,32.3542355365,8.4657925707\C,0,8.2626402891,31.6029898271,7.91433
 04603\C,0,7.5210010414,30.7024855628,8.8880950915\O,0,6.2967621106,30.
 6567803022,8.9033070734\O,0,8.2274828915,29.9570706354,9.7323812537\H,
 0,9.2819615726,30.05099671,9.6013870329\H,0,10.8878572154,31.066734876
 4,7.4678116434\H,0,9.288832769,32.7399656286,9.4724014959\H,0,9.654980
 7571,33.2344827646,7.8355126252\H,0,8.5581715298,30.9860948395,7.05374
 20448\H,0,7.5208523213,32.3130850955,7.5422842627\H,0,11.3775980605,29
 .670011156,9.1497970957\H,0,11.0981055317,30.7002620496,10.350020045\N
 ,0,12.1763594904,33.3580665545,9.527614662\C,0,11.8099953139,33.233785
 6164,10.9251838207\C,0,11.4687332947,34.6442532515,11.4480919336\O,0,1
 1.9772405371,35.6258042127,10.9275470989\C,0,12.9872842743,32.62667676
 54,11.7531835079\C,0,13.2877448002,31.2114376878,11.3709688977\C,0,13.
 9705836217,30.773142607,10.2599695959\C,0,12.7943214798,30.0317712023,
 12.0440602111\C,0,13.205342982,28.9069597266,11.274667645\C,0,12.06582
 98022,29.8193728001,13.2299562368\N,0,13.898562606,29.3941119609,10.18
 06514649\C,0,12.901436221,27.5934000233,11.6474322814\C,0,11.770544378
 3,28.5137405071,13.605181744\C,0,12.1769211688,27.413352029,12.8204384
 743\H,0,12.8787560037,34.0719421936,9.3533432034\H,0,10.9342192206,32.
 5869540209,11.0053417442\H,0,12.7452172951,32.6738588441,12.8193389685
 \H,0,13.8532111748,33.2811049809,11.6015989286\H,0,14.4722388182,31.34
 03527942,9.4884840191\H,0,14.4376409623,28.8306278332,9.5392203574\H,0
 ,11.7688438163,30.6496064584,13.8651712469\H,0,13.2304713175,26.746205
 4387,11.0522620611\H,0,11.2317079443,28.3337125763,14.531234233\H,0,11
 .9359524522,26.4060203573,13.1470450804\N,0,10.6112597502,34.74699233,
 12.5087250806\C,0,10.012995746,33.6969329304,13.311712364\C,0,8.540727
 0431,34.0634766309,13.5430500742\O,0,8.2298141091,35.2470064821,13.570
 5343361\C,0,10.7623591711,33.531579383,14.6804268037\C,0,10.4948333091
 ,34.6503421882,15.6807317634\O,0,10.5036368796,32.2436924058,15.227000
 8896\H,0,9.6894835568,32.2778486319,15.7565478806\H,0,10.3540143239,35
 .6969042545,12.7568954701\H,0,10.1135268992,32.7519799742,12.786971128
 2\H,0,11.8268473321,33.5318551658,14.4271162257\H,0,9.4457471422,34.65
 89746037,15.9984960595\H,0,10.7164828606,35.6305747729,15.2488548362\H
 ,0,11.1268541038,34.5073477292,16.5616623198\N,0,7.5605915515,33.12635
 2398,13.811579196\C,0,7.3843718174,31.6740482947,13.7956110087\C,0,7.0
 645219625,31.1376866072,15.1939360594\O,0,6.1835037123,30.3253028453,1
 5.4121419526\C,0,8.4960751399,30.8483154031,13.1174339135\C,0,8.389359
 0927,29.3144698847,13.2143292593\C,0,7.0461108045,28.6344444064,12.886
 1385192\N,0,6.2809005973,29.3106068015,11.8359311594\C,0,4.9987042299,
 29.678210969,11.9092287458\N,0,4.3594516131,29.7344747021,13.093297808
 8\N,0,4.3392088948,29.974163736,10.7785513423\O,0,7.841457981,31.63365
 37951,16.1719300265\H,0,7.566682474,31.2261682832,17.0173908021\H,0,6.
 6965321109,33.6280247991,13.9961768723\H,0,6.4631906648,31.4913124609,
 13.2373200923\H,0,9.4544540202,31.1074368166,13.5647088494\H,0,8.50801
 30752,31.1448708312,12.0628218185\H,0,9.1697245555,28.9219798951,12.55
 60992799\H,0,8.6743704625,28.9886941753,14.2219213474\H,0,7.2374075182
 ,27.6061529269,12.5589083294\H,0,6.4295160461,28.565995929,13.77883341
 44\H,0,6.7525470391,29.4128450859,10.9366707188\H,0,3.364347589,29.900
 7128613,13.1205306412\H,0,4.8731637998,29.7943219392,13.970615063\H,0,
 4.8982131369,30.0682250331,9.9235041518\H,0,3.5014793086,30.5371471764
 ,10.8320989509\\Version=ES64L-G16RevC.01\HF=-2054.0661712\RMSD=6.457e-
 09\Dipole=-3.9801081,-3.062659,1.4777904\Quadrupole=-1087.3308833,1826
 .5422296,-739.2113462,794.7488799,337.0640287,1364.3611859\PG=C01 [X(C
 26H39N8O8)]\\@
 The archive entry for this job was punched.


 The most important thing in communication is to hear what isn't being said.
 -- Peter F. Drucker
 Job cpu time:       0 days  0 hours  3 minutes  5.2 seconds.
 Elapsed time:       0 days  0 hours  0 minutes 47.2 seconds.
 File lengths (MBytes):  RWF=    376 Int=      0 D2E=      0 Chk=     56 Scr=     16
 Normal termination of Gaussian 16 at Fri May 27 05:12:51 2022.
