 Entering Gaussian System, Link 0=/opt/software/Gaussian/g16-AVX2-C.01/g16/g16
 Input=charge-conf-291.com
 Output=charge-conf-291.log
 Initial command:
 /opt/software/Gaussian/g16-AVX2-C.01/g16/l1.exe "/mnt/gs18/scratch/users/kengmith/Gau-8128.inp" -scrdir="/mnt/gs18/scratch/users/kengmith/"
 Entering Link 1 = /opt/software/Gaussian/g16-AVX2-C.01/g16/l1.exe PID=      8155.
  
 Copyright (c) 1988-2019, Gaussian, Inc.  All Rights Reserved.
  
 This is part of the Gaussian(R) 16 program.  It is based on
 the Gaussian(R) 09 system (copyright 2009, Gaussian, Inc.),
 the Gaussian(R) 03 system (copyright 2003, Gaussian, Inc.),
 the Gaussian(R) 98 system (copyright 1998, Gaussian, Inc.),
 the Gaussian(R) 94 system (copyright 1995, Gaussian, Inc.),
 the Gaussian 92(TM) system (copyright 1992, Gaussian, Inc.),
 the Gaussian 90(TM) system (copyright 1990, Gaussian, Inc.),
 the Gaussian 88(TM) system (copyright 1988, Gaussian, Inc.),
 the Gaussian 86(TM) system (copyright 1986, Carnegie Mellon
 University), and the Gaussian 82(TM) system (copyright 1983,
 Carnegie Mellon University). Gaussian is a federally registered
 trademark of Gaussian, Inc.
  
 This software contains proprietary and confidential information,
 including trade secrets, belonging to Gaussian, Inc.
  
 This software is provided under written license and may be
 used, copied, transmitted, or stored only in accord with that
 written license.
  
 The following legend is applicable only to US Government
 contracts under FAR:
  
                    RESTRICTED RIGHTS LEGEND
  
 Use, reproduction and disclosure by the US Government is
 subject to restrictions as set forth in subparagraphs (a)
 and (c) of the Commercial Computer Software - Restricted
 Rights clause in FAR 52.227-19.
  
 Gaussian, Inc.
 340 Quinnipiac St., Bldg. 40, Wallingford CT 06492
  
  
 ---------------------------------------------------------------
 Warning -- This program may not be used in any manner that
 competes with the business of Gaussian, Inc. or will provide
 assistance to any competitor of Gaussian, Inc.  The licensee
 of this program is prohibited from giving any competitor of
 Gaussian, Inc. access to this program.  By using this program,
 the user acknowledges that Gaussian, Inc. is engaged in the
 business of creating and licensing software in the field of
 computational chemistry and represents and warrants to the
 licensee that it is not a competitor of Gaussian, Inc. and that
 it will not use this program in any manner prohibited above.
 ---------------------------------------------------------------
  

 Cite this work as:
 Gaussian 16, Revision C.01,
 M. J. Frisch, G. W. Trucks, H. B. Schlegel, G. E. Scuseria, 
 M. A. Robb, J. R. Cheeseman, G. Scalmani, V. Barone, 
 G. A. Petersson, H. Nakatsuji, X. Li, M. Caricato, A. V. Marenich, 
 J. Bloino, B. G. Janesko, R. Gomperts, B. Mennucci, H. P. Hratchian, 
 J. V. Ortiz, A. F. Izmaylov, J. L. Sonnenberg, D. Williams-Young, 
 F. Ding, F. Lipparini, F. Egidi, J. Goings, B. Peng, A. Petrone, 
 T. Henderson, D. Ranasinghe, V. G. Zakrzewski, J. Gao, N. Rega, 
 G. Zheng, W. Liang, M. Hada, M. Ehara, K. Toyota, R. Fukuda, 
 J. Hasegawa, M. Ishida, T. Nakajima, Y. Honda, O. Kitao, H. Nakai, 
 T. Vreven, K. Throssell, J. A. Montgomery, Jr., J. E. Peralta, 
 F. Ogliaro, M. J. Bearpark, J. J. Heyd, E. N. Brothers, K. N. Kudin, 
 V. N. Staroverov, T. A. Keith, R. Kobayashi, J. Normand, 
 K. Raghavachari, A. P. Rendell, J. C. Burant, S. S. Iyengar, 
 J. Tomasi, M. Cossi, J. M. Millam, M. Klene, C. Adamo, R. Cammi, 
 J. W. Ochterski, R. L. Martin, K. Morokuma, O. Farkas, 
 J. B. Foresman, and D. J. Fox, Gaussian, Inc., Wallingford CT, 2019.
 
 ******************************************
 Gaussian 16:  ES64L-G16RevC.01  3-Jul-2019
                27-May-2022 
 ******************************************
 %mem=8gb
 %nproc=4
 Will use up to    4 processors via shared memory.
 %chk=conf-291.chk
 ----------------------------------------------------------------------
 # B3LYP/6-31G* empiricaldispersion=gd3 guess=read geom=check nosymm in
 tegral(ultrafinegrid)
 ----------------------------------------------------------------------
 1/29=2,38=1,172=1/1;
 2/12=2,15=1,40=1/2;
 3/5=1,6=6,7=1,11=2,14=-4,25=1,30=1,74=-5,75=-5,116=-2,124=31/1,2,3;
 4/5=1/1;
 5/5=2,38=6/2;
 6/7=2,8=2,9=2,10=2,28=1/1;
 99/5=1,9=1/99;
 ------------------------------------------------------
 Candidate Structure: Conf:291 Charge calc in gas phase
 ------------------------------------------------------
 Structure from the checkpoint file:  "conf-291.chk"
 Charge =  1 Multiplicity = 1
 Redundant internal coordinates found in file.  (old form).
 N,0,12.1751943163,30.4656626916,12.1311028569
 C,0,12.3335781565,30.5081111699,10.6831808661
 C,0,13.1302828309,31.7189685003,10.162361996
 O,0,14.0594638608,31.5271257946,9.3892916042
 C,0,11.0595479071,30.3592069211,9.784310961
 C,0,11.3877375653,29.5863951379,8.5047517035
 C,0,11.5326322569,28.1059271151,8.7702602575
 O,0,11.0415423171,27.507085903,9.7275746452
 O,0,12.2310402641,27.4787680978,7.8265202457
 H,0,12.2884929717,26.5301965824,8.0536738364
 H,0,12.9910375208,29.667289162,10.4422144837
 H,0,10.2826279596,29.8203484063,10.3334933127
 H,0,10.6405464286,31.3352464778,9.5156351069
 H,0,12.3077816063,29.9591251916,8.0422657112
 H,0,10.594258448,29.6914522883,7.7518753464
 H,0,11.7139958138,31.2622686495,12.5534275322
 H,0,11.7052191516,29.6139874051,12.4230742872
 N,0,12.7554974674,32.9974892356,10.5054814369
 C,0,11.5204697473,33.4779611069,11.0973033684
 C,0,10.7355479613,34.2881955296,10.0465656323
 O,0,11.3107392351,34.8122266814,9.1066961782
 C,0,11.8047026123,34.3562977544,12.3542904249
 C,0,12.2408499488,33.5183384985,13.5136391186
 C,0,13.4942841969,33.0029940546,13.7447193579
 C,0,11.3709170111,32.9352937861,14.5055006678
 C,0,12.1676322778,32.0619028217,15.3015596291
 C,0,10.004924508,33.0720291987,14.8115953643
 N,0,13.4558993717,32.1427341871,14.8204076673
 C,0,11.629422668,31.3162293598,16.3567104192
 C,0,9.4666590829,32.334116205,15.8595627544
 C,0,10.2709638441,31.4590270305,16.6208470923
 H,0,13.2259288374,33.6944666107,9.9329213789
 H,0,10.9305651675,32.6191500455,11.4109722141
 H,0,10.8985954516,34.9169878452,12.6130750629
 H,0,12.559140947,35.0993522167,12.0739682598
 H,0,14.4141547864,33.1684544568,13.202667415
 H,0,14.242724245,31.6131220166,15.1633038604
 H,0,9.3747376684,33.753738589,14.2485152208
 H,0,12.2524173488,30.6582839331,16.9561338656
 H,0,8.4128989951,32.438660932,16.1043043614
 H,0,9.8256832481,30.8999188844,17.4385969538
 N,0,9.3829716173,34.4619061357,10.2452247139
 C,0,8.510537932,33.7412826419,11.152802446
 C,0,7.4903677966,32.9381033802,10.3290701643
 O,0,7.0884727407,33.4184541134,9.2771256408
 C,0,7.7682295481,34.7252906118,12.0965965024
 C,0,6.80012211,35.6824803743,11.4165792882
 O,0,7.0950743091,33.8940270682,13.0741711475
 H,0,6.6866414013,34.4729568203,13.7386812185
 H,0,8.9142362291,34.8960131024,9.4552571942
 H,0,9.1112677324,33.1060582896,11.7908703813
 H,0,8.5526766856,35.2964117931,12.610220643
 H,0,6.3506007217,36.3490534263,12.1614019223
 H,0,6.0040980104,35.1453661516,10.8951450263
 H,0,7.3274812383,36.3103200952,10.6921761193
 N,0,6.9295997795,31.76620847,10.7881145993
 C,0,7.249546984,30.7134712735,11.7613091267
 C,0,6.0959283909,30.5278452442,12.7571729461
 O,0,5.6877485242,29.4102253502,13.0434849979
 C,0,8.5690897984,30.8578626864,12.5320881599
 C,0,8.8866201713,29.7776377888,13.5837635632
 C,0,8.6813665841,28.2854185191,13.2448798723
 N,0,8.8708746072,27.8974156209,11.8348409782
 C,0,7.9607019993,27.2317224069,11.1052472481
 N,0,6.6614264638,27.2583423726,11.4262518867
 N,0,8.3720003154,26.5274587004,10.0364107764
 O,0,5.6021720646,31.6146161345,13.3201180832
 H,0,6.0705990164,32.4308086859,13.0048818685
 H,0,6.2125594097,31.478440676,10.1274719095
 H,0,7.2963167532,29.7873353556,11.1880293545
 H,0,8.5746768305,31.7994701122,13.0811268065
 H,0,9.3758407386,30.8961907825,11.7983127049
 H,0,9.9226773683,29.9543331491,13.888704112
 H,0,8.2987642093,29.969561088,14.4874986425
 H,0,9.3717673188,27.685357612,13.8478572522
 H,0,7.6766454889,27.9832286625,13.5321089931
 H,0,9.8101769207,27.9106005636,11.4426216486
 H,0,6.0172441818,26.6282206475,10.9699800244
 H,0,6.2693116373,27.96090684,12.0704623808
 H,0,9.3609899491,26.5289680688,9.7953234902
 H,0,7.7128968183,26.2748066705,9.3139454495
 Recover connectivity data from disk.
                           ----------------------------
                           !    Current Parameters    !
                           ! (Angstroms and Degrees)  !
 --------------------------                            --------------------------
 ! Name  Definition              Value                                          !
 --------------------------------------------------------------------------------
 ! R1    R(1,2)                  1.4572                                         !
 ! R2    R(1,16)                 1.0127                                         !
 ! R3    R(1,17)                 1.0156                                         !
 ! R4    R(2,3)                  1.5402                                         !
 ! R5    R(2,5)                  1.5663                                         !
 ! R6    R(2,11)                 1.0942                                         !
 ! R7    R(3,4)                  1.2239                                         !
 ! R8    R(3,18)                 1.3758                                         !
 ! R9    R(5,6)                  1.5304                                         !
 ! R10   R(5,12)                 1.0934                                         !
 ! R11   R(5,13)                 1.0956                                         !
 ! R12   R(6,7)                  1.5111                                         !
 ! R13   R(6,14)                 1.0951                                         !
 ! R14   R(6,15)                 1.0988                                         !
 ! R15   R(7,8)                  1.2314                                         !
 ! R16   R(7,9)                  1.3311                                         !
 ! R17   R(9,10)                 0.9771                                         !
 ! R18   R(18,19)                1.4513                                         !
 ! R19   R(18,32)                1.0173                                         !
 ! R20   R(19,20)                1.5416                                         !
 ! R21   R(19,22)                1.5596                                         !
 ! R22   R(19,33)                1.0881                                         !
 ! R23   R(20,21)                1.2202                                         !
 ! R24   R(20,42)                1.3781                                         !
 ! R25   R(22,23)                1.4955                                         !
 ! R26   R(22,34)                1.0965                                         !
 ! R27   R(22,35)                1.0954                                         !
 ! R28   R(23,24)                1.3748                                         !
 ! R29   R(23,25)                1.4424                                         !
 ! R30   R(24,28)                1.3779                                         !
 ! R31   R(24,36)                1.0804                                         !
 ! R32   R(25,26)                1.4252                                         !
 ! R33   R(25,27)                1.4065                                         !
 ! R34   R(26,28)                1.3776                                         !
 ! R35   R(26,29)                1.3997                                         !
 ! R36   R(27,30)                1.3901                                         !
 ! R37   R(27,38)                1.0858                                         !
 ! R38   R(28,37)                1.0085                                         !
 ! R39   R(29,31)                1.3912                                         !
 ! R40   R(29,39)                1.0864                                         !
 ! R41   R(30,31)                1.4115                                         !
 ! R42   R(30,40)                1.0868                                         !
 ! R43   R(31,41)                1.0861                                         !
 ! R44   R(42,43)                1.4506                                         !
 ! R45   R(42,50)                1.016                                          !
 ! R46   R(43,44)                1.5377                                         !
 ! R47   R(43,46)                1.5524                                         !
 ! R48   R(43,51)                1.0824                                         !
 ! R49   R(44,45)                1.2243                                         !
 ! R50   R(44,56)                1.3779                                         !
 ! R51   R(46,47)                1.5218                                         !
 ! R52   R(46,48)                1.4491                                         !
 ! R53   R(46,52)                1.0979                                         !
 ! R54   R(47,53)                1.096                                          !
 ! R55   R(47,54)                1.0927                                         !
 ! R56   R(47,55)                1.0941                                         !
 ! R57   R(48,49)                0.9714                                         !
 ! R58   R(56,57)                1.4689                                         !
 ! R59   R(56,69)                1.0166                                         !
 ! R60   R(57,58)                1.5353                                         !
 ! R61   R(57,60)                1.535                                          !
 ! R62   R(57,70)                1.0902                                         !
 ! R63   R(58,59)                1.2238                                         !
 ! R64   R(58,67)                1.3198                                         !
 ! R65   R(60,61)                1.5407                                         !
 ! R66   R(60,71)                1.09                                           !
 ! R67   R(60,72)                1.0912                                         !
 ! R68   R(61,62)                1.5439                                         !
 ! R69   R(61,73)                1.0944                                         !
 ! R70   R(61,74)                1.0951                                         !
 ! R71   R(62,63)                1.4747                                         !
 ! R72   R(62,75)                1.0956                                         !
 ! R73   R(62,76)                1.0878                                         !
 ! R74   R(63,64)                1.3431                                         !
 ! R75   R(63,77)                1.018                                          !
 ! R76   R(64,65)                1.3386                                         !
 ! R77   R(64,66)                1.3445                                         !
 ! R78   R(65,78)                1.0101                                         !
 ! R79   R(65,79)                1.0307                                         !
 ! R80   R(66,80)                1.018                                          !
 ! R81   R(66,81)                1.0101                                         !
 ! R82   R(67,68)                0.9925                                         !
 ! A1    A(2,1,16)             116.1644                                         !
 ! A2    A(2,1,17)             111.1237                                         !
 ! A3    A(16,1,17)            109.2079                                         !
 ! A4    A(1,2,3)              114.5276                                         !
 ! A5    A(1,2,5)              118.6238                                         !
 ! A6    A(1,2,11)             105.1735                                         !
 ! A7    A(3,2,5)              107.5438                                         !
 ! A8    A(3,2,11)             102.6411                                         !
 ! A9    A(5,2,11)             106.8162                                         !
 ! A10   A(2,3,4)              118.8879                                         !
 ! A11   A(2,3,18)             120.3541                                         !
 ! A12   A(4,3,18)             120.6658                                         !
 ! A13   A(2,5,6)              110.6946                                         !
 ! A14   A(2,5,12)             109.6679                                         !
 ! A15   A(2,5,13)             111.5374                                         !
 ! A16   A(6,5,12)             108.8713                                         !
 ! A17   A(6,5,13)             109.0764                                         !
 ! A18   A(12,5,13)            106.8856                                         !
 ! A19   A(5,6,7)              111.6169                                         !
 ! A20   A(5,6,14)             111.1849                                         !
 ! A21   A(5,6,15)             111.6978                                         !
 ! A22   A(7,6,14)             109.0935                                         !
 ! A23   A(7,6,15)             106.4574                                         !
 ! A24   A(14,6,15)            106.5449                                         !
 ! A25   A(6,7,8)              125.089                                          !
 ! A26   A(6,7,9)              112.7907                                         !
 ! A27   A(8,7,9)              122.0957                                         !
 ! A28   A(7,9,10)             108.8712                                         !
 ! A29   A(3,18,19)            129.8781                                         !
 ! A30   A(3,18,32)            111.7368                                         !
 ! A31   A(19,18,32)           113.3408                                         !
 ! A32   A(18,19,20)           109.2278                                         !
 ! A33   A(18,19,22)           111.1013                                         !
 ! A34   A(18,19,33)           108.5178                                         !
 ! A35   A(20,19,22)           110.251                                          !
 ! A36   A(20,19,33)           109.589                                          !
 ! A37   A(22,19,33)           108.1183                                         !
 ! A38   A(19,20,21)           120.7109                                         !
 ! A39   A(19,20,42)           117.8866                                         !
 ! A40   A(21,20,42)           121.3043                                         !
 ! A41   A(19,22,23)           111.2478                                         !
 ! A42   A(19,22,34)           109.1226                                         !
 ! A43   A(19,22,35)           107.5357                                         !
 ! A44   A(23,22,34)           110.1544                                         !
 ! A45   A(23,22,35)           112.1862                                         !
 ! A46   A(34,22,35)           106.4195                                         !
 ! A47   A(22,23,24)           127.3179                                         !
 ! A48   A(22,23,25)           125.7101                                         !
 ! A49   A(24,23,25)           106.4256                                         !
 ! A50   A(23,24,28)           109.8675                                         !
 ! A51   A(23,24,36)           129.3823                                         !
 ! A52   A(28,24,36)           120.7294                                         !
 ! A53   A(23,25,26)           107.1363                                         !
 ! A54   A(23,25,27)           134.1138                                         !
 ! A55   A(26,25,27)           118.7454                                         !
 ! A56   A(25,26,28)           106.9614                                         !
 ! A57   A(25,26,29)           122.1806                                         !
 ! A58   A(28,26,29)           130.857                                          !
 ! A59   A(25,27,30)           119.2419                                         !
 ! A60   A(25,27,38)           120.7871                                         !
 ! A61   A(30,27,38)           119.9663                                         !
 ! A62   A(24,28,26)           109.5942                                         !
 ! A63   A(24,28,37)           124.8574                                         !
 ! A64   A(26,28,37)           125.4523                                         !
 ! A65   A(26,29,31)           117.6397                                         !
 ! A66   A(26,29,39)           121.203                                          !
 ! A67   A(31,29,39)           121.1532                                         !
 ! A68   A(27,30,31)           121.0013                                         !
 ! A69   A(27,30,40)           119.6113                                         !
 ! A70   A(31,30,40)           119.3846                                         !
 ! A71   A(29,31,30)           121.1742                                         !
 ! A72   A(29,31,41)           119.369                                          !
 ! A73   A(30,31,41)           119.4482                                         !
 ! A74   A(20,42,43)           128.162                                          !
 ! A75   A(20,42,50)           113.2409                                         !
 ! A76   A(43,42,50)           114.9149                                         !
 ! A77   A(42,43,44)           108.8656                                         !
 ! A78   A(42,43,46)           110.6753                                         !
 ! A79   A(42,43,51)           109.0618                                         !
 ! A80   A(44,43,46)           109.8481                                         !
 ! A81   A(44,43,51)           112.1778                                         !
 ! A82   A(46,43,51)           106.2                                            !
 ! A83   A(43,44,45)           118.2392                                         !
 ! A84   A(43,44,56)           122.3982                                         !
 ! A85   A(45,44,56)           119.1018                                         !
 ! A86   A(43,46,47)           115.5442                                         !
 ! A87   A(43,46,48)           105.584                                          !
 ! A88   A(43,46,52)           105.813                                          !
 ! A89   A(47,46,48)           111.5155                                         !
 ! A90   A(47,46,52)           109.6573                                         !
 ! A91   A(48,46,52)           108.3444                                         !
 ! A92   A(46,47,53)           109.8646                                         !
 ! A93   A(46,47,54)           111.561                                          !
 ! A94   A(46,47,55)           110.4976                                         !
 ! A95   A(53,47,54)           108.933                                          !
 ! A96   A(53,47,55)           107.3765                                         !
 ! A97   A(54,47,55)           108.4966                                         !
 ! A98   A(46,48,49)           108.3573                                         !
 ! A99   A(44,56,57)           137.8695                                         !
 ! A100  A(44,56,69)           108.1387                                         !
 ! A101  A(57,56,69)           112.4153                                         !
 ! A102  A(56,57,58)           110.6548                                         !
 ! A103  A(56,57,60)           116.9047                                         !
 ! A104  A(56,57,70)           105.6509                                         !
 ! A105  A(58,57,60)           109.3663                                         !
 ! A106  A(58,57,70)           105.7009                                         !
 ! A107  A(60,57,70)           107.8834                                         !
 ! A108  A(57,58,59)           120.8506                                         !
 ! A109  A(57,58,67)           117.274                                          !
 ! A110  A(59,58,67)           121.8328                                         !
 ! A111  A(57,60,61)           116.9994                                         !
 ! A112  A(57,60,71)           109.7917                                         !
 ! A113  A(57,60,72)           107.5295                                         !
 ! A114  A(61,60,71)           105.1171                                         !
 ! A115  A(61,60,72)           109.3455                                         !
 ! A116  A(71,60,72)           107.7329                                         !
 ! A117  A(60,61,62)           120.0281                                         !
 ! A118  A(60,61,73)           105.7902                                         !
 ! A119  A(60,61,74)           109.2578                                         !
 ! A120  A(62,61,73)           110.0644                                         !
 ! A121  A(62,61,74)           106.2109                                         !
 ! A122  A(73,61,74)           104.4755                                         !
 ! A123  A(61,62,63)           116.5572                                         !
 ! A124  A(61,62,75)           108.9527                                         !
 ! A125  A(61,62,76)           109.4712                                         !
 ! A126  A(63,62,75)           107.5271                                         !
 ! A127  A(63,62,76)           107.3422                                         !
 ! A128  A(75,62,76)           106.5329                                         !
 ! A129  A(62,63,64)           124.2452                                         !
 ! A130  A(62,63,77)           118.9187                                         !
 ! A131  A(64,63,77)           114.9872                                         !
 ! A132  A(63,64,65)           121.174                                          !
 ! A133  A(63,64,66)           118.9586                                         !
 ! A134  A(65,64,66)           119.8673                                         !
 ! A135  A(64,65,78)           119.8874                                         !
 ! A136  A(64,65,79)           122.1875                                         !
 ! A137  A(78,65,79)           117.7068                                         !
 ! A138  A(64,66,80)           118.9944                                         !
 ! A139  A(64,66,81)           120.0027                                         !
 ! A140  A(80,66,81)           117.7067                                         !
 ! A141  A(58,67,68)           111.4163                                         !
 ! D1    D(16,1,2,3)            58.6461                                         !
 ! D2    D(16,1,2,5)           -70.1464                                         !
 ! D3    D(16,1,2,11)          170.5462                                         !
 ! D4    D(17,1,2,3)          -175.7085                                         !
 ! D5    D(17,1,2,5)            55.499                                          !
 ! D6    D(17,1,2,11)          -63.8084                                         !
 ! D7    D(1,2,3,4)            129.3502                                         !
 ! D8    D(1,2,3,18)           -54.1176                                         !
 ! D9    D(5,2,3,4)            -96.5014                                         !
 ! D10   D(5,2,3,18)            80.0307                                         !
 ! D11   D(11,2,3,4)            15.9473                                         !
 ! D12   D(11,2,3,18)         -167.5205                                         !
 ! D13   D(1,2,5,6)           -144.6885                                         !
 ! D14   D(1,2,5,12)           -24.5433                                         !
 ! D15   D(1,2,5,13)            93.6645                                         !
 ! D16   D(3,2,5,6)             83.3572                                         !
 ! D17   D(3,2,5,12)          -156.4977                                         !
 ! D18   D(3,2,5,13)           -38.2898                                         !
 ! D19   D(11,2,5,6)           -26.2347                                         !
 ! D20   D(11,2,5,12)           93.9104                                         !
 ! D21   D(11,2,5,13)         -147.8817                                         !
 ! D22   D(2,3,18,19)          -14.2599                                         !
 ! D23   D(2,3,18,32)         -166.9952                                         !
 ! D24   D(4,3,18,19)          162.2101                                         !
 ! D25   D(4,3,18,32)            9.4748                                         !
 ! D26   D(2,5,6,7)             75.6274                                         !
 ! D27   D(2,5,6,14)           -46.4417                                         !
 ! D28   D(2,5,6,15)          -165.3175                                         !
 ! D29   D(12,5,6,7)           -44.9927                                         !
 ! D30   D(12,5,6,14)         -167.0618                                         !
 ! D31   D(12,5,6,15)           74.0623                                         !
 ! D32   D(13,5,6,7)          -161.2885                                         !
 ! D33   D(13,5,6,14)           76.6424                                         !
 ! D34   D(13,5,6,15)          -42.2334                                         !
 ! D35   D(5,6,7,8)             22.7111                                         !
 ! D36   D(5,6,7,9)           -159.068                                          !
 ! D37   D(14,6,7,8)           145.9765                                         !
 ! D38   D(14,6,7,9)           -35.8026                                         !
 ! D39   D(15,6,7,8)           -99.4113                                         !
 ! D40   D(15,6,7,9)            78.8096                                         !
 ! D41   D(6,7,9,10)          -179.9485                                         !
 ! D42   D(8,7,9,10)            -1.6669                                         !
 ! D43   D(3,18,19,20)        -109.8443                                         !
 ! D44   D(3,18,19,22)         128.3175                                         !
 ! D45   D(3,18,19,33)           9.581                                          !
 ! D46   D(32,18,19,20)         42.5454                                         !
 ! D47   D(32,18,19,22)        -79.2928                                         !
 ! D48   D(32,18,19,33)        161.9706                                         !
 ! D49   D(18,19,20,21)        -24.0621                                         !
 ! D50   D(18,19,20,42)        159.4939                                         !
 ! D51   D(22,19,20,21)         98.2877                                         !
 ! D52   D(22,19,20,42)        -78.1562                                         !
 ! D53   D(33,19,20,21)       -142.8225                                         !
 ! D54   D(33,19,20,42)         40.7335                                         !
 ! D55   D(18,19,22,23)        -73.4269                                         !
 ! D56   D(18,19,22,34)        164.8315                                         !
 ! D57   D(18,19,22,35)         49.7874                                         !
 ! D58   D(20,19,22,23)        165.3332                                         !
 ! D59   D(20,19,22,34)         43.5916                                         !
 ! D60   D(20,19,22,35)        -71.4526                                         !
 ! D61   D(33,19,22,23)         45.5498                                         !
 ! D62   D(33,19,22,34)        -76.1918                                         !
 ! D63   D(33,19,22,35)        168.764                                          !
 ! D64   D(19,20,42,43)        -15.3052                                         !
 ! D65   D(19,20,42,50)       -172.3165                                         !
 ! D66   D(21,20,42,43)        168.273                                          !
 ! D67   D(21,20,42,50)         11.2618                                         !
 ! D68   D(19,22,23,24)         79.9632                                         !
 ! D69   D(19,22,23,25)        -90.3885                                         !
 ! D70   D(34,22,23,24)       -158.8975                                         !
 ! D71   D(34,22,23,25)         30.7509                                         !
 ! D72   D(35,22,23,24)        -40.5473                                         !
 ! D73   D(35,22,23,25)        149.101                                          !
 ! D74   D(22,23,24,28)       -172.1104                                         !
 ! D75   D(22,23,24,36)          6.2113                                         !
 ! D76   D(25,23,24,28)         -0.2669                                         !
 ! D77   D(25,23,24,36)        178.0547                                         !
 ! D78   D(22,23,25,26)        171.5069                                         !
 ! D79   D(22,23,25,27)         -9.3069                                         !
 ! D80   D(24,23,25,26)         -0.5054                                         !
 ! D81   D(24,23,25,27)        178.6809                                         !
 ! D82   D(23,24,28,26)          0.977                                          !
 ! D83   D(23,24,28,37)        177.5709                                         !
 ! D84   D(36,24,28,26)       -177.5138                                         !
 ! D85   D(36,24,28,37)         -0.92                                           !
 ! D86   D(23,25,26,28)          1.0812                                         !
 ! D87   D(23,25,26,29)       -179.2552                                         !
 ! D88   D(27,25,26,28)       -178.2525                                         !
 ! D89   D(27,25,26,29)          1.4111                                         !
 ! D90   D(23,25,27,30)        179.5766                                         !
 ! D91   D(23,25,27,38)         -1.2118                                         !
 ! D92   D(26,25,27,30)         -1.3103                                         !
 ! D93   D(26,25,27,38)        177.9013                                         !
 ! D94   D(25,26,28,24)         -1.2677                                         !
 ! D95   D(25,26,28,37)       -177.8366                                         !
 ! D96   D(29,26,28,24)        179.1087                                         !
 ! D97   D(29,26,28,37)          2.5399                                         !
 ! D98   D(25,26,29,31)         -0.4623                                         !
 ! D99   D(25,26,29,39)       -179.7371                                         !
 ! D100  D(28,26,29,31)        179.1123                                         !
 ! D101  D(28,26,29,39)         -0.1625                                         !
 ! D102  D(25,27,30,31)          0.3273                                         !
 ! D103  D(25,27,30,40)        179.7111                                         !
 ! D104  D(38,27,30,31)       -178.8909                                         !
 ! D105  D(38,27,30,40)          0.4929                                         !
 ! D106  D(26,29,31,30)         -0.5683                                         !
 ! D107  D(26,29,31,41)       -179.492                                          !
 ! D108  D(39,29,31,30)        178.7069                                         !
 ! D109  D(39,29,31,41)         -0.2167                                         !
 ! D110  D(27,30,31,29)          0.647                                          !
 ! D111  D(27,30,31,41)        179.5698                                         !
 ! D112  D(40,30,31,29)       -178.7382                                         !
 ! D113  D(40,30,31,41)          0.1846                                         !
 ! D114  D(20,42,43,44)       -114.481                                          !
 ! D115  D(20,42,43,46)        124.6916                                         !
 ! D116  D(20,42,43,51)          8.2112                                         !
 ! D117  D(50,42,43,44)         42.2104                                         !
 ! D118  D(50,42,43,46)        -78.617                                          !
 ! D119  D(50,42,43,51)        164.9026                                         !
 ! D120  D(42,43,44,45)        -34.3735                                         !
 ! D121  D(42,43,44,56)        151.5504                                         !
 ! D122  D(46,43,44,45)         86.9605                                         !
 ! D123  D(46,43,44,56)        -87.1156                                         !
 ! D124  D(51,43,44,45)       -155.1703                                         !
 ! D125  D(51,43,44,56)         30.7536                                         !
 ! D126  D(42,43,46,47)         64.6297                                         !
 ! D127  D(42,43,46,48)       -171.6393                                         !
 ! D128  D(42,43,46,52)        -56.8943                                         !
 ! D129  D(44,43,46,47)        -55.6125                                         !
 ! D130  D(44,43,46,48)         68.1185                                         !
 ! D131  D(44,43,46,52)       -177.1366                                         !
 ! D132  D(51,43,46,47)       -177.1319                                         !
 ! D133  D(51,43,46,48)        -53.401                                          !
 ! D134  D(51,43,46,52)         61.344                                          !
 ! D135  D(43,44,56,57)        -22.724                                          !
 ! D136  D(43,44,56,69)        173.4681                                         !
 ! D137  D(45,44,56,57)        163.249                                          !
 ! D138  D(45,44,56,69)         -0.5589                                         !
 ! D139  D(43,46,47,53)       -178.4792                                         !
 ! D140  D(43,46,47,54)         60.6097                                         !
 ! D141  D(43,46,47,55)        -60.1802                                         !
 ! D142  D(48,46,47,53)         60.9592                                         !
 ! D143  D(48,46,47,54)        -59.9519                                         !
 ! D144  D(48,46,47,55)        179.2582                                         !
 ! D145  D(52,46,47,53)        -59.0446                                         !
 ! D146  D(52,46,47,54)       -179.9557                                         !
 ! D147  D(52,46,47,55)         59.2544                                         !
 ! D148  D(43,46,48,49)        174.5659                                         !
 ! D149  D(47,46,48,49)        -59.1958                                         !
 ! D150  D(52,46,48,49)         61.579                                          !
 ! D151  D(44,56,57,58)        125.3482                                         !
 ! D152  D(44,56,57,60)         -0.7156                                         !
 ! D153  D(44,56,57,70)       -120.7009                                         !
 ! D154  D(69,56,57,58)        -71.3099                                         !
 ! D155  D(69,56,57,60)        162.6263                                         !
 ! D156  D(69,56,57,70)         42.6411                                         !
 ! D157  D(56,57,58,59)        133.7953                                         !
 ! D158  D(56,57,58,67)        -48.5383                                         !
 ! D159  D(60,57,58,59)        -96.0316                                         !
 ! D160  D(60,57,58,67)         81.6349                                         !
 ! D161  D(70,57,58,59)         19.876                                          !
 ! D162  D(70,57,58,67)       -162.4576                                         !
 ! D163  D(56,57,60,61)        178.2057                                         !
 ! D164  D(56,57,60,71)         58.5742                                         !
 ! D165  D(56,57,60,72)        -58.3705                                         !
 ! D166  D(58,57,60,61)         51.5049                                         !
 ! D167  D(58,57,60,71)        -68.1265                                         !
 ! D168  D(58,57,60,72)        174.9287                                         !
 ! D169  D(70,57,60,61)        -63.0035                                         !
 ! D170  D(70,57,60,71)        177.3651                                         !
 ! D171  D(70,57,60,72)         60.4203                                         !
 ! D172  D(57,58,67,68)         -0.1062                                         !
 ! D173  D(59,58,67,68)        177.5358                                         !
 ! D174  D(57,60,61,62)         45.3009                                         !
 ! D175  D(57,60,61,73)        170.4183                                         !
 ! D176  D(57,60,61,74)        -77.6215                                         !
 ! D177  D(71,60,61,62)        167.3929                                         !
 ! D178  D(71,60,61,73)        -67.4897                                         !
 ! D179  D(71,60,61,74)         44.4705                                         !
 ! D180  D(72,60,61,62)        -77.189                                          !
 ! D181  D(72,60,61,73)         47.9284                                         !
 ! D182  D(72,60,61,74)        159.8886                                         !
 ! D183  D(60,61,62,63)         30.7638                                         !
 ! D184  D(60,61,62,75)        152.6087                                         !
 ! D185  D(60,61,62,76)        -91.253                                          !
 ! D186  D(73,61,62,63)        -92.3102                                         !
 ! D187  D(73,61,62,75)         29.5347                                         !
 ! D188  D(73,61,62,76)        145.673                                          !
 ! D189  D(74,61,62,63)        155.1501                                         !
 ! D190  D(74,61,62,75)        -83.005                                          !
 ! D191  D(74,61,62,76)         33.1333                                         !
 ! D192  D(61,62,63,64)       -126.2075                                         !
 ! D193  D(61,62,63,77)         70.0755                                         !
 ! D194  D(75,62,63,64)        111.202                                          !
 ! D195  D(75,62,63,77)        -52.5149                                         !
 ! D196  D(76,62,63,64)         -3.0815                                         !
 ! D197  D(76,62,63,77)       -166.7985                                         !
 ! D198  D(62,63,64,65)         23.1019                                         !
 ! D199  D(62,63,64,66)       -156.8058                                         !
 ! D200  D(77,63,64,65)       -172.6078                                         !
 ! D201  D(77,63,64,66)          7.4845                                         !
 ! D202  D(63,64,65,78)       -169.2793                                         !
 ! D203  D(63,64,65,79)         16.2126                                         !
 ! D204  D(66,64,65,78)         10.6275                                         !
 ! D205  D(66,64,65,79)       -163.8805                                         !
 ! D206  D(63,64,66,80)         -1.0979                                         !
 ! D207  D(63,64,66,81)       -160.135                                          !
 ! D208  D(65,64,66,80)        178.9932                                         !
 ! D209  D(65,64,66,81)         19.9561                                         !
 --------------------------------------------------------------------------------
 Symmetry turned off by external request.
 Stoichiometry    C26H39N8O8(1+)
 Framework group  C1[X(C26H39N8O8)]
 Deg. of freedom   237
 Full point group                 C1      NOp   1
                          Input orientation:                          
 ---------------------------------------------------------------------
 Center     Atomic      Atomic             Coordinates (Angstroms)
 Number     Number       Type             X           Y           Z
 ---------------------------------------------------------------------
      1          7           0       12.175194   30.465663   12.131103
      2          6           0       12.333578   30.508111   10.683181
      3          6           0       13.130283   31.718969   10.162362
      4          8           0       14.059464   31.527126    9.389292
      5          6           0       11.059548   30.359207    9.784311
      6          6           0       11.387738   29.586395    8.504752
      7          6           0       11.532632   28.105927    8.770260
      8          8           0       11.041542   27.507086    9.727575
      9          8           0       12.231040   27.478768    7.826520
     10          1           0       12.288493   26.530197    8.053674
     11          1           0       12.991038   29.667289   10.442214
     12          1           0       10.282628   29.820348   10.333493
     13          1           0       10.640546   31.335246    9.515635
     14          1           0       12.307782   29.959125    8.042266
     15          1           0       10.594258   29.691452    7.751875
     16          1           0       11.713996   31.262269   12.553428
     17          1           0       11.705219   29.613987   12.423074
     18          7           0       12.755497   32.997489   10.505481
     19          6           0       11.520470   33.477961   11.097303
     20          6           0       10.735548   34.288196   10.046566
     21          8           0       11.310739   34.812227    9.106696
     22          6           0       11.804703   34.356298   12.354290
     23          6           0       12.240850   33.518338   13.513639
     24          6           0       13.494284   33.002994   13.744719
     25          6           0       11.370917   32.935294   14.505501
     26          6           0       12.167632   32.061903   15.301560
     27          6           0       10.004925   33.072029   14.811595
     28          7           0       13.455899   32.142734   14.820408
     29          6           0       11.629423   31.316229   16.356710
     30          6           0        9.466659   32.334116   15.859563
     31          6           0       10.270964   31.459027   16.620847
     32          1           0       13.225929   33.694467    9.932921
     33          1           0       10.930565   32.619150   11.410972
     34          1           0       10.898595   34.916988   12.613075
     35          1           0       12.559141   35.099352   12.073968
     36          1           0       14.414155   33.168454   13.202667
     37          1           0       14.242724   31.613122   15.163304
     38          1           0        9.374738   33.753739   14.248515
     39          1           0       12.252417   30.658284   16.956134
     40          1           0        8.412899   32.438661   16.104304
     41          1           0        9.825683   30.899919   17.438597
     42          7           0        9.382972   34.461906   10.245225
     43          6           0        8.510538   33.741283   11.152802
     44          6           0        7.490368   32.938103   10.329070
     45          8           0        7.088473   33.418454    9.277126
     46          6           0        7.768230   34.725291   12.096597
     47          6           0        6.800122   35.682480   11.416579
     48          8           0        7.095074   33.894027   13.074171
     49          1           0        6.686641   34.472957   13.738681
     50          1           0        8.914236   34.896013    9.455257
     51          1           0        9.111268   33.106058   11.790870
     52          1           0        8.552677   35.296412   12.610221
     53          1           0        6.350601   36.349053   12.161402
     54          1           0        6.004098   35.145366   10.895145
     55          1           0        7.327481   36.310320   10.692176
     56          7           0        6.929600   31.766208   10.788115
     57          6           0        7.249547   30.713471   11.761309
     58          6           0        6.095928   30.527845   12.757173
     59          8           0        5.687749   29.410225   13.043485
     60          6           0        8.569090   30.857863   12.532088
     61          6           0        8.886620   29.777638   13.583764
     62          6           0        8.681367   28.285419   13.244880
     63          7           0        8.870875   27.897416   11.834841
     64          6           0        7.960702   27.231722   11.105247
     65          7           0        6.661426   27.258342   11.426252
     66          7           0        8.372000   26.527459   10.036411
     67          8           0        5.602172   31.614616   13.320118
     68          1           0        6.070599   32.430809   13.004882
     69          1           0        6.212559   31.478441   10.127472
     70          1           0        7.296317   29.787335   11.188029
     71          1           0        8.574677   31.799470   13.081127
     72          1           0        9.375841   30.896191   11.798313
     73          1           0        9.922677   29.954333   13.888704
     74          1           0        8.298764   29.969561   14.487499
     75          1           0        9.371767   27.685358   13.847857
     76          1           0        7.676645   27.983229   13.532109
     77          1           0        9.810177   27.910601   11.442622
     78          1           0        6.017244   26.628221   10.969980
     79          1           0        6.269312   27.960907   12.070462
     80          1           0        9.360990   26.528968    9.795323
     81          1           0        7.712897   26.274807    9.313945
 ---------------------------------------------------------------------
 Rotational constants (GHZ):           0.0847626           0.0797039           0.0676709
 Standard basis: 6-31G(d) (6D, 7F)
   708 basis functions,  1332 primitive gaussians,   708 cartesian basis functions
   157 alpha electrons      157 beta electrons
       nuclear repulsion energy      5768.7785395921 Hartrees.
 NAtoms=   81 NActive=   81 NUniq=   81 SFac= 1.00D+00 NAtFMM=   60 NAOKFM=T Big=T
 Integral buffers will be    131072 words long.
 Raffenetti 2 integral format.
 Two-electron integral symmetry is turned off.
 Nuclear repulsion after empirical dispersion term =     5768.6447841507 Hartrees.
 One-electron integrals computed using PRISM.
 NBasis=   708 RedAO= T EigKep=  3.49D-04  NBF=   708
 NBsUse=   708 1.00D-06 EigRej= -1.00D+00 NBFU=   708
 Initial guess from the checkpoint file:  "conf-291.chk"
 B after Tr=     0.000000    0.000000    0.000000
         Rot=    1.000000    0.000000    0.000000    0.000000 Ang=   0.00 deg.
 Requested convergence on RMS density matrix=1.00D-08 within 128 cycles.
 Requested convergence on MAX density matrix=1.00D-06.
 Requested convergence on             energy=1.00D-06.
 No special actions if energy rises.
 SCF Done:  E(RB3LYP) =  -2054.04306639     A.U. after    3 cycles
            NFock=  3  Conv=0.97D-09     -V/T= 2.0093

 **********************************************************************

            Population analysis using the SCF Density.

 **********************************************************************

 Alpha  occ. eigenvalues --  -19.32325 -19.30146 -19.29195 -19.27741 -19.25938
 Alpha  occ. eigenvalues --  -19.22978 -19.20935 -19.19272 -14.51598 -14.51183
 Alpha  occ. eigenvalues --  -14.50717 -14.48353 -14.46390 -14.45793 -14.43980
 Alpha  occ. eigenvalues --  -14.41497 -10.47899 -10.45493 -10.43919 -10.40735
 Alpha  occ. eigenvalues --  -10.38377 -10.37082 -10.36910 -10.36509 -10.35695
 Alpha  occ. eigenvalues --  -10.35212 -10.33443 -10.32048 -10.31708 -10.31149
 Alpha  occ. eigenvalues --  -10.31146 -10.30604 -10.30299 -10.30114 -10.28881
 Alpha  occ. eigenvalues --  -10.27968 -10.27632 -10.27521 -10.27268 -10.27115
 Alpha  occ. eigenvalues --  -10.26982 -10.26687  -1.23688  -1.21765  -1.16279
 Alpha  occ. eigenvalues --   -1.15959  -1.15161  -1.14423  -1.13401  -1.13138
 Alpha  occ. eigenvalues --   -1.11334  -1.06423  -1.05537  -1.04230  -1.04103
 Alpha  occ. eigenvalues --   -1.02584  -1.00926  -0.98409  -0.92833  -0.92489
 Alpha  occ. eigenvalues --   -0.90768  -0.89470  -0.88852  -0.87356  -0.84676
 Alpha  occ. eigenvalues --   -0.82935  -0.82220  -0.81900  -0.81014  -0.80467
 Alpha  occ. eigenvalues --   -0.78367  -0.76072  -0.75436  -0.74614  -0.73629
 Alpha  occ. eigenvalues --   -0.73016  -0.72744  -0.70848  -0.70626  -0.70069
 Alpha  occ. eigenvalues --   -0.69224  -0.68785  -0.67729  -0.67321  -0.66008
 Alpha  occ. eigenvalues --   -0.65515  -0.64998  -0.64687  -0.63994  -0.63292
 Alpha  occ. eigenvalues --   -0.62429  -0.62230  -0.61457  -0.60647  -0.60131
 Alpha  occ. eigenvalues --   -0.59685  -0.59313  -0.58871  -0.58473  -0.58343
 Alpha  occ. eigenvalues --   -0.57630  -0.57373  -0.56823  -0.56529  -0.56094
 Alpha  occ. eigenvalues --   -0.55628  -0.55465  -0.55131  -0.54789  -0.54508
 Alpha  occ. eigenvalues --   -0.54106  -0.53287  -0.52996  -0.52440  -0.51962
 Alpha  occ. eigenvalues --   -0.51631  -0.51434  -0.51173  -0.50727  -0.50447
 Alpha  occ. eigenvalues --   -0.49897  -0.49745  -0.49456  -0.48849  -0.48780
 Alpha  occ. eigenvalues --   -0.48515  -0.48173  -0.47660  -0.47349  -0.46861
 Alpha  occ. eigenvalues --   -0.46725  -0.46586  -0.46248  -0.45610  -0.45112
 Alpha  occ. eigenvalues --   -0.45022  -0.44768  -0.44454  -0.43933  -0.42955
 Alpha  occ. eigenvalues --   -0.42364  -0.42169  -0.41829  -0.41371  -0.41103
 Alpha  occ. eigenvalues --   -0.40633  -0.40212  -0.37378  -0.36662  -0.36349
 Alpha  occ. eigenvalues --   -0.35209  -0.35040  -0.34219  -0.33330  -0.31784
 Alpha  occ. eigenvalues --   -0.30892  -0.28796
 Alpha virt. eigenvalues --   -0.12653  -0.12209  -0.11599  -0.09998  -0.09970
 Alpha virt. eigenvalues --   -0.07944  -0.07387  -0.06529  -0.06389  -0.05603
 Alpha virt. eigenvalues --   -0.04839  -0.04018  -0.03233  -0.02578  -0.02047
 Alpha virt. eigenvalues --   -0.01614  -0.00877  -0.00397   0.00061   0.00558
 Alpha virt. eigenvalues --    0.00827   0.00993   0.01737   0.01986   0.02594
 Alpha virt. eigenvalues --    0.02744   0.03389   0.03804   0.03833   0.04182
 Alpha virt. eigenvalues --    0.04882   0.05133   0.05371   0.05906   0.06115
 Alpha virt. eigenvalues --    0.06483   0.06986   0.07146   0.07421   0.07753
 Alpha virt. eigenvalues --    0.08135   0.08417   0.08730   0.09230   0.09363
 Alpha virt. eigenvalues --    0.09807   0.10042   0.10391   0.10442   0.10803
 Alpha virt. eigenvalues --    0.11458   0.11512   0.12173   0.12560   0.12758
 Alpha virt. eigenvalues --    0.13129   0.13270   0.13483   0.13629   0.13885
 Alpha virt. eigenvalues --    0.14444   0.15022   0.15863   0.16173   0.16350
 Alpha virt. eigenvalues --    0.17427   0.18326   0.18678   0.19095   0.19466
 Alpha virt. eigenvalues --    0.20114   0.20910   0.21749   0.22426   0.23409
 Alpha virt. eigenvalues --    0.23874   0.24928   0.25510   0.25866   0.26299
 Alpha virt. eigenvalues --    0.27263   0.27627   0.27856   0.28954   0.30278
 Alpha virt. eigenvalues --    0.31282   0.31690   0.31956   0.33267   0.35660
 Alpha virt. eigenvalues --    0.36072   0.37292   0.38141   0.38992   0.39786
 Alpha virt. eigenvalues --    0.40654   0.40975   0.41683   0.42050   0.42419
 Alpha virt. eigenvalues --    0.43187   0.43537   0.43677   0.43855   0.44286
 Alpha virt. eigenvalues --    0.44704   0.45237   0.45327   0.45635   0.45754
 Alpha virt. eigenvalues --    0.46718   0.47019   0.47129   0.47506   0.47900
 Alpha virt. eigenvalues --    0.48770   0.48809   0.49077   0.49387   0.49581
 Alpha virt. eigenvalues --    0.50119   0.50437   0.50837   0.50860   0.51426
 Alpha virt. eigenvalues --    0.51757   0.52182   0.52569   0.52947   0.53326
 Alpha virt. eigenvalues --    0.53455   0.53815   0.54245   0.54444   0.55090
 Alpha virt. eigenvalues --    0.55400   0.55738   0.56392   0.57096   0.57428
 Alpha virt. eigenvalues --    0.57918   0.58576   0.59074   0.59208   0.59611
 Alpha virt. eigenvalues --    0.59902   0.60810   0.61174   0.61397   0.61882
 Alpha virt. eigenvalues --    0.62995   0.63359   0.63992   0.64334   0.64996
 Alpha virt. eigenvalues --    0.65505   0.66168   0.66731   0.67180   0.67718
 Alpha virt. eigenvalues --    0.68403   0.69143   0.69285   0.69991   0.70615
 Alpha virt. eigenvalues --    0.70959   0.71393   0.71948   0.72251   0.72776
 Alpha virt. eigenvalues --    0.72885   0.73602   0.73774   0.74091   0.74217
 Alpha virt. eigenvalues --    0.74711   0.75086   0.75174   0.75681   0.75722
 Alpha virt. eigenvalues --    0.76101   0.76565   0.76586   0.77114   0.77611
 Alpha virt. eigenvalues --    0.78086   0.78322   0.78715   0.78878   0.79474
 Alpha virt. eigenvalues --    0.79724   0.80190   0.80280   0.80785   0.80894
 Alpha virt. eigenvalues --    0.81467   0.81713   0.82329   0.83030   0.83273
 Alpha virt. eigenvalues --    0.83639   0.84013   0.84337   0.84785   0.85159
 Alpha virt. eigenvalues --    0.85656   0.86033   0.86396   0.86488   0.87709
 Alpha virt. eigenvalues --    0.88181   0.88355   0.89495   0.90121   0.90509
 Alpha virt. eigenvalues --    0.91068   0.91200   0.92117   0.92770   0.93256
 Alpha virt. eigenvalues --    0.94075   0.94368   0.95118   0.96012   0.96440
 Alpha virt. eigenvalues --    0.96551   0.97758   0.98191   0.98699   0.98943
 Alpha virt. eigenvalues --    1.00273   1.00496   1.00840   1.01627   1.02273
 Alpha virt. eigenvalues --    1.02448   1.02993   1.03427   1.04127   1.04482
 Alpha virt. eigenvalues --    1.05549   1.05778   1.06174   1.06462   1.06585
 Alpha virt. eigenvalues --    1.07182   1.08043   1.08915   1.09038   1.09474
 Alpha virt. eigenvalues --    1.10127   1.10936   1.11412   1.12157   1.13057
 Alpha virt. eigenvalues --    1.13598   1.14345   1.15723   1.16531   1.17373
 Alpha virt. eigenvalues --    1.18116   1.18653   1.19420   1.19713   1.20508
 Alpha virt. eigenvalues --    1.21338   1.21841   1.22604   1.24688   1.25166
 Alpha virt. eigenvalues --    1.25997   1.26299   1.27144   1.27572   1.28337
 Alpha virt. eigenvalues --    1.29524   1.29877   1.30185   1.30519   1.31322
 Alpha virt. eigenvalues --    1.31353   1.32723   1.33291   1.33798   1.34155
 Alpha virt. eigenvalues --    1.34958   1.35774   1.37193   1.37984   1.38572
 Alpha virt. eigenvalues --    1.39604   1.40390   1.41200   1.41531   1.41845
 Alpha virt. eigenvalues --    1.41974   1.42783   1.43642   1.44639   1.45470
 Alpha virt. eigenvalues --    1.46256   1.46643   1.48102   1.48531   1.49164
 Alpha virt. eigenvalues --    1.49595   1.49991   1.51140   1.52107   1.52642
 Alpha virt. eigenvalues --    1.53813   1.54162   1.54833   1.55819   1.56469
 Alpha virt. eigenvalues --    1.56981   1.57528   1.58118   1.58821   1.59618
 Alpha virt. eigenvalues --    1.59951   1.60841   1.62204   1.62857   1.63636
 Alpha virt. eigenvalues --    1.64486   1.64615   1.65558   1.65893   1.66376
 Alpha virt. eigenvalues --    1.67078   1.67202   1.67992   1.68124   1.69069
 Alpha virt. eigenvalues --    1.69763   1.70392   1.70715   1.70773   1.71544
 Alpha virt. eigenvalues --    1.71663   1.72337   1.73127   1.73631   1.73979
 Alpha virt. eigenvalues --    1.74512   1.74763   1.75522   1.76888   1.77620
 Alpha virt. eigenvalues --    1.78165   1.78335   1.78777   1.79048   1.80091
 Alpha virt. eigenvalues --    1.80688   1.81062   1.81622   1.82417   1.83571
 Alpha virt. eigenvalues --    1.83928   1.84243   1.84517   1.85084   1.85417
 Alpha virt. eigenvalues --    1.85531   1.86581   1.87159   1.87717   1.88247
 Alpha virt. eigenvalues --    1.88595   1.89187   1.89805   1.90431   1.90966
 Alpha virt. eigenvalues --    1.91385   1.91743   1.92318   1.92601   1.93099
 Alpha virt. eigenvalues --    1.93680   1.94475   1.94620   1.95529   1.96138
 Alpha virt. eigenvalues --    1.96656   1.97526   1.98017   1.98548   1.99059
 Alpha virt. eigenvalues --    1.99277   1.99923   2.01833   2.02526   2.03215
 Alpha virt. eigenvalues --    2.03819   2.04821   2.05328   2.05527   2.06162
 Alpha virt. eigenvalues --    2.07038   2.07474   2.08023   2.08817   2.10040
 Alpha virt. eigenvalues --    2.10372   2.11002   2.12199   2.13003   2.14037
 Alpha virt. eigenvalues --    2.15198   2.15849   2.16299   2.16928   2.17245
 Alpha virt. eigenvalues --    2.17781   2.18243   2.19424   2.20248   2.21274
 Alpha virt. eigenvalues --    2.22202   2.23082   2.24665   2.25377   2.25816
 Alpha virt. eigenvalues --    2.26029   2.27060   2.27658   2.28005   2.28505
 Alpha virt. eigenvalues --    2.29418   2.30029   2.30822   2.31603   2.32465
 Alpha virt. eigenvalues --    2.32973   2.34072   2.34357   2.35524   2.36517
 Alpha virt. eigenvalues --    2.36976   2.38340   2.38429   2.39540   2.41053
 Alpha virt. eigenvalues --    2.42229   2.42594   2.43536   2.43642   2.44040
 Alpha virt. eigenvalues --    2.44845   2.45516   2.46844   2.48095   2.48909
 Alpha virt. eigenvalues --    2.49509   2.49577   2.50968   2.51298   2.51720
 Alpha virt. eigenvalues --    2.52747   2.52993   2.54641   2.54844   2.55466
 Alpha virt. eigenvalues --    2.56731   2.57520   2.57816   2.59067   2.59470
 Alpha virt. eigenvalues --    2.60047   2.60415   2.62311   2.62737   2.63974
 Alpha virt. eigenvalues --    2.65276   2.65490   2.66131   2.67299   2.67974
 Alpha virt. eigenvalues --    2.69787   2.70447   2.71912   2.75333   2.75826
 Alpha virt. eigenvalues --    2.76938   2.77968   2.79529   2.80417   2.85435
 Alpha virt. eigenvalues --    2.87342   2.88405   2.89669   2.90495   2.90813
 Alpha virt. eigenvalues --    2.92280   2.93041   2.93383   2.94794   2.94950
 Alpha virt. eigenvalues --    2.96097   2.96457   2.98358   3.03942   3.05325
 Alpha virt. eigenvalues --    3.06054   3.12534   3.17430   3.35561   3.68496
 Alpha virt. eigenvalues --    3.74407   3.75333   3.78470   3.80201   3.83200
 Alpha virt. eigenvalues --    3.89173   3.89701   3.96877   3.98008   3.98893
 Alpha virt. eigenvalues --    4.00476   4.01243   4.03329   4.06244   4.06888
 Alpha virt. eigenvalues --    4.08002   4.08321   4.09827   4.13351   4.15097
 Alpha virt. eigenvalues --    4.17054   4.20343   4.20729   4.23725   4.24657
 Alpha virt. eigenvalues --    4.25841   4.31897   4.35610   4.36830   4.38240
 Alpha virt. eigenvalues --    4.39744   4.40356   4.45311   4.49955   4.50746
 Alpha virt. eigenvalues --    4.51109   4.60263   4.63172   4.65958   4.69333
 Alpha virt. eigenvalues --    4.73215
          Condensed to atoms (all electrons):
 Mulliken charges:
               1
     1  N   -0.759770
     2  C   -0.057862
     3  C    0.592760
     4  O   -0.490112
     5  C   -0.306945
     6  C   -0.371348
     7  C    0.596477
     8  O   -0.527898
     9  O   -0.515319
    10  H    0.427449
    11  H    0.175868
    12  H    0.130091
    13  H    0.165348
    14  H    0.237368
    15  H    0.198554
    16  H    0.349745
    17  H    0.296122
    18  N   -0.577977
    19  C   -0.083824
    20  C    0.606196
    21  O   -0.481376
    22  C   -0.357098
    23  C    0.036900
    24  C    0.041312
    25  C    0.048251
    26  C    0.322076
    27  C   -0.229879
    28  N   -0.672444
    29  C   -0.164232
    30  C   -0.155894
    31  C   -0.159724
    32  H    0.355962
    33  H    0.129584
    34  H    0.155595
    35  H    0.181337
    36  H    0.179751
    37  H    0.343327
    38  H    0.127973
    39  H    0.144193
    40  H    0.128424
    41  H    0.142221
    42  N   -0.603423
    43  C   -0.085650
    44  C    0.618975
    45  O   -0.492788
    46  C    0.128547
    47  C   -0.479045
    48  O   -0.661512
    49  H    0.429526
    50  H    0.362891
    51  H    0.165989
    52  H    0.166478
    53  H    0.162612
    54  H    0.188983
    55  H    0.182882
    56  N   -0.643254
    57  C   -0.056904
    58  C    0.638795
    59  O   -0.493242
    60  C   -0.344608
    61  C   -0.305279
    62  C   -0.178410
    63  N   -0.622076
    64  C    0.774523
    65  N   -0.788703
    66  N   -0.778720
    67  O   -0.569311
    68  H    0.467510
    69  H    0.347866
    70  H    0.159155
    71  H    0.206128
    72  H    0.164824
    73  H    0.180456
    74  H    0.188827
    75  H    0.194193
    76  H    0.203938
    77  H    0.393875
    78  H    0.370753
    79  H    0.432281
    80  H    0.404610
    81  H    0.367124
 Sum of Mulliken charges =   1.00000
 Mulliken charges with hydrogens summed into heavy atoms:
               1
     1  N   -0.113902
     2  C    0.118006
     3  C    0.592760
     4  O   -0.490112
     5  C   -0.011505
     6  C    0.064574
     7  C    0.596477
     8  O   -0.527898
     9  O   -0.087870
    18  N   -0.222015
    19  C    0.045760
    20  C    0.606196
    21  O   -0.481376
    22  C   -0.020166
    23  C    0.036900
    24  C    0.221064
    25  C    0.048251
    26  C    0.322076
    27  C   -0.101906
    28  N   -0.329117
    29  C   -0.020038
    30  C   -0.027470
    31  C   -0.017503
    42  N   -0.240532
    43  C    0.080338
    44  C    0.618975
    45  O   -0.492788
    46  C    0.295025
    47  C    0.055432
    48  O   -0.231986
    56  N   -0.295388
    57  C    0.102251
    58  C    0.638795
    59  O   -0.493242
    60  C    0.026344
    61  C    0.064004
    62  C    0.219721
    63  N   -0.228201
    64  C    0.774523
    65  N    0.014331
    66  N   -0.006986
    67  O   -0.101800
 Electronic spatial extent (au):  <R**2>=        1387722.2784
 Charge=              1.0000 electrons
 Dipole moment (field-independent basis, Debye):
    X=             41.1550    Y=            139.6070    Z=             57.3798  Tot=            156.4490
 Quadrupole moment (field-independent basis, Debye-Ang):
   XX=            123.4506   YY=           3873.2183   ZZ=            458.2835
   XY=           1184.8067   XZ=            515.0939   YZ=           1709.3239
 Traceless Quadrupole moment (field-independent basis, Debye-Ang):
   XX=          -1361.5335   YY=           2388.2342   ZZ=          -1026.7006
   XY=           1184.8067   XZ=            515.0939   YZ=           1709.3239
 Octapole moment (field-independent basis, Debye-Ang**2):
  XXX=          -3753.0858  YYY=         100342.4220  ZZZ=            130.3334  XYY=          32137.8311
  XXY=           2804.6071  XXZ=           2011.3494  XZZ=           4198.5653  YZZ=          13612.2167
  YYZ=          48767.9151  XYZ=          15250.8256
 Hexadecapole moment (field-independent basis, Debye-Ang**3):
 XXXX=        -115936.2280 YYYY=        2302111.2435 ZZZZ=         -99702.8622 XXXY=        -129094.9350
 XXXZ=         -34915.4790 YYYX=         794027.0140 YYYZ=        1311394.4919 ZZZX=           1265.4420
 ZZZY=          -3716.4729 XXYY=          34290.2050 XXZZ=           5895.2313 YYZZ=         375468.0586
 XXYZ=          53554.2747 YYXZ=         428649.0188 ZZXY=         123210.0745
 N-N= 5.768644784151D+03 E-N=-1.629194037023D+04  KE= 2.035183471508D+03
 Unable to Open any file for archive entry.
 1\1\GINC-LAC-317\SP\RB3LYP\6-31G(d)\C26H39N8O8(1+)\KENGMITH\27-May-202
 2\0\\# B3LYP/6-31G* empiricaldispersion=gd3 guess=read geom=check nosy
 mm integral(ultrafinegrid)\\Candidate Structure: Conf:291 Charge calc 
 in gas phase\\1,1\N,0,12.1751943163,30.4656626916,12.1311028569\C,0,12
 .3335781565,30.5081111699,10.6831808661\C,0,13.1302828309,31.718968500
 3,10.162361996\O,0,14.0594638608,31.5271257946,9.3892916042\C,0,11.059
 5479071,30.3592069211,9.784310961\C,0,11.3877375653,29.5863951379,8.50
 47517035\C,0,11.5326322569,28.1059271151,8.7702602575\O,0,11.041542317
 1,27.507085903,9.7275746452\O,0,12.2310402641,27.4787680978,7.82652024
 57\H,0,12.2884929717,26.5301965824,8.0536738364\H,0,12.9910375208,29.6
 67289162,10.4422144837\H,0,10.2826279596,29.8203484063,10.3334933127\H
 ,0,10.6405464286,31.3352464778,9.5156351069\H,0,12.3077816063,29.95912
 51916,8.0422657112\H,0,10.594258448,29.6914522883,7.7518753464\H,0,11.
 7139958138,31.2622686495,12.5534275322\H,0,11.7052191516,29.6139874051
 ,12.4230742872\N,0,12.7554974674,32.9974892356,10.5054814369\C,0,11.52
 04697473,33.4779611069,11.0973033684\C,0,10.7355479613,34.2881955296,1
 0.0465656323\O,0,11.3107392351,34.8122266814,9.1066961782\C,0,11.80470
 26123,34.3562977544,12.3542904249\C,0,12.2408499488,33.5183384985,13.5
 136391186\C,0,13.4942841969,33.0029940546,13.7447193579\C,0,11.3709170
 111,32.9352937861,14.5055006678\C,0,12.1676322778,32.0619028217,15.301
 5596291\C,0,10.004924508,33.0720291987,14.8115953643\N,0,13.4558993717
 ,32.1427341871,14.8204076673\C,0,11.629422668,31.3162293598,16.3567104
 192\C,0,9.4666590829,32.334116205,15.8595627544\C,0,10.2709638441,31.4
 590270305,16.6208470923\H,0,13.2259288374,33.6944666107,9.9329213789\H
 ,0,10.9305651675,32.6191500455,11.4109722141\H,0,10.8985954516,34.9169
 878452,12.6130750629\H,0,12.559140947,35.0993522167,12.0739682598\H,0,
 14.4141547864,33.1684544568,13.202667415\H,0,14.242724245,31.613122016
 6,15.1633038604\H,0,9.3747376684,33.753738589,14.2485152208\H,0,12.252
 4173488,30.6582839331,16.9561338656\H,0,8.4128989951,32.438660932,16.1
 043043614\H,0,9.8256832481,30.8999188844,17.4385969538\N,0,9.382971617
 3,34.4619061357,10.2452247139\C,0,8.510537932,33.7412826419,11.1528024
 46\C,0,7.4903677966,32.9381033802,10.3290701643\O,0,7.0884727407,33.41
 84541134,9.2771256408\C,0,7.7682295481,34.7252906118,12.0965965024\C,0
 ,6.80012211,35.6824803743,11.4165792882\O,0,7.0950743091,33.8940270682
 ,13.0741711475\H,0,6.6866414013,34.4729568203,13.7386812185\H,0,8.9142
 362291,34.8960131024,9.4552571942\H,0,9.1112677324,33.1060582896,11.79
 08703813\H,0,8.5526766856,35.2964117931,12.610220643\H,0,6.3506007217,
 36.3490534263,12.1614019223\H,0,6.0040980104,35.1453661516,10.89514502
 63\H,0,7.3274812383,36.3103200952,10.6921761193\N,0,6.9295997795,31.76
 620847,10.7881145993\C,0,7.249546984,30.7134712735,11.7613091267\C,0,6
 .0959283909,30.5278452442,12.7571729461\O,0,5.6877485242,29.4102253502
 ,13.0434849979\C,0,8.5690897984,30.8578626864,12.5320881599\C,0,8.8866
 201713,29.7776377888,13.5837635632\C,0,8.6813665841,28.2854185191,13.2
 448798723\N,0,8.8708746072,27.8974156209,11.8348409782\C,0,7.960701999
 3,27.2317224069,11.1052472481\N,0,6.6614264638,27.2583423726,11.426251
 8867\N,0,8.3720003154,26.5274587004,10.0364107764\O,0,5.6021720646,31.
 6146161345,13.3201180832\H,0,6.0705990164,32.4308086859,13.0048818685\
 H,0,6.2125594097,31.478440676,10.1274719095\H,0,7.2963167532,29.787335
 3556,11.1880293545\H,0,8.5746768305,31.7994701122,13.0811268065\H,0,9.
 3758407386,30.8961907825,11.7983127049\H,0,9.9226773683,29.9543331491,
 13.888704112\H,0,8.2987642093,29.969561088,14.4874986425\H,0,9.3717673
 188,27.685357612,13.8478572522\H,0,7.6766454889,27.9832286625,13.53210
 89931\H,0,9.8101769207,27.9106005636,11.4426216486\H,0,6.0172441818,26
 .6282206475,10.9699800244\H,0,6.2693116373,27.96090684,12.0704623808\H
 ,0,9.3609899491,26.5289680688,9.7953234902\H,0,7.7128968183,26.2748066
 705,9.3139454495\\Version=ES64L-G16RevC.01\HF=-2054.0430664\RMSD=9.743
 e-10\Dipole=-2.3439368,-4.3519004,0.2500029\Quadrupole=-1012.2668089,1
 775.5935645,-763.3267557,880.8747262,382.9596594,1270.8404608\PG=C01 [
 X(C26H39N8O8)]\\@
 The archive entry for this job was punched.


 YOU KNOW YOU'RE A TEACHER WHEN YOU SAY 2, WRITE 3, AND MEAN 4.
 -- RONALD ANSTROM, HIGH SCHOOL TEACHER, UNDERWOOD, N.D. 1974
 Job cpu time:       0 days  0 hours  7 minutes 24.1 seconds.
 Elapsed time:       0 days  0 hours  1 minutes 52.2 seconds.
 File lengths (MBytes):  RWF=    376 Int=      0 D2E=      0 Chk=     56 Scr=     16
 Normal termination of Gaussian 16 at Fri May 27 05:13:56 2022.
