 Entering Gaussian System, Link 0=/opt/software/Gaussian/g16-AVX2-C.01/g16/g16
 Input=charge-conf-197.com
 Output=charge-conf-197.log
 Initial command:
 /opt/software/Gaussian/g16-AVX2-C.01/g16/l1.exe "/mnt/gs18/scratch/users/kengmith/Gau-17369.inp" -scrdir="/mnt/gs18/scratch/users/kengmith/"
 Entering Link 1 = /opt/software/Gaussian/g16-AVX2-C.01/g16/l1.exe PID=     17379.
  
 Copyright (c) 1988-2019, Gaussian, Inc.  All Rights Reserved.
  
 This is part of the Gaussian(R) 16 program.  It is based on
 the Gaussian(R) 09 system (copyright 2009, Gaussian, Inc.),
 the Gaussian(R) 03 system (copyright 2003, Gaussian, Inc.),
 the Gaussian(R) 98 system (copyright 1998, Gaussian, Inc.),
 the Gaussian(R) 94 system (copyright 1995, Gaussian, Inc.),
 the Gaussian 92(TM) system (copyright 1992, Gaussian, Inc.),
 the Gaussian 90(TM) system (copyright 1990, Gaussian, Inc.),
 the Gaussian 88(TM) system (copyright 1988, Gaussian, Inc.),
 the Gaussian 86(TM) system (copyright 1986, Carnegie Mellon
 University), and the Gaussian 82(TM) system (copyright 1983,
 Carnegie Mellon University). Gaussian is a federally registered
 trademark of Gaussian, Inc.
  
 This software contains proprietary and confidential information,
 including trade secrets, belonging to Gaussian, Inc.
  
 This software is provided under written license and may be
 used, copied, transmitted, or stored only in accord with that
 written license.
  
 The following legend is applicable only to US Government
 contracts under FAR:
  
                    RESTRICTED RIGHTS LEGEND
  
 Use, reproduction and disclosure by the US Government is
 subject to restrictions as set forth in subparagraphs (a)
 and (c) of the Commercial Computer Software - Restricted
 Rights clause in FAR 52.227-19.
  
 Gaussian, Inc.
 340 Quinnipiac St., Bldg. 40, Wallingford CT 06492
  
  
 ---------------------------------------------------------------
 Warning -- This program may not be used in any manner that
 competes with the business of Gaussian, Inc. or will provide
 assistance to any competitor of Gaussian, Inc.  The licensee
 of this program is prohibited from giving any competitor of
 Gaussian, Inc. access to this program.  By using this program,
 the user acknowledges that Gaussian, Inc. is engaged in the
 business of creating and licensing software in the field of
 computational chemistry and represents and warrants to the
 licensee that it is not a competitor of Gaussian, Inc. and that
 it will not use this program in any manner prohibited above.
 ---------------------------------------------------------------
  

 Cite this work as:
 Gaussian 16, Revision C.01,
 M. J. Frisch, G. W. Trucks, H. B. Schlegel, G. E. Scuseria, 
 M. A. Robb, J. R. Cheeseman, G. Scalmani, V. Barone, 
 G. A. Petersson, H. Nakatsuji, X. Li, M. Caricato, A. V. Marenich, 
 J. Bloino, B. G. Janesko, R. Gomperts, B. Mennucci, H. P. Hratchian, 
 J. V. Ortiz, A. F. Izmaylov, J. L. Sonnenberg, D. Williams-Young, 
 F. Ding, F. Lipparini, F. Egidi, J. Goings, B. Peng, A. Petrone, 
 T. Henderson, D. Ranasinghe, V. G. Zakrzewski, J. Gao, N. Rega, 
 G. Zheng, W. Liang, M. Hada, M. Ehara, K. Toyota, R. Fukuda, 
 J. Hasegawa, M. Ishida, T. Nakajima, Y. Honda, O. Kitao, H. Nakai, 
 T. Vreven, K. Throssell, J. A. Montgomery, Jr., J. E. Peralta, 
 F. Ogliaro, M. J. Bearpark, J. J. Heyd, E. N. Brothers, K. N. Kudin, 
 V. N. Staroverov, T. A. Keith, R. Kobayashi, J. Normand, 
 K. Raghavachari, A. P. Rendell, J. C. Burant, S. S. Iyengar, 
 J. Tomasi, M. Cossi, J. M. Millam, M. Klene, C. Adamo, R. Cammi, 
 J. W. Ochterski, R. L. Martin, K. Morokuma, O. Farkas, 
 J. B. Foresman, and D. J. Fox, Gaussian, Inc., Wallingford CT, 2019.
 
 ******************************************
 Gaussian 16:  ES64L-G16RevC.01  3-Jul-2019
                27-May-2022 
 ******************************************
 %mem=8gb
 %nproc=4
 Will use up to    4 processors via shared memory.
 %chk=conf-197.chk
 ----------------------------------------------------------------------
 # B3LYP/6-31G* empiricaldispersion=gd3 guess=read geom=check nosymm in
 tegral(ultrafinegrid)
 ----------------------------------------------------------------------
 1/29=2,38=1,172=1/1;
 2/12=2,15=1,40=1/2;
 3/5=1,6=6,7=1,11=2,14=-4,25=1,30=1,74=-5,75=-5,116=-2,124=31/1,2,3;
 4/5=1/1;
 5/5=2,38=6/2;
 6/7=2,8=2,9=2,10=2,28=1/1;
 99/5=1,9=1/99;
 ------------------------------------------------------
 Candidate Structure: Conf:197 Charge calc in gas phase
 ------------------------------------------------------
 Structure from the checkpoint file:  "conf-197.chk"
 Charge =  1 Multiplicity = 1
 Redundant internal coordinates found in file.  (old form).
 N,0,7.3343991758,30.9600844515,12.1099719994
 C,0,7.1977390628,32.2004473004,12.8623508761
 C,0,6.6869758944,33.3962764293,12.0368250753
 O,0,5.7438652913,34.0492673843,12.4634401343
 C,0,8.4143330169,32.6996945207,13.7131187717
 C,0,7.9340348882,33.3753541466,14.9996523556
 C,0,7.469450209,32.3627942867,16.0205595692
 O,0,7.815473713,31.181523621,16.0541566103
 O,0,6.6542436267,32.8870914001,16.9328639826
 H,0,6.3913053777,32.1867239886,17.5613962704
 H,0,6.3746326388,32.0226589475,13.5610892708
 H,0,9.0523903887,31.8515674514,13.9760932922
 H,0,9.036855754,33.4037460609,13.1499591572
 H,0,7.1199533884,34.0792193805,14.796880047
 H,0,8.7362523231,33.9540411709,15.4782504944
 H,0,7.9549042933,30.9894831925,11.3101725788
 H,0,7.6070376242,30.1922412129,12.716243546
 N,0,7.3282213181,33.7652544821,10.8768885413
 C,0,8.6331614405,33.3801983225,10.3716943705
 C,0,9.5827333493,34.5926119752,10.4416679326
 O,0,9.1417798897,35.7302976613,10.444666526
 C,0,8.536186325,32.8553276356,8.9061533823
 C,0,7.9188442368,31.4941960926,8.8571402513
 C,0,6.5814796374,31.1828343807,8.9246948549
 C,0,8.6329459963,30.2428073789,8.925252913
 C,0,7.6587609625,29.2095254762,9.0459120141
 C,0,9.9933806673,29.8881432035,8.8824900742
 N,0,6.4229503842,29.817753945,9.0241620952
 C,0,8.0130279285,27.8596182401,9.1519478913
 C,0,10.349453922,28.5484112073,8.9864345857
 C,0,9.3677574711,27.5439809147,9.1265520874
 H,0,7.0244300086,34.6804970355,10.5529279785
 H,0,9.0213079759,32.576657799,10.9942779319
 H,0,9.5403715731,32.8306887876,8.4664325207
 H,0,7.9636985495,33.590187946,8.3298383444
 H,0,5.7242234414,31.8403899909,8.9338786322
 H,0,5.5370313388,29.346068645,9.1232128633
 H,0,10.7614876629,30.6452123664,8.7569294525
 H,0,7.256837683,27.0844220918,9.2388937109
 H,0,11.3986237864,28.2671642853,8.949176674
 H,0,9.6739406164,26.5044235754,9.1983884608
 N,0,10.9392790023,34.3503528588,10.4240455486
 C,0,11.6277317959,33.094073249,10.6526618739
 C,0,12.4561530095,33.2092083139,11.9430076709
 O,0,12.9606936499,34.2916436745,12.2126246185
 C,0,12.5577124243,32.753645926,9.4572977326
 C,0,13.7158079166,33.7149260118,9.2325162744
 O,0,13.0267628126,31.4043399051,9.7008041171
 H,0,13.5450348608,31.1170205586,8.9311292467
 H,0,11.4971879063,35.1815546341,10.5975453504
 H,0,10.8984756248,32.2959561879,10.704958191
 H,0,11.9114918184,32.7397558155,8.5698681875
 H,0,14.2931488883,33.4036814035,8.3544875614
 H,0,14.380527793,33.7522013976,10.0990042903
 H,0,13.3430675,34.7248976363,9.0373089623
 N,0,12.7454412057,32.1194755981,12.7348895746
 C,0,12.2010702145,30.7783852529,12.9851974147
 C,0,13.2825140587,29.7080210616,12.780222241
 O,0,13.4409460892,28.8113419533,13.5978586922
 C,0,10.9393425089,30.3841014918,12.2049134093
 C,0,10.3899689955,28.9631282367,12.4354322905
 C,0,10.2756216988,28.4023590102,13.8690615908
 N,0,10.0118287717,29.3811624371,14.9400486576
 C,0,10.7602912746,29.5094313047,16.0478308931
 N,0,12.033732638,29.0977275939,16.0752643948
 N,0,10.2110903349,30.0608204786,17.1441275402
 O,0,13.9940232959,29.7718164596,11.6705076697
 H,0,13.7127717557,30.5359079969,11.1029930013
 H,0,13.387522725,32.4194732617,13.4636776177
 H,0,11.9590835171,30.7532489446,14.0479167068
 H,0,11.1337258812,30.4439999395,11.1340541011
 H,0,10.1642168693,31.1143750879,12.4430359507
 H,0,9.4128924483,28.9378197407,11.9431867757
 H,0,10.9977146674,28.2454264521,11.8743798095
 H,0,9.4723647155,27.6578134138,13.8968115922
 H,0,11.1929735279,27.8780900911,14.1275040538
 H,0,9.0986292217,29.8288563283,14.9836822345
 H,0,12.5291444913,29.0521580563,16.9542881528
 H,0,12.565263767,28.899281979,15.214842425
 H,0,9.2466393878,30.3839488442,17.1034186272
 H,0,10.8030380847,30.4394071585,17.8697119173
 Recover connectivity data from disk.
                           ----------------------------
                           !    Current Parameters    !
                           ! (Angstroms and Degrees)  !
 --------------------------                            --------------------------
 ! Name  Definition              Value                                          !
 --------------------------------------------------------------------------------
 ! R1    R(1,2)                  1.4571                                         !
 ! R2    R(1,16)                 1.0127                                         !
 ! R3    R(1,17)                 1.0156                                         !
 ! R4    R(2,3)                  1.5403                                         !
 ! R5    R(2,5)                  1.5663                                         !
 ! R6    R(2,11)                 1.0942                                         !
 ! R7    R(3,4)                  1.2239                                         !
 ! R8    R(3,18)                 1.3758                                         !
 ! R9    R(5,6)                  1.5305                                         !
 ! R10   R(5,12)                 1.0934                                         !
 ! R11   R(5,13)                 1.0956                                         !
 ! R12   R(6,7)                  1.5111                                         !
 ! R13   R(6,14)                 1.0951                                         !
 ! R14   R(6,15)                 1.0989                                         !
 ! R15   R(7,8)                  1.2314                                         !
 ! R16   R(7,9)                  1.3311                                         !
 ! R17   R(9,10)                 0.9771                                         !
 ! R18   R(18,19)                1.4513                                         !
 ! R19   R(18,32)                1.0173                                         !
 ! R20   R(19,20)                1.5416                                         !
 ! R21   R(19,22)                1.5597                                         !
 ! R22   R(19,33)                1.0881                                         !
 ! R23   R(20,21)                1.2202                                         !
 ! R24   R(20,42)                1.3781                                         !
 ! R25   R(22,23)                1.4954                                         !
 ! R26   R(22,34)                1.0965                                         !
 ! R27   R(22,35)                1.0954                                         !
 ! R28   R(23,24)                1.3748                                         !
 ! R29   R(23,25)                1.4424                                         !
 ! R30   R(24,28)                1.3778                                         !
 ! R31   R(24,36)                1.0804                                         !
 ! R32   R(25,26)                1.4252                                         !
 ! R33   R(25,27)                1.4066                                         !
 ! R34   R(26,28)                1.3775                                         !
 ! R35   R(26,29)                1.3996                                         !
 ! R36   R(27,30)                1.3901                                         !
 ! R37   R(27,38)                1.0858                                         !
 ! R38   R(28,37)                1.0085                                         !
 ! R39   R(29,31)                1.3912                                         !
 ! R40   R(29,39)                1.0864                                         !
 ! R41   R(30,31)                1.4115                                         !
 ! R42   R(30,40)                1.0869                                         !
 ! R43   R(31,41)                1.0861                                         !
 ! R44   R(42,43)                1.4507                                         !
 ! R45   R(42,50)                1.016                                          !
 ! R46   R(43,44)                1.5377                                         !
 ! R47   R(43,46)                1.5523                                         !
 ! R48   R(43,51)                1.0824                                         !
 ! R49   R(44,45)                1.2243                                         !
 ! R50   R(44,56)                1.3778                                         !
 ! R51   R(46,47)                1.5218                                         !
 ! R52   R(46,48)                1.4491                                         !
 ! R53   R(46,52)                1.0979                                         !
 ! R54   R(47,53)                1.096                                          !
 ! R55   R(47,54)                1.0927                                         !
 ! R56   R(47,55)                1.0941                                         !
 ! R57   R(48,49)                0.9714                                         !
 ! R58   R(56,57)                1.4688                                         !
 ! R59   R(56,69)                1.0166                                         !
 ! R60   R(57,58)                1.5353                                         !
 ! R61   R(57,60)                1.535                                          !
 ! R62   R(57,70)                1.0902                                         !
 ! R63   R(58,59)                1.2238                                         !
 ! R64   R(58,67)                1.3198                                         !
 ! R65   R(60,61)                1.5408                                         !
 ! R66   R(60,71)                1.09                                           !
 ! R67   R(60,72)                1.0912                                         !
 ! R68   R(61,62)                1.5436                                         !
 ! R69   R(61,73)                1.0944                                         !
 ! R70   R(61,74)                1.0951                                         !
 ! R71   R(62,63)                1.4747                                         !
 ! R72   R(62,75)                1.0956                                         !
 ! R73   R(62,76)                1.0877                                         !
 ! R74   R(63,64)                1.3431                                         !
 ! R75   R(63,77)                1.018                                          !
 ! R76   R(64,65)                1.3386                                         !
 ! R77   R(64,66)                1.3444                                         !
 ! R78   R(65,78)                1.01                                           !
 ! R79   R(65,79)                1.0306                                         !
 ! R80   R(66,80)                1.018                                          !
 ! R81   R(66,81)                1.0101                                         !
 ! R82   R(67,68)                0.9925                                         !
 ! A1    A(2,1,16)             116.1385                                         !
 ! A2    A(2,1,17)             111.1315                                         !
 ! A3    A(16,1,17)            109.2029                                         !
 ! A4    A(1,2,3)              114.5346                                         !
 ! A5    A(1,2,5)              118.617                                          !
 ! A6    A(1,2,11)             105.1863                                         !
 ! A7    A(3,2,5)              107.5318                                         !
 ! A8    A(3,2,11)             102.6474                                         !
 ! A9    A(5,2,11)             106.8114                                         !
 ! A10   A(2,3,4)              118.8781                                         !
 ! A11   A(2,3,18)             120.3671                                         !
 ! A12   A(4,3,18)             120.6615                                         !
 ! A13   A(2,5,6)              110.7054                                         !
 ! A14   A(2,5,12)             109.6735                                         !
 ! A15   A(2,5,13)             111.5292                                         !
 ! A16   A(6,5,12)             108.8678                                         !
 ! A17   A(6,5,13)             109.0688                                         !
 ! A18   A(12,5,13)            106.8881                                         !
 ! A19   A(5,6,7)              111.6285                                         !
 ! A20   A(5,6,14)             111.1854                                         !
 ! A21   A(5,6,15)             111.685                                          !
 ! A22   A(7,6,14)             109.1009                                         !
 ! A23   A(7,6,15)             106.4443                                         !
 ! A24   A(14,6,15)            106.5508                                         !
 ! A25   A(6,7,8)              125.0902                                         !
 ! A26   A(6,7,9)              112.7937                                         !
 ! A27   A(8,7,9)              122.0912                                         !
 ! A28   A(7,9,10)             108.8666                                         !
 ! A29   A(3,18,19)            129.8965                                         !
 ! A30   A(3,18,32)            111.7519                                         !
 ! A31   A(19,18,32)           113.3501                                         !
 ! A32   A(18,19,20)           109.2309                                         !
 ! A33   A(18,19,22)           111.128                                          !
 ! A34   A(18,19,33)           108.5118                                         !
 ! A35   A(20,19,22)           110.2188                                         !
 ! A36   A(20,19,33)           109.5782                                         !
 ! A37   A(22,19,33)           108.1375                                         !
 ! A38   A(19,20,21)           120.7181                                         !
 ! A39   A(19,20,42)           117.8715                                         !
 ! A40   A(21,20,42)           121.3103                                         !
 ! A41   A(19,22,23)           111.2704                                         !
 ! A42   A(19,22,34)           109.1126                                         !
 ! A43   A(19,22,35)           107.5234                                         !
 ! A44   A(23,22,34)           110.1495                                         !
 ! A45   A(23,22,35)           112.1868                                         !
 ! A46   A(34,22,35)           106.4221                                         !
 ! A47   A(22,23,24)           127.3099                                         !
 ! A48   A(22,23,25)           125.7144                                         !
 ! A49   A(24,23,25)           106.4268                                         !
 ! A50   A(23,24,28)           109.8678                                         !
 ! A51   A(23,24,36)           129.3765                                         !
 ! A52   A(28,24,36)           120.7343                                         !
 ! A53   A(23,25,26)           107.1324                                         !
 ! A54   A(23,25,27)           134.12                                           !
 ! A55   A(26,25,27)           118.7431                                         !
 ! A56   A(25,26,28)           106.9632                                         !
 ! A57   A(25,26,29)           122.1838                                         !
 ! A58   A(28,26,29)           130.8518                                         !
 ! A59   A(25,27,30)           119.2407                                         !
 ! A60   A(25,27,38)           120.7926                                         !
 ! A61   A(30,27,38)           119.962                                          !
 ! A62   A(24,28,26)           109.5944                                         !
 ! A63   A(24,28,37)           124.8559                                         !
 ! A64   A(26,28,37)           125.4495                                         !
 ! A65   A(26,29,31)           117.6389                                         !
 ! A66   A(26,29,39)           121.2025                                         !
 ! A67   A(31,29,39)           121.1545                                         !
 ! A68   A(27,30,31)           121.0036                                         !
 ! A69   A(27,30,40)           119.6097                                         !
 ! A70   A(31,30,40)           119.3837                                         !
 ! A71   A(29,31,30)           121.173                                          !
 ! A72   A(29,31,41)           119.3709                                         !
 ! A73   A(30,31,41)           119.4474                                         !
 ! A74   A(20,42,43)           128.1236                                         !
 ! A75   A(20,42,50)           113.2364                                         !
 ! A76   A(43,42,50)           114.8958                                         !
 ! A77   A(42,43,44)           108.8488                                         !
 ! A78   A(42,43,46)           110.6633                                         !
 ! A79   A(42,43,51)           109.0523                                         !
 ! A80   A(44,43,46)           109.8676                                         !
 ! A81   A(44,43,51)           112.1879                                         !
 ! A82   A(46,43,51)           106.2089                                         !
 ! A83   A(43,44,45)           118.2299                                         !
 ! A84   A(43,44,56)           122.4248                                         !
 ! A85   A(45,44,56)           119.0899                                         !
 ! A86   A(43,46,47)           115.5399                                         !
 ! A87   A(43,46,48)           105.5879                                         !
 ! A88   A(43,46,52)           105.8185                                         !
 ! A89   A(47,46,48)           111.5106                                         !
 ! A90   A(47,46,52)           109.6662                                         !
 ! A91   A(48,46,52)           108.3349                                         !
 ! A92   A(46,47,53)           109.8673                                         !
 ! A93   A(46,47,54)           111.5529                                         !
 ! A94   A(46,47,55)           110.4995                                         !
 ! A95   A(53,47,54)           108.9362                                         !
 ! A96   A(53,47,55)           107.3783                                         !
 ! A97   A(54,47,55)           108.4954                                         !
 ! A98   A(46,48,49)           108.3589                                         !
 ! A99   A(44,56,57)           137.9249                                         !
 ! A100  A(44,56,69)           108.1348                                         !
 ! A101  A(57,56,69)           112.4178                                         !
 ! A102  A(56,57,58)           110.6538                                         !
 ! A103  A(56,57,60)           116.9058                                         !
 ! A104  A(56,57,70)           105.6301                                         !
 ! A105  A(58,57,60)           109.3924                                         !
 ! A106  A(58,57,70)           105.6887                                         !
 ! A107  A(60,57,70)           107.8868                                         !
 ! A108  A(57,58,59)           120.8508                                         !
 ! A109  A(57,58,67)           117.2774                                         !
 ! A110  A(59,58,67)           121.8303                                         !
 ! A111  A(57,60,61)           116.9943                                         !
 ! A112  A(57,60,71)           109.7975                                         !
 ! A113  A(57,60,72)           107.5199                                         !
 ! A114  A(61,60,71)           105.1438                                         !
 ! A115  A(61,60,72)           109.3449                                         !
 ! A116  A(71,60,72)           107.7146                                         !
 ! A117  A(60,61,62)           120.0251                                         !
 ! A118  A(60,61,73)           105.8053                                         !
 ! A119  A(60,61,74)           109.2616                                         !
 ! A120  A(62,61,73)           110.0724                                         !
 ! A121  A(62,61,74)           106.1913                                         !
 ! A122  A(73,61,74)           104.471                                          !
 ! A123  A(61,62,63)           116.5273                                         !
 ! A124  A(61,62,75)           108.9479                                         !
 ! A125  A(61,62,76)           109.4681                                         !
 ! A126  A(63,62,75)           107.5489                                         !
 ! A127  A(63,62,76)           107.3505                                         !
 ! A128  A(75,62,76)           106.5444                                         !
 ! A129  A(62,63,64)           124.2447                                         !
 ! A130  A(62,63,77)           118.9148                                         !
 ! A131  A(64,63,77)           114.9967                                         !
 ! A132  A(63,64,65)           121.1764                                         !
 ! A133  A(63,64,66)           118.9536                                         !
 ! A134  A(65,64,66)           119.87                                           !
 ! A135  A(64,65,78)           119.8885                                         !
 ! A136  A(64,65,79)           122.1897                                         !
 ! A137  A(78,65,79)           117.7038                                         !
 ! A138  A(64,66,80)           118.9864                                         !
 ! A139  A(64,66,81)           120.0063                                         !
 ! A140  A(80,66,81)           117.7104                                         !
 ! A141  A(58,67,68)           111.4227                                         !
 ! D1    D(16,1,2,3)            58.5935                                         !
 ! D2    D(16,1,2,5)           -70.1809                                         !
 ! D3    D(16,1,2,11)          170.5122                                         !
 ! D4    D(17,1,2,3)          -175.7824                                         !
 ! D5    D(17,1,2,5)            55.4431                                         !
 ! D6    D(17,1,2,11)          -63.8638                                         !
 ! D7    D(1,2,3,4)            129.4252                                         !
 ! D8    D(1,2,3,18)           -54.0617                                         !
 ! D9    D(5,2,3,4)            -96.4413                                         !
 ! D10   D(5,2,3,18)            80.0719                                         !
 ! D11   D(11,2,3,4)            16.0003                                         !
 ! D12   D(11,2,3,18)         -167.4866                                         !
 ! D13   D(1,2,5,6)           -144.671                                          !
 ! D14   D(1,2,5,12)           -24.5197                                         !
 ! D15   D(1,2,5,13)            93.6898                                         !
 ! D16   D(3,2,5,6)             83.3829                                         !
 ! D17   D(3,2,5,12)          -156.4658                                         !
 ! D18   D(3,2,5,13)           -38.2563                                         !
 ! D19   D(11,2,5,6)           -26.2087                                         !
 ! D20   D(11,2,5,12)           93.9425                                         !
 ! D21   D(11,2,5,13)         -147.8479                                         !
 ! D22   D(2,3,18,19)          -14.1599                                         !
 ! D23   D(2,3,18,32)         -167.0068                                         !
 ! D24   D(4,3,18,19)          162.2905                                         !
 ! D25   D(4,3,18,32)            9.4436                                         !
 ! D26   D(2,5,6,7)             75.6345                                         !
 ! D27   D(2,5,6,14)           -46.4528                                         !
 ! D28   D(2,5,6,15)          -165.3279                                         !
 ! D29   D(12,5,6,7)           -44.9971                                         !
 ! D30   D(12,5,6,14)         -167.0844                                         !
 ! D31   D(12,5,6,15)           74.0405                                         !
 ! D32   D(13,5,6,7)          -161.2897                                         !
 ! D33   D(13,5,6,14)           76.623                                          !
 ! D34   D(13,5,6,15)          -42.2521                                         !
 ! D35   D(5,6,7,8)             22.9078                                         !
 ! D36   D(5,6,7,9)           -158.8814                                         !
 ! D37   D(14,6,7,8)           146.1869                                         !
 ! D38   D(14,6,7,9)           -35.6023                                         !
 ! D39   D(15,6,7,8)           -99.1973                                         !
 ! D40   D(15,6,7,9)            79.0135                                         !
 ! D41   D(6,7,9,10)          -179.9248                                         !
 ! D42   D(8,7,9,10)            -1.6528                                         !
 ! D43   D(3,18,19,20)        -110.0617                                         !
 ! D44   D(3,18,19,22)         128.1209                                         !
 ! D45   D(3,18,19,33)           9.3487                                         !
 ! D46   D(32,18,19,20)         42.4422                                         !
 ! D47   D(32,18,19,22)        -79.3751                                         !
 ! D48   D(32,18,19,33)        161.8527                                         !
 ! D49   D(18,19,20,21)        -24.0202                                         !
 ! D50   D(18,19,20,42)        159.5698                                         !
 ! D51   D(22,19,20,21)         98.3443                                         !
 ! D52   D(22,19,20,42)        -78.0657                                         !
 ! D53   D(33,19,20,21)       -142.7687                                         !
 ! D54   D(33,19,20,42)         40.8213                                         !
 ! D55   D(18,19,22,23)        -73.3506                                         !
 ! D56   D(18,19,22,34)        164.906                                          !
 ! D57   D(18,19,22,35)         49.8704                                         !
 ! D58   D(20,19,22,23)        165.4094                                         !
 ! D59   D(20,19,22,34)         43.666                                          !
 ! D60   D(20,19,22,35)        -71.3695                                         !
 ! D61   D(33,19,22,23)         45.6464                                         !
 ! D62   D(33,19,22,34)        -76.0971                                         !
 ! D63   D(33,19,22,35)        168.8674                                         !
 ! D64   D(19,20,42,43)        -15.4761                                         !
 ! D65   D(19,20,42,50)       -172.3001                                         !
 ! D66   D(21,20,42,43)        168.1363                                         !
 ! D67   D(21,20,42,50)         11.3123                                         !
 ! D68   D(19,22,23,24)         79.9488                                         !
 ! D69   D(19,22,23,25)        -90.3813                                         !
 ! D70   D(34,22,23,24)       -158.9128                                         !
 ! D71   D(34,22,23,25)         30.7572                                         !
 ! D72   D(35,22,23,24)        -40.5622                                         !
 ! D73   D(35,22,23,25)        149.1078                                         !
 ! D74   D(22,23,24,28)       -172.0966                                         !
 ! D75   D(22,23,24,36)          6.1996                                         !
 ! D76   D(25,23,24,28)         -0.271                                          !
 ! D77   D(25,23,24,36)        178.0252                                         !
 ! D78   D(22,23,25,26)        171.4827                                         !
 ! D79   D(22,23,25,27)         -9.3292                                         !
 ! D80   D(24,23,25,26)         -0.5108                                         !
 ! D81   D(24,23,25,27)        178.6773                                         !
 ! D82   D(23,24,28,26)          0.9895                                         !
 ! D83   D(23,24,28,37)        177.5127                                         !
 ! D84   D(36,24,28,26)       -177.4783                                         !
 ! D85   D(36,24,28,37)         -0.9552                                         !
 ! D86   D(23,25,26,28)          1.0939                                         !
 ! D87   D(23,25,26,29)       -179.2569                                         !
 ! D88   D(27,25,26,28)       -178.2413                                         !
 ! D89   D(27,25,26,29)          1.4079                                         !
 ! D90   D(23,25,27,30)        179.5708                                         !
 ! D91   D(23,25,27,38)         -1.2244                                         !
 ! D92   D(26,25,27,30)         -1.3142                                         !
 ! D93   D(26,25,27,38)        177.8906                                         !
 ! D94   D(25,26,28,24)         -1.2833                                         !
 ! D95   D(25,26,28,37)       -177.781                                          !
 ! D96   D(29,26,28,24)        179.1092                                         !
 ! D97   D(29,26,28,37)          2.6116                                         !
 ! D98   D(25,26,29,31)         -0.4561                                         !
 ! D99   D(25,26,29,39)       -179.7311                                         !
 ! D100  D(28,26,29,31)        179.1002                                         !
 ! D101  D(28,26,29,39)         -0.1748                                         !
 ! D102  D(25,27,30,31)          0.3352                                         !
 ! D103  D(25,27,30,40)        179.699                                          !
 ! D104  D(38,27,30,31)       -178.8763                                         !
 ! D105  D(38,27,30,40)          0.4875                                         !
 ! D106  D(26,29,31,30)         -0.5704                                         !
 ! D107  D(26,29,31,41)       -179.4876                                         !
 ! D108  D(39,29,31,30)        178.705                                          !
 ! D109  D(39,29,31,41)         -0.2122                                         !
 ! D110  D(27,30,31,29)          0.6419                                         !
 ! D111  D(27,30,31,41)        179.5583                                         !
 ! D112  D(40,30,31,29)       -178.7232                                         !
 ! D113  D(40,30,31,41)          0.1931                                         !
 ! D114  D(20,42,43,44)       -114.3499                                         !
 ! D115  D(20,42,43,46)        124.8168                                         !
 ! D116  D(20,42,43,51)          8.3381                                         !
 ! D117  D(50,42,43,44)         42.1544                                         !
 ! D118  D(50,42,43,46)        -78.6789                                         !
 ! D119  D(50,42,43,51)        164.8424                                         !
 ! D120  D(42,43,44,45)        -34.3762                                         !
 ! D121  D(42,43,44,56)        151.4864                                         !
 ! D122  D(46,43,44,45)         86.9445                                         !
 ! D123  D(46,43,44,56)        -87.1929                                         !
 ! D124  D(51,43,44,45)       -155.1561                                         !
 ! D125  D(51,43,44,56)         30.7065                                         !
 ! D126  D(42,43,46,47)         64.6624                                         !
 ! D127  D(42,43,46,48)       -171.6128                                         !
 ! D128  D(42,43,46,52)        -56.8744                                         !
 ! D129  D(44,43,46,47)        -55.5639                                         !
 ! D130  D(44,43,46,48)         68.1609                                         !
 ! D131  D(44,43,46,52)       -177.1007                                         !
 ! D132  D(51,43,46,47)       -177.1118                                         !
 ! D133  D(51,43,46,48)        -53.387                                          !
 ! D134  D(51,43,46,52)         61.3514                                         !
 ! D135  D(43,44,56,57)        -22.3811                                         !
 ! D136  D(43,44,56,69)        173.5398                                         !
 ! D137  D(45,44,56,57)        163.5299                                         !
 ! D138  D(45,44,56,69)         -0.5492                                         !
 ! D139  D(43,46,47,53)       -178.4951                                         !
 ! D140  D(43,46,47,54)         60.5932                                         !
 ! D141  D(43,46,47,55)        -60.191                                          !
 ! D142  D(48,46,47,53)         60.945                                          !
 ! D143  D(48,46,47,54)        -59.9666                                         !
 ! D144  D(48,46,47,55)        179.2491                                         !
 ! D145  D(52,46,47,53)        -59.0496                                         !
 ! D146  D(52,46,47,54)       -179.9613                                         !
 ! D147  D(52,46,47,55)         59.2545                                         !
 ! D148  D(43,46,48,49)        174.5368                                         !
 ! D149  D(47,46,48,49)        -59.2307                                         !
 ! D150  D(52,46,48,49)         61.5459                                         !
 ! D151  D(44,56,57,58)        125.1231                                         !
 ! D152  D(44,56,57,60)         -0.9772                                         !
 ! D153  D(44,56,57,70)       -120.9519                                         !
 ! D154  D(69,56,57,58)        -71.2563                                         !
 ! D155  D(69,56,57,60)        162.6434                                         !
 ! D156  D(69,56,57,70)         42.6687                                         !
 ! D157  D(56,57,58,59)        133.5984                                         !
 ! D158  D(56,57,58,67)        -48.7026                                         !
 ! D159  D(60,57,58,59)        -96.2073                                         !
 ! D160  D(60,57,58,67)         81.4917                                         !
 ! D161  D(70,57,58,59)         19.7105                                         !
 ! D162  D(70,57,58,67)       -162.5906                                         !
 ! D163  D(56,57,60,61)        178.2839                                         !
 ! D164  D(56,57,60,71)         58.616                                          !
 ! D165  D(56,57,60,72)        -58.3047                                         !
 ! D166  D(58,57,60,61)         51.5603                                         !
 ! D167  D(58,57,60,71)        -68.1076                                         !
 ! D168  D(58,57,60,72)        174.9718                                         !
 ! D169  D(70,57,60,61)        -62.9489                                         !
 ! D170  D(70,57,60,71)        177.3831                                         !
 ! D171  D(70,57,60,72)         60.4625                                         !
 ! D172  D(57,58,67,68)         -0.1226                                         !
 ! D173  D(59,58,67,68)        177.5523                                         !
 ! D174  D(57,60,61,62)         45.0521                                         !
 ! D175  D(57,60,61,73)        170.1919                                         !
 ! D176  D(57,60,61,74)        -77.844                                          !
 ! D177  D(71,60,61,62)        167.1691                                         !
 ! D178  D(71,60,61,73)        -67.6911                                         !
 ! D179  D(71,60,61,74)         44.273                                          !
 ! D180  D(72,60,61,62)        -77.4205                                         !
 ! D181  D(72,60,61,73)         47.7193                                         !
 ! D182  D(72,60,61,74)        159.6834                                         !
 ! D183  D(60,61,62,63)         31.121                                          !
 ! D184  D(60,61,62,75)        152.9697                                         !
 ! D185  D(60,61,62,76)        -90.8827                                         !
 ! D186  D(73,61,62,63)        -91.9793                                         !
 ! D187  D(73,61,62,75)         29.8694                                         !
 ! D188  D(73,61,62,76)        146.0171                                         !
 ! D189  D(74,61,62,63)        155.4926                                         !
 ! D190  D(74,61,62,75)        -82.6587                                         !
 ! D191  D(74,61,62,76)         33.489                                          !
 ! D192  D(61,62,63,64)       -126.3833                                         !
 ! D193  D(61,62,63,77)         69.8764                                         !
 ! D194  D(75,62,63,64)        111.0359                                         !
 ! D195  D(75,62,63,77)        -52.7044                                         !
 ! D196  D(76,62,63,64)         -3.2757                                         !
 ! D197  D(76,62,63,77)       -167.0159                                         !
 ! D198  D(62,63,64,65)         23.0609                                         !
 ! D199  D(62,63,64,66)       -156.851                                          !
 ! D200  D(77,63,64,65)       -172.6282                                         !
 ! D201  D(77,63,64,66)          7.4598                                         !
 ! D202  D(63,64,65,78)       -169.2995                                         !
 ! D203  D(63,64,65,79)         16.1904                                         !
 ! D204  D(66,64,65,78)         10.6117                                         !
 ! D205  D(66,64,65,79)       -163.8984                                         !
 ! D206  D(63,64,66,80)         -1.1368                                         !
 ! D207  D(63,64,66,81)       -160.1726                                         !
 ! D208  D(65,64,66,80)        178.95                                           !
 ! D209  D(65,64,66,81)         19.9143                                         !
 --------------------------------------------------------------------------------
 Symmetry turned off by external request.
 Stoichiometry    C26H39N8O8(1+)
 Framework group  C1[X(C26H39N8O8)]
 Deg. of freedom   237
 Full point group                 C1      NOp   1
                          Input orientation:                          
 ---------------------------------------------------------------------
 Center     Atomic      Atomic             Coordinates (Angstroms)
 Number     Number       Type             X           Y           Z
 ---------------------------------------------------------------------
      1          7           0        7.334399   30.960084   12.109972
      2          6           0        7.197739   32.200447   12.862351
      3          6           0        6.686976   33.396276   12.036825
      4          8           0        5.743865   34.049267   12.463440
      5          6           0        8.414333   32.699695   13.713119
      6          6           0        7.934035   33.375354   14.999652
      7          6           0        7.469450   32.362794   16.020560
      8          8           0        7.815474   31.181524   16.054157
      9          8           0        6.654244   32.887091   16.932864
     10          1           0        6.391305   32.186724   17.561396
     11          1           0        6.374633   32.022659   13.561089
     12          1           0        9.052390   31.851567   13.976093
     13          1           0        9.036856   33.403746   13.149959
     14          1           0        7.119953   34.079219   14.796880
     15          1           0        8.736252   33.954041   15.478250
     16          1           0        7.954904   30.989483   11.310173
     17          1           0        7.607038   30.192241   12.716244
     18          7           0        7.328221   33.765254   10.876889
     19          6           0        8.633161   33.380198   10.371694
     20          6           0        9.582733   34.592612   10.441668
     21          8           0        9.141780   35.730298   10.444667
     22          6           0        8.536186   32.855328    8.906153
     23          6           0        7.918844   31.494196    8.857140
     24          6           0        6.581480   31.182834    8.924695
     25          6           0        8.632946   30.242807    8.925253
     26          6           0        7.658761   29.209525    9.045912
     27          6           0        9.993381   29.888143    8.882490
     28          7           0        6.422950   29.817754    9.024162
     29          6           0        8.013028   27.859618    9.151948
     30          6           0       10.349454   28.548411    8.986435
     31          6           0        9.367757   27.543981    9.126552
     32          1           0        7.024430   34.680497   10.552928
     33          1           0        9.021308   32.576658   10.994278
     34          1           0        9.540372   32.830689    8.466433
     35          1           0        7.963699   33.590188    8.329838
     36          1           0        5.724223   31.840390    8.933879
     37          1           0        5.537031   29.346069    9.123213
     38          1           0       10.761488   30.645212    8.756929
     39          1           0        7.256838   27.084422    9.238894
     40          1           0       11.398624   28.267164    8.949177
     41          1           0        9.673941   26.504424    9.198388
     42          7           0       10.939279   34.350353   10.424046
     43          6           0       11.627732   33.094073   10.652662
     44          6           0       12.456153   33.209208   11.943008
     45          8           0       12.960694   34.291644   12.212625
     46          6           0       12.557712   32.753646    9.457298
     47          6           0       13.715808   33.714926    9.232516
     48          8           0       13.026763   31.404340    9.700804
     49          1           0       13.545035   31.117021    8.931129
     50          1           0       11.497188   35.181555   10.597545
     51          1           0       10.898476   32.295956   10.704958
     52          1           0       11.911492   32.739756    8.569868
     53          1           0       14.293149   33.403681    8.354488
     54          1           0       14.380528   33.752201   10.099004
     55          1           0       13.343067   34.724898    9.037309
     56          7           0       12.745441   32.119476   12.734890
     57          6           0       12.201070   30.778385   12.985197
     58          6           0       13.282514   29.708021   12.780222
     59          8           0       13.440946   28.811342   13.597859
     60          6           0       10.939343   30.384101   12.204913
     61          6           0       10.389969   28.963128   12.435432
     62          6           0       10.275622   28.402359   13.869062
     63          7           0       10.011829   29.381162   14.940049
     64          6           0       10.760291   29.509431   16.047831
     65          7           0       12.033733   29.097728   16.075264
     66          7           0       10.211090   30.060820   17.144128
     67          8           0       13.994023   29.771816   11.670508
     68          1           0       13.712772   30.535908   11.102993
     69          1           0       13.387523   32.419473   13.463678
     70          1           0       11.959084   30.753249   14.047917
     71          1           0       11.133726   30.444000   11.134054
     72          1           0       10.164217   31.114375   12.443036
     73          1           0        9.412892   28.937820   11.943187
     74          1           0       10.997715   28.245426   11.874380
     75          1           0        9.472365   27.657813   13.896812
     76          1           0       11.192974   27.878090   14.127504
     77          1           0        9.098629   29.828856   14.983682
     78          1           0       12.529144   29.052158   16.954288
     79          1           0       12.565264   28.899282   15.214842
     80          1           0        9.246639   30.383949   17.103419
     81          1           0       10.803038   30.439407   17.869712
 ---------------------------------------------------------------------
 Rotational constants (GHZ):           0.0847394           0.0796746           0.0676182
 Standard basis: 6-31G(d) (6D, 7F)
   708 basis functions,  1332 primitive gaussians,   708 cartesian basis functions
   157 alpha electrons      157 beta electrons
       nuclear repulsion energy      5767.9128564864 Hartrees.
 NAtoms=   81 NActive=   81 NUniq=   81 SFac= 1.00D+00 NAtFMM=   60 NAOKFM=T Big=T
 Integral buffers will be    131072 words long.
 Raffenetti 2 integral format.
 Two-electron integral symmetry is turned off.
 Nuclear repulsion after empirical dispersion term =     5767.7791676425 Hartrees.
 One-electron integrals computed using PRISM.
 NBasis=   708 RedAO= T EigKep=  3.49D-04  NBF=   708
 NBsUse=   708 1.00D-06 EigRej= -1.00D+00 NBFU=   708
 Initial guess from the checkpoint file:  "conf-197.chk"
 B after Tr=     0.000000    0.000000    0.000000
         Rot=    1.000000    0.000000    0.000000    0.000000 Ang=   0.00 deg.
 Requested convergence on RMS density matrix=1.00D-08 within 128 cycles.
 Requested convergence on MAX density matrix=1.00D-06.
 Requested convergence on             energy=1.00D-06.
 No special actions if energy rises.
 SCF Done:  E(RB3LYP) =  -2054.04308287     A.U. after    3 cycles
            NFock=  3  Conv=0.76D-09     -V/T= 2.0093

 **********************************************************************

            Population analysis using the SCF Density.

 **********************************************************************

 Alpha  occ. eigenvalues --  -19.32325 -19.30143 -19.29206 -19.27739 -19.25939
 Alpha  occ. eigenvalues --  -19.22974 -19.20938 -19.19269 -14.51598 -14.51184
 Alpha  occ. eigenvalues --  -14.50721 -14.48356 -14.46384 -14.45791 -14.43981
 Alpha  occ. eigenvalues --  -14.41487 -10.47902 -10.45493 -10.43919 -10.40737
 Alpha  occ. eigenvalues --  -10.38377 -10.37083 -10.36913 -10.36512 -10.35694
 Alpha  occ. eigenvalues --  -10.35215 -10.33444 -10.32045 -10.31712 -10.31159
 Alpha  occ. eigenvalues --  -10.31146 -10.30597 -10.30293 -10.30114 -10.28878
 Alpha  occ. eigenvalues --  -10.27969 -10.27627 -10.27519 -10.27264 -10.27111
 Alpha  occ. eigenvalues --  -10.26979 -10.26680  -1.23687  -1.21764  -1.16281
 Alpha  occ. eigenvalues --   -1.15964  -1.15164  -1.14421  -1.13400  -1.13139
 Alpha  occ. eigenvalues --   -1.11332  -1.06418  -1.05538  -1.04232  -1.04106
 Alpha  occ. eigenvalues --   -1.02584  -1.00923  -0.98405  -0.92832  -0.92489
 Alpha  occ. eigenvalues --   -0.90766  -0.89469  -0.88853  -0.87360  -0.84673
 Alpha  occ. eigenvalues --   -0.82934  -0.82216  -0.81897  -0.81015  -0.80464
 Alpha  occ. eigenvalues --   -0.78369  -0.76070  -0.75434  -0.74620  -0.73630
 Alpha  occ. eigenvalues --   -0.73020  -0.72746  -0.70843  -0.70626  -0.70070
 Alpha  occ. eigenvalues --   -0.69225  -0.68784  -0.67726  -0.67320  -0.66014
 Alpha  occ. eigenvalues --   -0.65514  -0.64999  -0.64685  -0.63994  -0.63294
 Alpha  occ. eigenvalues --   -0.62425  -0.62231  -0.61457  -0.60646  -0.60133
 Alpha  occ. eigenvalues --   -0.59682  -0.59311  -0.58867  -0.58473  -0.58344
 Alpha  occ. eigenvalues --   -0.57634  -0.57371  -0.56821  -0.56526  -0.56093
 Alpha  occ. eigenvalues --   -0.55626  -0.55464  -0.55131  -0.54789  -0.54510
 Alpha  occ. eigenvalues --   -0.54105  -0.53286  -0.52996  -0.52443  -0.51965
 Alpha  occ. eigenvalues --   -0.51630  -0.51439  -0.51173  -0.50729  -0.50444
 Alpha  occ. eigenvalues --   -0.49896  -0.49741  -0.49455  -0.48849  -0.48780
 Alpha  occ. eigenvalues --   -0.48515  -0.48171  -0.47663  -0.47349  -0.46860
 Alpha  occ. eigenvalues --   -0.46727  -0.46589  -0.46249  -0.45609  -0.45114
 Alpha  occ. eigenvalues --   -0.45021  -0.44768  -0.44452  -0.43930  -0.42954
 Alpha  occ. eigenvalues --   -0.42366  -0.42166  -0.41826  -0.41368  -0.41109
 Alpha  occ. eigenvalues --   -0.40637  -0.40212  -0.37370  -0.36664  -0.36345
 Alpha  occ. eigenvalues --   -0.35214  -0.35036  -0.34214  -0.33328  -0.31784
 Alpha  occ. eigenvalues --   -0.30886  -0.28790
 Alpha virt. eigenvalues --   -0.12655  -0.12209  -0.11605  -0.09989  -0.09964
 Alpha virt. eigenvalues --   -0.07945  -0.07384  -0.06521  -0.06385  -0.05607
 Alpha virt. eigenvalues --   -0.04839  -0.04017  -0.03233  -0.02580  -0.02046
 Alpha virt. eigenvalues --   -0.01617  -0.00875  -0.00395   0.00067   0.00564
 Alpha virt. eigenvalues --    0.00831   0.00992   0.01733   0.01985   0.02600
 Alpha virt. eigenvalues --    0.02744   0.03392   0.03805   0.03834   0.04180
 Alpha virt. eigenvalues --    0.04885   0.05130   0.05378   0.05907   0.06111
 Alpha virt. eigenvalues --    0.06474   0.06984   0.07142   0.07417   0.07753
 Alpha virt. eigenvalues --    0.08134   0.08415   0.08723   0.09227   0.09356
 Alpha virt. eigenvalues --    0.09800   0.10044   0.10383   0.10439   0.10802
 Alpha virt. eigenvalues --    0.11456   0.11512   0.12175   0.12560   0.12758
 Alpha virt. eigenvalues --    0.13139   0.13266   0.13481   0.13631   0.13880
 Alpha virt. eigenvalues --    0.14453   0.15014   0.15862   0.16172   0.16349
 Alpha virt. eigenvalues --    0.17422   0.18325   0.18677   0.19097   0.19470
 Alpha virt. eigenvalues --    0.20119   0.20911   0.21753   0.22421   0.23409
 Alpha virt. eigenvalues --    0.23876   0.24930   0.25512   0.25869   0.26296
 Alpha virt. eigenvalues --    0.27262   0.27619   0.27855   0.28954   0.30271
 Alpha virt. eigenvalues --    0.31276   0.31697   0.31959   0.33256   0.35665
 Alpha virt. eigenvalues --    0.36059   0.37293   0.38149   0.38990   0.39766
 Alpha virt. eigenvalues --    0.40656   0.40979   0.41679   0.42044   0.42414
 Alpha virt. eigenvalues --    0.43188   0.43531   0.43665   0.43853   0.44285
 Alpha virt. eigenvalues --    0.44704   0.45225   0.45324   0.45635   0.45746
 Alpha virt. eigenvalues --    0.46720   0.47022   0.47123   0.47506   0.47892
 Alpha virt. eigenvalues --    0.48764   0.48801   0.49077   0.49370   0.49583
 Alpha virt. eigenvalues --    0.50111   0.50429   0.50835   0.50858   0.51426
 Alpha virt. eigenvalues --    0.51749   0.52179   0.52561   0.52949   0.53332
 Alpha virt. eigenvalues --    0.53454   0.53815   0.54239   0.54435   0.55093
 Alpha virt. eigenvalues --    0.55394   0.55740   0.56390   0.57097   0.57434
 Alpha virt. eigenvalues --    0.57917   0.58577   0.59073   0.59190   0.59627
 Alpha virt. eigenvalues --    0.59893   0.60815   0.61175   0.61387   0.61889
 Alpha virt. eigenvalues --    0.62990   0.63356   0.64001   0.64323   0.64991
 Alpha virt. eigenvalues --    0.65493   0.66171   0.66738   0.67188   0.67711
 Alpha virt. eigenvalues --    0.68396   0.69129   0.69297   0.69996   0.70628
 Alpha virt. eigenvalues --    0.70966   0.71393   0.71952   0.72244   0.72777
 Alpha virt. eigenvalues --    0.72883   0.73602   0.73769   0.74093   0.74214
 Alpha virt. eigenvalues --    0.74713   0.75094   0.75179   0.75682   0.75731
 Alpha virt. eigenvalues --    0.76107   0.76562   0.76590   0.77111   0.77625
 Alpha virt. eigenvalues --    0.78075   0.78309   0.78720   0.78876   0.79485
 Alpha virt. eigenvalues --    0.79717   0.80209   0.80276   0.80814   0.80888
 Alpha virt. eigenvalues --    0.81469   0.81728   0.82346   0.83033   0.83258
 Alpha virt. eigenvalues --    0.83642   0.84019   0.84331   0.84788   0.85164
 Alpha virt. eigenvalues --    0.85654   0.86021   0.86392   0.86486   0.87690
 Alpha virt. eigenvalues --    0.88168   0.88358   0.89460   0.90140   0.90505
 Alpha virt. eigenvalues --    0.91073   0.91206   0.92126   0.92750   0.93237
 Alpha virt. eigenvalues --    0.94056   0.94372   0.95096   0.96007   0.96443
 Alpha virt. eigenvalues --    0.96551   0.97730   0.98156   0.98704   0.98924
 Alpha virt. eigenvalues --    1.00245   1.00483   1.00832   1.01632   1.02284
 Alpha virt. eigenvalues --    1.02451   1.03023   1.03397   1.04132   1.04465
 Alpha virt. eigenvalues --    1.05537   1.05771   1.06176   1.06458   1.06571
 Alpha virt. eigenvalues --    1.07162   1.08033   1.08921   1.09027   1.09459
 Alpha virt. eigenvalues --    1.10120   1.10935   1.11410   1.12165   1.13059
 Alpha virt. eigenvalues --    1.13566   1.14347   1.15716   1.16517   1.17370
 Alpha virt. eigenvalues --    1.18111   1.18655   1.19433   1.19716   1.20483
 Alpha virt. eigenvalues --    1.21318   1.21825   1.22592   1.24662   1.25167
 Alpha virt. eigenvalues --    1.25999   1.26299   1.27141   1.27565   1.28322
 Alpha virt. eigenvalues --    1.29515   1.29875   1.30189   1.30520   1.31291
 Alpha virt. eigenvalues --    1.31350   1.32736   1.33270   1.33799   1.34190
 Alpha virt. eigenvalues --    1.34966   1.35754   1.37204   1.37980   1.38576
 Alpha virt. eigenvalues --    1.39605   1.40378   1.41202   1.41548   1.41852
 Alpha virt. eigenvalues --    1.41966   1.42782   1.43623   1.44637   1.45490
 Alpha virt. eigenvalues --    1.46251   1.46630   1.48087   1.48526   1.49136
 Alpha virt. eigenvalues --    1.49592   1.50000   1.51150   1.52100   1.52636
 Alpha virt. eigenvalues --    1.53817   1.54151   1.54825   1.55814   1.56470
 Alpha virt. eigenvalues --    1.56966   1.57513   1.58108   1.58832   1.59625
 Alpha virt. eigenvalues --    1.59944   1.60833   1.62205   1.62858   1.63642
 Alpha virt. eigenvalues --    1.64482   1.64619   1.65550   1.65906   1.66369
 Alpha virt. eigenvalues --    1.67084   1.67197   1.67998   1.68128   1.69059
 Alpha virt. eigenvalues --    1.69756   1.70390   1.70714   1.70756   1.71549
 Alpha virt. eigenvalues --    1.71663   1.72337   1.73136   1.73620   1.73958
 Alpha virt. eigenvalues --    1.74502   1.74756   1.75516   1.76884   1.77602
 Alpha virt. eigenvalues --    1.78167   1.78337   1.78754   1.79040   1.80094
 Alpha virt. eigenvalues --    1.80681   1.81065   1.81631   1.82414   1.83571
 Alpha virt. eigenvalues --    1.83938   1.84231   1.84513   1.85073   1.85412
 Alpha virt. eigenvalues --    1.85541   1.86576   1.87165   1.87721   1.88240
 Alpha virt. eigenvalues --    1.88592   1.89177   1.89814   1.90406   1.90961
 Alpha virt. eigenvalues --    1.91377   1.91725   1.92294   1.92580   1.93080
 Alpha virt. eigenvalues --    1.93681   1.94459   1.94623   1.95526   1.96137
 Alpha virt. eigenvalues --    1.96663   1.97529   1.98012   1.98554   1.99060
 Alpha virt. eigenvalues --    1.99256   1.99934   2.01832   2.02519   2.03224
 Alpha virt. eigenvalues --    2.03803   2.04811   2.05305   2.05539   2.06155
 Alpha virt. eigenvalues --    2.07041   2.07489   2.08027   2.08822   2.10046
 Alpha virt. eigenvalues --    2.10385   2.11015   2.12217   2.13002   2.14052
 Alpha virt. eigenvalues --    2.15194   2.15845   2.16310   2.16936   2.17241
 Alpha virt. eigenvalues --    2.17777   2.18253   2.19426   2.20260   2.21276
 Alpha virt. eigenvalues --    2.22197   2.23073   2.24677   2.25368   2.25802
 Alpha virt. eigenvalues --    2.26017   2.27054   2.27647   2.28003   2.28486
 Alpha virt. eigenvalues --    2.29435   2.30025   2.30819   2.31603   2.32480
 Alpha virt. eigenvalues --    2.32932   2.34073   2.34367   2.35526   2.36516
 Alpha virt. eigenvalues --    2.36958   2.38351   2.38439   2.39549   2.41045
 Alpha virt. eigenvalues --    2.42241   2.42604   2.43530   2.43646   2.44044
 Alpha virt. eigenvalues --    2.44848   2.45506   2.46860   2.48083   2.48915
 Alpha virt. eigenvalues --    2.49511   2.49570   2.50969   2.51285   2.51723
 Alpha virt. eigenvalues --    2.52735   2.53001   2.54639   2.54843   2.55484
 Alpha virt. eigenvalues --    2.56726   2.57523   2.57813   2.59067   2.59463
 Alpha virt. eigenvalues --    2.60039   2.60413   2.62317   2.62717   2.63981
 Alpha virt. eigenvalues --    2.65281   2.65508   2.66131   2.67278   2.67940
 Alpha virt. eigenvalues --    2.69809   2.70451   2.71910   2.75350   2.75840
 Alpha virt. eigenvalues --    2.76933   2.77958   2.79536   2.80393   2.85451
 Alpha virt. eigenvalues --    2.87346   2.88411   2.89666   2.90493   2.90815
 Alpha virt. eigenvalues --    2.92272   2.93044   2.93378   2.94795   2.94962
 Alpha virt. eigenvalues --    2.96106   2.96440   2.98357   3.03931   3.05340
 Alpha virt. eigenvalues --    3.06080   3.12534   3.17441   3.35566   3.68500
 Alpha virt. eigenvalues --    3.74416   3.75348   3.78471   3.80211   3.83178
 Alpha virt. eigenvalues --    3.89166   3.89691   3.96900   3.98007   3.98909
 Alpha virt. eigenvalues --    4.00493   4.01227   4.03301   4.06212   4.06863
 Alpha virt. eigenvalues --    4.07997   4.08314   4.09805   4.13348   4.15103
 Alpha virt. eigenvalues --    4.17057   4.20343   4.20720   4.23715   4.24640
 Alpha virt. eigenvalues --    4.25830   4.31920   4.35567   4.36835   4.38199
 Alpha virt. eigenvalues --    4.39710   4.40353   4.45327   4.49939   4.50725
 Alpha virt. eigenvalues --    4.51085   4.60266   4.63156   4.65939   4.69329
 Alpha virt. eigenvalues --    4.73231
          Condensed to atoms (all electrons):
 Mulliken charges:
               1
     1  N   -0.759753
     2  C   -0.057820
     3  C    0.592693
     4  O   -0.490166
     5  C   -0.306879
     6  C   -0.371287
     7  C    0.596423
     8  O   -0.527940
     9  O   -0.515267
    10  H    0.427457
    11  H    0.175821
    12  H    0.130092
    13  H    0.165290
    14  H    0.237328
    15  H    0.198403
    16  H    0.349744
    17  H    0.296172
    18  N   -0.578104
    19  C   -0.083778
    20  C    0.606168
    21  O   -0.481337
    22  C   -0.357103
    23  C    0.036862
    24  C    0.041489
    25  C    0.047966
    26  C    0.322300
    27  C   -0.229777
    28  N   -0.672351
    29  C   -0.164170
    30  C   -0.155888
    31  C   -0.159775
    32  H    0.356000
    33  H    0.129575
    34  H    0.155576
    35  H    0.181326
    36  H    0.179721
    37  H    0.343307
    38  H    0.127858
    39  H    0.144184
    40  H    0.128323
    41  H    0.142175
    42  N   -0.603289
    43  C   -0.085828
    44  C    0.618973
    45  O   -0.492814
    46  C    0.128495
    47  C   -0.479030
    48  O   -0.661535
    49  H    0.429579
    50  H    0.362931
    51  H    0.166058
    52  H    0.166574
    53  H    0.162612
    54  H    0.188992
    55  H    0.182943
    56  N   -0.643150
    57  C   -0.057056
    58  C    0.638754
    59  O   -0.493087
    60  C   -0.344529
    61  C   -0.305289
    62  C   -0.178450
    63  N   -0.622021
    64  C    0.774773
    65  N   -0.788738
    66  N   -0.778792
    67  O   -0.569337
    68  H    0.467441
    69  H    0.347920
    70  H    0.159129
    71  H    0.206127
    72  H    0.164850
    73  H    0.180401
    74  H    0.188772
    75  H    0.194230
    76  H    0.203980
    77  H    0.393801
    78  H    0.370775
    79  H    0.432199
    80  H    0.404652
    81  H    0.367126
 Sum of Mulliken charges =   1.00000
 Mulliken charges with hydrogens summed into heavy atoms:
               1
     1  N   -0.113837
     2  C    0.118001
     3  C    0.592693
     4  O   -0.490166
     5  C   -0.011497
     6  C    0.064444
     7  C    0.596423
     8  O   -0.527940
     9  O   -0.087809
    18  N   -0.222104
    19  C    0.045797
    20  C    0.606168
    21  O   -0.481337
    22  C   -0.020201
    23  C    0.036862
    24  C    0.221210
    25  C    0.047966
    26  C    0.322300
    27  C   -0.101918
    28  N   -0.329044
    29  C   -0.019985
    30  C   -0.027565
    31  C   -0.017600
    42  N   -0.240358
    43  C    0.080230
    44  C    0.618973
    45  O   -0.492814
    46  C    0.295068
    47  C    0.055517
    48  O   -0.231955
    56  N   -0.295230
    57  C    0.102073
    58  C    0.638754
    59  O   -0.493087
    60  C    0.026448
    61  C    0.063884
    62  C    0.219760
    63  N   -0.228220
    64  C    0.774773
    65  N    0.014236
    66  N   -0.007014
    67  O   -0.101896
 Electronic spatial extent (au):  <R**2>=        1395646.2721
 Charge=              1.0000 electrons
 Dipole moment (field-independent basis, Debye):
    X=             50.6851    Y=            143.5625    Z=             67.1700  Tot=            166.4061
 Quadrupole moment (field-independent basis, Debye-Ang):
   XX=            312.8014   YY=           4032.2672   ZZ=            779.1335
   XY=           1537.2760   XZ=            700.4980   YZ=           2007.9305
 Traceless Quadrupole moment (field-independent basis, Debye-Ang):
   XX=          -1395.2660   YY=           2324.1999   ZZ=           -928.9339
   XY=           1537.2760   XZ=            700.4980   YZ=           2007.9305
 Octapole moment (field-independent basis, Debye-Ang**2):
  XXX=           -893.6194  YYY=         103752.4089  ZZZ=           7839.1119  XYY=          44126.1634
  XXY=           9400.7711  XXZ=           4625.4954  XZZ=           8170.5527  YZZ=          23044.4152
  YYZ=          56925.8395  XYZ=          21155.5844
 Hexadecapole moment (field-independent basis, Debye-Ang**3):
 XXXX=         -76780.2488 YYYY=        2279539.1951 ZZZZ=          60673.6858 XXXY=         -30749.1283
 XXXZ=          -2688.2213 YYYX=        1177936.2511 YYYZ=        1501245.5983 ZZZX=          83956.4639
 ZZZY=         226003.0946 XXYY=         255258.6112 XXZZ=          51182.9292 YYZZ=         641393.2670
 XXYZ=         137849.1032 YYXZ=         608955.1648 ZZXY=         243848.0737
 N-N= 5.767779167643D+03 E-N=-1.629021006517D+04  KE= 2.035183141861D+03
 Unable to Open any file for archive entry.
 1\1\GINC-LAC-307\SP\RB3LYP\6-31G(d)\C26H39N8O8(1+)\KENGMITH\27-May-202
 2\0\\# B3LYP/6-31G* empiricaldispersion=gd3 guess=read geom=check nosy
 mm integral(ultrafinegrid)\\Candidate Structure: Conf:197 Charge calc 
 in gas phase\\1,1\N,0,7.3343991758,30.9600844515,12.1099719994\C,0,7.1
 977390628,32.2004473004,12.8623508761\C,0,6.6869758944,33.3962764293,1
 2.0368250753\O,0,5.7438652913,34.0492673843,12.4634401343\C,0,8.414333
 0169,32.6996945207,13.7131187717\C,0,7.9340348882,33.3753541466,14.999
 6523556\C,0,7.469450209,32.3627942867,16.0205595692\O,0,7.815473713,31
 .181523621,16.0541566103\O,0,6.6542436267,32.8870914001,16.9328639826\
 H,0,6.3913053777,32.1867239886,17.5613962704\H,0,6.3746326388,32.02265
 89475,13.5610892708\H,0,9.0523903887,31.8515674514,13.9760932922\H,0,9
 .036855754,33.4037460609,13.1499591572\H,0,7.1199533884,34.0792193805,
 14.796880047\H,0,8.7362523231,33.9540411709,15.4782504944\H,0,7.954904
 2933,30.9894831925,11.3101725788\H,0,7.6070376242,30.1922412129,12.716
 243546\N,0,7.3282213181,33.7652544821,10.8768885413\C,0,8.6331614405,3
 3.3801983225,10.3716943705\C,0,9.5827333493,34.5926119752,10.441667932
 6\O,0,9.1417798897,35.7302976613,10.444666526\C,0,8.536186325,32.85532
 76356,8.9061533823\C,0,7.9188442368,31.4941960926,8.8571402513\C,0,6.5
 814796374,31.1828343807,8.9246948549\C,0,8.6329459963,30.2428073789,8.
 925252913\C,0,7.6587609625,29.2095254762,9.0459120141\C,0,9.9933806673
 ,29.8881432035,8.8824900742\N,0,6.4229503842,29.817753945,9.0241620952
 \C,0,8.0130279285,27.8596182401,9.1519478913\C,0,10.349453922,28.54841
 12073,8.9864345857\C,0,9.3677574711,27.5439809147,9.1265520874\H,0,7.0
 244300086,34.6804970355,10.5529279785\H,0,9.0213079759,32.576657799,10
 .9942779319\H,0,9.5403715731,32.8306887876,8.4664325207\H,0,7.96369854
 95,33.590187946,8.3298383444\H,0,5.7242234414,31.8403899909,8.93387863
 22\H,0,5.5370313388,29.346068645,9.1232128633\H,0,10.7614876629,30.645
 2123664,8.7569294525\H,0,7.256837683,27.0844220918,9.2388937109\H,0,11
 .3986237864,28.2671642853,8.949176674\H,0,9.6739406164,26.5044235754,9
 .1983884608\N,0,10.9392790023,34.3503528588,10.4240455486\C,0,11.62773
 17959,33.094073249,10.6526618739\C,0,12.4561530095,33.2092083139,11.94
 30076709\O,0,12.9606936499,34.2916436745,12.2126246185\C,0,12.55771242
 43,32.753645926,9.4572977326\C,0,13.7158079166,33.7149260118,9.2325162
 744\O,0,13.0267628126,31.4043399051,9.7008041171\H,0,13.5450348608,31.
 1170205586,8.9311292467\H,0,11.4971879063,35.1815546341,10.5975453504\
 H,0,10.8984756248,32.2959561879,10.704958191\H,0,11.9114918184,32.7397
 558155,8.5698681875\H,0,14.2931488883,33.4036814035,8.3544875614\H,0,1
 4.380527793,33.7522013976,10.0990042903\H,0,13.3430675,34.7248976363,9
 .0373089623\N,0,12.7454412057,32.1194755981,12.7348895746\C,0,12.20107
 02145,30.7783852529,12.9851974147\C,0,13.2825140587,29.7080210616,12.7
 80222241\O,0,13.4409460892,28.8113419533,13.5978586922\C,0,10.93934250
 89,30.3841014918,12.2049134093\C,0,10.3899689955,28.9631282367,12.4354
 322905\C,0,10.2756216988,28.4023590102,13.8690615908\N,0,10.0118287717
 ,29.3811624371,14.9400486576\C,0,10.7602912746,29.5094313047,16.047830
 8931\N,0,12.033732638,29.0977275939,16.0752643948\N,0,10.2110903349,30
 .0608204786,17.1441275402\O,0,13.9940232959,29.7718164596,11.670507669
 7\H,0,13.7127717557,30.5359079969,11.1029930013\H,0,13.387522725,32.41
 94732617,13.4636776177\H,0,11.9590835171,30.7532489446,14.0479167068\H
 ,0,11.1337258812,30.4439999395,11.1340541011\H,0,10.1642168693,31.1143
 750879,12.4430359507\H,0,9.4128924483,28.9378197407,11.9431867757\H,0,
 10.9977146674,28.2454264521,11.8743798095\H,0,9.4723647155,27.65781341
 38,13.8968115922\H,0,11.1929735279,27.8780900911,14.1275040538\H,0,9.0
 986292217,29.8288563283,14.9836822345\H,0,12.5291444913,29.0521580563,
 16.9542881528\H,0,12.565263767,28.899281979,15.214842425\H,0,9.2466393
 878,30.3839488442,17.1034186272\H,0,10.8030380847,30.4394071585,17.869
 7119173\\Version=ES64L-G16RevC.01\HF=-2054.0430829\RMSD=7.560e-10\Dipo
 le=1.3425919,-2.8845492,3.7941969\Quadrupole=-1037.3460626,1727.985632
 8,-690.6395702,1142.927027,520.8031297,1492.8470941\PG=C01 [X(C26H39N8
 O8)]\\@
 The archive entry for this job was punched.


 THE VALUE OF PHILOSOPHY IS, IN FACT, TO BE SOUGHT LARGELY IN ITS
 VERY UNCERTAINTY.  THE MAN WHO HAS NO TINCTURE OF PHILOSOPHY GOES
 THROUGH LIFE IMPRISONED IN THE PREJUDICES DERIVED FROM COMMON SENSE,
 FROM THE HABITUAL BELIEFS OF HIS AGE OR HIS NATION, AND FROM
 CONVICTIONS WHICH HAVE GROWN UP IN HIS MIND WITHOUT THE CO-OPERATION
 OR CONSENT OF HIS DELIBERATE REASON.  TO SUCH A MAN THE WORLD TENDS
 TO BE DEFINITE, FINITE, OBVIOUS; COMMON OBJECTS ROUSE NO QUESTIONS,
 AND UNFAMILIAR POSSIBILITIES ARE CONTEMPTUOUSLY REJECTED.

                             -- BERTRAND RUSSELL
 Job cpu time:       0 days  0 hours  7 minutes 28.5 seconds.
 Elapsed time:       0 days  0 hours  1 minutes 53.2 seconds.
 File lengths (MBytes):  RWF=    376 Int=      0 D2E=      0 Chk=     56 Scr=     16
 Normal termination of Gaussian 16 at Fri May 27 05:13:57 2022.
