 Entering Gaussian System, Link 0=/opt/software/Gaussian/g16-AVX2-C.01/g16/g16
 Input=charge-conf-472.com
 Output=charge-conf-472.log
 Initial command:
 /opt/software/Gaussian/g16-AVX2-C.01/g16/l1.exe "/mnt/gs18/scratch/users/kengmith/Gau-20118.inp" -scrdir="/mnt/gs18/scratch/users/kengmith/"
 Entering Link 1 = /opt/software/Gaussian/g16-AVX2-C.01/g16/l1.exe PID=     20136.
  
 Copyright (c) 1988-2019, Gaussian, Inc.  All Rights Reserved.
  
 This is part of the Gaussian(R) 16 program.  It is based on
 the Gaussian(R) 09 system (copyright 2009, Gaussian, Inc.),
 the Gaussian(R) 03 system (copyright 2003, Gaussian, Inc.),
 the Gaussian(R) 98 system (copyright 1998, Gaussian, Inc.),
 the Gaussian(R) 94 system (copyright 1995, Gaussian, Inc.),
 the Gaussian 92(TM) system (copyright 1992, Gaussian, Inc.),
 the Gaussian 90(TM) system (copyright 1990, Gaussian, Inc.),
 the Gaussian 88(TM) system (copyright 1988, Gaussian, Inc.),
 the Gaussian 86(TM) system (copyright 1986, Carnegie Mellon
 University), and the Gaussian 82(TM) system (copyright 1983,
 Carnegie Mellon University). Gaussian is a federally registered
 trademark of Gaussian, Inc.
  
 This software contains proprietary and confidential information,
 including trade secrets, belonging to Gaussian, Inc.
  
 This software is provided under written license and may be
 used, copied, transmitted, or stored only in accord with that
 written license.
  
 The following legend is applicable only to US Government
 contracts under FAR:
  
                    RESTRICTED RIGHTS LEGEND
  
 Use, reproduction and disclosure by the US Government is
 subject to restrictions as set forth in subparagraphs (a)
 and (c) of the Commercial Computer Software - Restricted
 Rights clause in FAR 52.227-19.
  
 Gaussian, Inc.
 340 Quinnipiac St., Bldg. 40, Wallingford CT 06492
  
  
 ---------------------------------------------------------------
 Warning -- This program may not be used in any manner that
 competes with the business of Gaussian, Inc. or will provide
 assistance to any competitor of Gaussian, Inc.  The licensee
 of this program is prohibited from giving any competitor of
 Gaussian, Inc. access to this program.  By using this program,
 the user acknowledges that Gaussian, Inc. is engaged in the
 business of creating and licensing software in the field of
 computational chemistry and represents and warrants to the
 licensee that it is not a competitor of Gaussian, Inc. and that
 it will not use this program in any manner prohibited above.
 ---------------------------------------------------------------
  

 Cite this work as:
 Gaussian 16, Revision C.01,
 M. J. Frisch, G. W. Trucks, H. B. Schlegel, G. E. Scuseria, 
 M. A. Robb, J. R. Cheeseman, G. Scalmani, V. Barone, 
 G. A. Petersson, H. Nakatsuji, X. Li, M. Caricato, A. V. Marenich, 
 J. Bloino, B. G. Janesko, R. Gomperts, B. Mennucci, H. P. Hratchian, 
 J. V. Ortiz, A. F. Izmaylov, J. L. Sonnenberg, D. Williams-Young, 
 F. Ding, F. Lipparini, F. Egidi, J. Goings, B. Peng, A. Petrone, 
 T. Henderson, D. Ranasinghe, V. G. Zakrzewski, J. Gao, N. Rega, 
 G. Zheng, W. Liang, M. Hada, M. Ehara, K. Toyota, R. Fukuda, 
 J. Hasegawa, M. Ishida, T. Nakajima, Y. Honda, O. Kitao, H. Nakai, 
 T. Vreven, K. Throssell, J. A. Montgomery, Jr., J. E. Peralta, 
 F. Ogliaro, M. J. Bearpark, J. J. Heyd, E. N. Brothers, K. N. Kudin, 
 V. N. Staroverov, T. A. Keith, R. Kobayashi, J. Normand, 
 K. Raghavachari, A. P. Rendell, J. C. Burant, S. S. Iyengar, 
 J. Tomasi, M. Cossi, J. M. Millam, M. Klene, C. Adamo, R. Cammi, 
 J. W. Ochterski, R. L. Martin, K. Morokuma, O. Farkas, 
 J. B. Foresman, and D. J. Fox, Gaussian, Inc., Wallingford CT, 2019.
 
 ******************************************
 Gaussian 16:  ES64L-G16RevC.01  3-Jul-2019
                27-May-2022 
 ******************************************
 %mem=8gb
 %nproc=4
 Will use up to    4 processors via shared memory.
 %chk=conf-472.chk
 ----------------------------------------------------------------------
 # B3LYP/6-31G* empiricaldispersion=gd3 guess=read geom=check nosymm in
 tegral(ultrafinegrid)
 ----------------------------------------------------------------------
 1/29=2,38=1,172=1/1;
 2/12=2,15=1,40=1/2;
 3/5=1,6=6,7=1,11=2,14=-4,25=1,30=1,74=-5,75=-5,116=-2,124=31/1,2,3;
 4/5=1/1;
 5/5=2,38=6/2;
 6/7=2,8=2,9=2,10=2,28=1/1;
 99/5=1,9=1/99;
 ------------------------------------------------------
 Candidate Structure: Conf:472 Charge calc in gas phase
 ------------------------------------------------------
 Structure from the checkpoint file:  "conf-472.chk"
 Charge =  1 Multiplicity = 1
 Redundant internal coordinates found in file.  (old form).
 N,0,10.7804482309,32.6315113494,10.1494228071
 C,0,12.1609031126,33.1181926049,10.4465929375
 C,0,13.2828968202,32.0622739411,10.3540294535
 O,0,14.2851868685,32.3185425263,9.7070543364
 C,0,12.2591251541,33.7952413337,11.8348772554
 C,0,11.7678856055,35.2592497266,11.9104132976
 C,0,10.4111524503,35.4129835405,11.2812032865
 O,0,9.3443739453,35.113771928,11.8037880207
 O,0,10.4881135386,35.8650258807,10.022904889
 H,0,9.5858734372,35.7963887609,9.6424621088
 H,0,12.4333827081,33.844978827,9.6767792087
 H,0,11.7157891228,33.2056355811,12.5762289811
 H,0,13.305110707,33.7896522585,12.1564532606
 H,0,12.4749920806,35.9160979171,11.3979702598
 H,0,11.7030493356,35.5482834519,12.9633060605
 H,0,10.8306013616,31.7006873605,9.7332611145
 H,0,10.279115496,32.5222578502,11.0254410629
 N,0,13.1618542567,30.851070799,11.0059422982
 C,0,12.231841341,30.4483293846,12.0427846866
 C,0,12.7921910794,30.7462155978,13.4472049421
 O,0,13.9758869158,30.9718911696,13.6188268128
 C,0,11.9114993524,28.9381185803,11.8908635564
 C,0,11.0576500075,28.6392475185,10.6940082782
 C,0,11.3857024183,28.7905460404,9.3659145789
 C,0,9.702685685,28.1458732237,10.7269760729
 C,0,9.2653387647,28.0212446378,9.3776185079
 C,0,8.8179948598,27.7916761538,11.7618315291
 N,0,10.3070688541,28.4384638091,8.5739341596
 C,0,7.9843307259,27.5637473652,9.0459775897
 C,0,7.5449661803,27.3395201669,11.4376242525
 C,0,7.1326996684,27.2260248546,10.0922236673
 H,0,14.056973941,30.3711624985,11.0424126986
 H,0,11.3106005306,31.0062782098,11.9016655529
 H,0,11.4105355913,28.5820809134,12.7971265972
 H,0,12.867399718,28.399987166,11.8542012951
 H,0,12.3142439851,29.1160286417,8.919456141
 H,0,10.3380221192,28.3467662029,7.5695083262
 H,0,9.1262184386,27.8634973716,12.8023573429
 H,0,7.670976286,27.4640943975,8.0103731365
 H,0,6.8570459207,27.0544024779,12.2284071287
 H,0,6.1358328515,26.85725694,9.869691569
 N,0,11.9061938905,30.6719461169,14.5118808786
 C,0,10.4632654828,30.8490192963,14.4138769076
 C,0,10.1372535078,32.3588713417,14.3988129429
 O,0,10.8835347276,33.1103698141,15.0186909925
 C,0,9.7677774751,30.1364562269,15.5962058813
 C,0,10.0367992971,30.7324034309,16.9722377383
 O,0,8.3544797408,30.1711393297,15.2800783462
 H,0,7.8781111574,29.6558133204,15.9520094473
 H,0,12.3169585986,31.0918552436,15.3406925032
 H,0,10.1105328472,30.3474356001,13.5184754424
 H,0,10.1050991681,29.0923990034,15.5645411447
 H,0,9.4870048076,30.1695326493,17.7352004125
 H,0,9.7347503205,31.7817030428,17.0190503033
 H,0,11.0985570323,30.6668790085,17.2295452974
 N,0,9.0624627014,32.8928392377,13.7343501193
 C,0,8.0458735207,32.4719388071,12.7650056188
 C,0,6.6394531594,32.5526193609,13.3776345325
 O,0,5.7266682358,33.129752013,12.7973785667
 C,0,8.2519575212,31.1185969894,12.0704547609
 C,0,7.3342643426,30.8063203488,10.8664127255
 C,0,6.7384053062,31.9365355452,10.0108819642
 N,0,7.6150397044,33.0814891604,9.6652570947
 C,0,7.2125727507,34.3554457915,9.7293738819
 N,0,6.2450976042,34.7421837205,10.5493963494
 N,0,7.8349897793,35.2725072848,8.9177140728
 O,0,6.4388711397,31.9505107386,14.5331906517
 H,0,7.2624185402,31.5009193663,14.8573729376
 H,0,9.1223351036,33.9079990994,13.7743785554
 H,0,8.0801919079,33.2491968918,12.0070411438
 H,0,8.1416143912,30.301918613,12.7860845594
 H,0,9.2852760976,31.0737022535,11.7237897644
 H,0,7.8875775236,30.1193291104,10.2228112225
 H,0,6.4676009327,30.2311796961,11.2085983163
 H,0,6.3984970334,31.4959939223,9.066448036
 H,0,5.8607002021,32.3428380219,10.5062741855
 H,0,8.5715493286,32.919113224,9.3398914486
 H,0,5.8795122039,35.683472461,10.5052448933
 H,0,6.0056613102,34.1792411172,11.3879950337
 H,0,8.1063530153,34.9400616728,7.9982892052
 H,0,7.4541276845,36.2126519288,8.909037501
 Recover connectivity data from disk.
                           ----------------------------
                           !    Current Parameters    !
                           ! (Angstroms and Degrees)  !
 --------------------------                            --------------------------
 ! Name  Definition              Value                                          !
 --------------------------------------------------------------------------------
 ! R1    R(1,2)                  1.4936                                         !
 ! R2    R(1,16)                 1.0209                                         !
 ! R3    R(1,17)                 1.0152                                         !
 ! R4    R(2,3)                  1.5435                                         !
 ! R5    R(2,5)                  1.5477                                         !
 ! R6    R(2,11)                 1.0932                                         !
 ! R7    R(3,4)                  1.2202                                         !
 ! R8    R(3,18)                 1.3808                                         !
 ! R9    R(5,6)                  1.5461                                         !
 ! R10   R(5,12)                 1.092                                          !
 ! R11   R(5,13)                 1.0943                                         !
 ! R12   R(6,7)                  1.5034                                         !
 ! R13   R(6,14)                 1.0927                                         !
 ! R14   R(6,15)                 1.0938                                         !
 ! R15   R(7,8)                  1.225                                          !
 ! R16   R(7,9)                  1.3392                                         !
 ! R17   R(9,10)                 0.9816                                         !
 ! R18   R(18,19)                1.4499                                         !
 ! R19   R(18,32)                1.0163                                         !
 ! R20   R(19,20)                1.5411                                         !
 ! R21   R(19,22)                1.5513                                         !
 ! R22   R(19,33)                1.0862                                         !
 ! R23   R(20,21)                1.2172                                         !
 ! R24   R(20,42)                1.3871                                         !
 ! R25   R(22,23)                1.5003                                         !
 ! R26   R(22,34)                1.095                                          !
 ! R27   R(22,35)                1.0976                                         !
 ! R28   R(23,24)                1.3764                                         !
 ! R29   R(23,25)                1.4424                                         !
 ! R30   R(24,28)                1.3837                                         !
 ! R31   R(24,36)                1.0805                                         !
 ! R32   R(25,26)                1.4239                                         !
 ! R33   R(25,27)                1.4068                                         !
 ! R34   R(26,28)                1.3803                                         !
 ! R35   R(26,29)                1.4001                                         !
 ! R36   R(27,30)                1.3893                                         !
 ! R37   R(27,38)                1.0876                                         !
 ! R38   R(28,37)                1.0091                                         !
 ! R39   R(29,31)                1.3907                                         !
 ! R40   R(29,39)                1.0866                                         !
 ! R41   R(30,31)                1.4117                                         !
 ! R42   R(30,40)                1.0862                                         !
 ! R43   R(31,41)                1.0859                                         !
 ! R44   R(42,43)                1.4571                                         !
 ! R45   R(42,50)                1.0159                                         !
 ! R46   R(43,44)                1.5447                                         !
 ! R47   R(43,46)                1.5458                                         !
 ! R48   R(43,51)                1.0852                                         !
 ! R49   R(44,45)                1.2272                                         !
 ! R50   R(44,56)                1.3718                                         !
 ! R51   R(46,47)                1.5235                                         !
 ! R52   R(46,48)                1.4486                                         !
 ! R53   R(46,52)                1.0977                                         !
 ! R54   R(47,53)                1.096                                          !
 ! R55   R(47,54)                1.0929                                         !
 ! R56   R(47,55)                1.0945                                         !
 ! R57   R(48,49)                0.9716                                         !
 ! R58   R(56,57)                1.4664                                         !
 ! R59   R(56,69)                1.0177                                         !
 ! R60   R(57,58)                1.5362                                         !
 ! R61   R(57,60)                1.5351                                         !
 ! R62   R(57,70)                1.0862                                         !
 ! R63   R(58,59)                1.226                                          !
 ! R64   R(58,67)                1.3184                                         !
 ! R65   R(60,61)                1.5458                                         !
 ! R66   R(60,71)                1.0915                                         !
 ! R67   R(60,72)                1.0908                                         !
 ! R68   R(61,62)                1.5376                                         !
 ! R69   R(61,73)                1.0919                                         !
 ! R70   R(61,74)                1.095                                          !
 ! R71   R(62,63)                1.4829                                         !
 ! R72   R(62,75)                1.0962                                         !
 ! R73   R(62,76)                1.0867                                         !
 ! R74   R(63,64)                1.3376                                         !
 ! R75   R(63,77)                1.0233                                         !
 ! R76   R(64,65)                1.3259                                         !
 ! R77   R(64,66)                1.3738                                         !
 ! R78   R(65,78)                1.0108                                         !
 ! R79   R(65,79)                1.038                                          !
 ! R80   R(66,80)                1.0146                                         !
 ! R81   R(66,81)                1.0144                                         !
 ! R82   R(67,68)                0.9927                                         !
 ! A1    A(2,1,16)             109.4395                                         !
 ! A2    A(2,1,17)             108.6504                                         !
 ! A3    A(16,1,17)            106.1349                                         !
 ! A4    A(1,2,3)              115.913                                          !
 ! A5    A(1,2,5)              112.3131                                         !
 ! A6    A(1,2,11)             107.8721                                         !
 ! A7    A(3,2,5)              107.874                                          !
 ! A8    A(3,2,11)             103.3794                                         !
 ! A9    A(5,2,11)             108.9658                                         !
 ! A10   A(2,3,4)              119.0273                                         !
 ! A11   A(2,3,18)             120.5333                                         !
 ! A12   A(4,3,18)             120.4354                                         !
 ! A13   A(2,5,6)              115.9696                                         !
 ! A14   A(2,5,12)             109.9497                                         !
 ! A15   A(2,5,13)             108.785                                          !
 ! A16   A(6,5,12)             108.6638                                         !
 ! A17   A(6,5,13)             107.1084                                         !
 ! A18   A(12,5,13)            105.8625                                         !
 ! A19   A(5,6,7)              111.2916                                         !
 ! A20   A(5,6,14)             109.9186                                         !
 ! A21   A(5,6,15)             108.4269                                         !
 ! A22   A(7,6,14)             109.0402                                         !
 ! A23   A(7,6,15)             108.8059                                         !
 ! A24   A(14,6,15)            109.3262                                         !
 ! A25   A(6,7,8)              125.6163                                         !
 ! A26   A(6,7,9)              112.0787                                         !
 ! A27   A(8,7,9)              122.2287                                         !
 ! A28   A(7,9,10)             106.7224                                         !
 ! A29   A(3,18,19)            129.6061                                         !
 ! A30   A(3,18,32)            110.7284                                         !
 ! A31   A(19,18,32)           114.0869                                         !
 ! A32   A(18,19,20)           111.3931                                         !
 ! A33   A(18,19,22)           109.4417                                         !
 ! A34   A(18,19,33)           107.9642                                         !
 ! A35   A(20,19,22)           110.6404                                         !
 ! A36   A(20,19,33)           109.1154                                         !
 ! A37   A(22,19,33)           108.1918                                         !
 ! A38   A(19,20,21)           121.1929                                         !
 ! A39   A(19,20,42)           117.1853                                         !
 ! A40   A(21,20,42)           121.5252                                         !
 ! A41   A(19,22,23)           112.929                                          !
 ! A42   A(19,22,34)           109.2665                                         !
 ! A43   A(19,22,35)           107.5019                                         !
 ! A44   A(23,22,34)           109.5786                                         !
 ! A45   A(23,22,35)           111.7986                                         !
 ! A46   A(34,22,35)           105.4664                                         !
 ! A47   A(22,23,24)           127.7512                                         !
 ! A48   A(22,23,25)           125.7708                                         !
 ! A49   A(24,23,25)           106.4729                                         !
 ! A50   A(23,24,28)           109.7869                                         !
 ! A51   A(23,24,36)           129.5431                                         !
 ! A52   A(28,24,36)           120.6672                                         !
 ! A53   A(23,25,26)           107.266                                          !
 ! A54   A(23,25,27)           133.9236                                         !
 ! A55   A(26,25,27)           118.8097                                         !
 ! A56   A(25,26,28)           107.0679                                         !
 ! A57   A(25,26,29)           122.2816                                         !
 ! A58   A(28,26,29)           130.6455                                         !
 ! A59   A(25,27,30)           119.1121                                         !
 ! A60   A(25,27,38)           120.5927                                         !
 ! A61   A(30,27,38)           120.2939                                         !
 ! A62   A(24,28,26)           109.3886                                         !
 ! A63   A(24,28,37)           124.6759                                         !
 ! A64   A(26,28,37)           125.1178                                         !
 ! A65   A(26,29,31)           117.4807                                         !
 ! A66   A(26,29,39)           121.3051                                         !
 ! A67   A(31,29,39)           121.2098                                         !
 ! A68   A(27,30,31)           121.0746                                         !
 ! A69   A(27,30,40)           119.726                                          !
 ! A70   A(31,30,40)           119.1938                                         !
 ! A71   A(29,31,30)           121.2404                                         !
 ! A72   A(29,31,41)           119.3708                                         !
 ! A73   A(30,31,41)           119.385                                          !
 ! A74   A(20,42,43)           125.0587                                         !
 ! A75   A(20,42,50)           110.2317                                         !
 ! A76   A(43,42,50)           113.8957                                         !
 ! A77   A(42,43,44)           109.1744                                         !
 ! A78   A(42,43,46)           109.7614                                         !
 ! A79   A(42,43,51)           108.7357                                         !
 ! A80   A(44,43,46)           111.2892                                         !
 ! A81   A(44,43,51)           112.0311                                         !
 ! A82   A(46,43,51)           105.7707                                         !
 ! A83   A(43,44,45)           117.729                                          !
 ! A84   A(43,44,56)           123.4042                                         !
 ! A85   A(45,44,56)           118.8667                                         !
 ! A86   A(43,46,47)           115.5364                                         !
 ! A87   A(43,46,48)           105.1297                                         !
 ! A88   A(43,46,52)           106.149                                          !
 ! A89   A(47,46,48)           111.1011                                         !
 ! A90   A(47,46,52)           110.1125                                         !
 ! A91   A(48,46,52)           108.4388                                         !
 ! A92   A(46,47,53)           109.8333                                         !
 ! A93   A(46,47,54)           111.4353                                         !
 ! A94   A(46,47,55)           111.1147                                         !
 ! A95   A(53,47,54)           108.9426                                         !
 ! A96   A(53,47,55)           106.9923                                         !
 ! A97   A(54,47,55)           108.3925                                         !
 ! A98   A(46,48,49)           108.3439                                         !
 ! A99   A(44,56,57)           138.7328                                         !
 ! A100  A(44,56,69)           108.8522                                         !
 ! A101  A(57,56,69)           110.6771                                         !
 ! A102  A(56,57,58)           110.8552                                         !
 ! A103  A(56,57,60)           117.3279                                         !
 ! A104  A(56,57,70)           103.5322                                         !
 ! A105  A(58,57,60)           110.4663                                         !
 ! A106  A(58,57,70)           105.6425                                         !
 ! A107  A(60,57,70)           108.1132                                         !
 ! A108  A(57,58,59)           121.1734                                         !
 ! A109  A(57,58,67)           117.7011                                         !
 ! A110  A(59,58,67)           121.1034                                         !
 ! A111  A(57,60,61)           116.7974                                         !
 ! A112  A(57,60,71)           110.453                                          !
 ! A113  A(57,60,72)           107.8933                                         !
 ! A114  A(61,60,71)           107.4298                                         !
 ! A115  A(61,60,72)           107.8496                                         !
 ! A116  A(71,60,72)           105.8631                                         !
 ! A117  A(60,61,62)           120.9945                                         !
 ! A118  A(60,61,73)           106.5813                                         !
 ! A119  A(60,61,74)           109.4257                                         !
 ! A120  A(62,61,73)           109.3211                                         !
 ! A121  A(62,61,74)           104.6691                                         !
 ! A122  A(73,61,74)           104.7616                                         !
 ! A123  A(61,62,63)           117.9129                                         !
 ! A124  A(61,62,75)           107.7061                                         !
 ! A125  A(61,62,76)           109.5221                                         !
 ! A126  A(63,62,75)           107.0265                                         !
 ! A127  A(63,62,76)           107.1609                                         !
 ! A128  A(75,62,76)           107.0128                                         !
 ! A129  A(62,63,64)           123.1174                                         !
 ! A130  A(62,63,77)           120.2772                                         !
 ! A131  A(64,63,77)           116.592                                          !
 ! A132  A(63,64,65)           121.8039                                         !
 ! A133  A(63,64,66)           118.11                                           !
 ! A134  A(65,64,66)           120.0858                                         !
 ! A135  A(64,65,78)           120.5664                                         !
 ! A136  A(64,65,79)           120.6488                                         !
 ! A137  A(78,65,79)           117.1879                                         !
 ! A138  A(64,66,80)           115.966                                          !
 ! A139  A(64,66,81)           116.9773                                         !
 ! A140  A(80,66,81)           113.3488                                         !
 ! A141  A(58,67,68)           111.5221                                         !
 ! D1    D(16,1,2,3)           -12.0887                                         !
 ! D2    D(16,1,2,5)          -136.7166                                         !
 ! D3    D(16,1,2,11)          103.187                                          !
 ! D4    D(17,1,2,3)           103.3886                                         !
 ! D5    D(17,1,2,5)           -21.2394                                         !
 ! D6    D(17,1,2,11)         -141.3358                                         !
 ! D7    D(1,2,3,4)            130.4352                                         !
 ! D8    D(1,2,3,18)           -50.2956                                         !
 ! D9    D(5,2,3,4)           -102.6807                                         !
 ! D10   D(5,2,3,18)            76.5884                                         !
 ! D11   D(11,2,3,4)            12.6422                                         !
 ! D12   D(11,2,3,18)         -168.0887                                         !
 ! D13   D(1,2,5,6)            -80.1941                                         !
 ! D14   D(1,2,5,12)            43.5495                                         !
 ! D15   D(1,2,5,13)           159.0552                                         !
 ! D16   D(3,2,5,6)            150.853                                          !
 ! D17   D(3,2,5,12)           -85.4034                                         !
 ! D18   D(3,2,5,13)            30.1023                                         !
 ! D19   D(11,2,5,6)            39.2657                                         !
 ! D20   D(11,2,5,12)          163.0094                                         !
 ! D21   D(11,2,5,13)          -81.485                                          !
 ! D22   D(2,3,18,19)          -14.3149                                         !
 ! D23   D(2,3,18,32)         -165.8996                                         !
 ! D24   D(4,3,18,19)          164.944                                          !
 ! D25   D(4,3,18,32)           13.3592                                         !
 ! D26   D(2,5,6,7)             49.2352                                         !
 ! D27   D(2,5,6,14)           -71.6705                                         !
 ! D28   D(2,5,6,15)           168.8733                                         !
 ! D29   D(12,5,6,7)           -75.1744                                         !
 ! D30   D(12,5,6,14)          163.9199                                         !
 ! D31   D(12,5,6,15)           44.4637                                         !
 ! D32   D(13,5,6,7)           170.8827                                         !
 ! D33   D(13,5,6,14)           49.977                                          !
 ! D34   D(13,5,6,15)          -69.4792                                         !
 ! D35   D(5,6,7,8)             78.9471                                         !
 ! D36   D(5,6,7,9)            -97.9199                                         !
 ! D37   D(14,6,7,8)          -159.6334                                         !
 ! D38   D(14,6,7,9)            23.4996                                         !
 ! D39   D(15,6,7,8)           -40.4655                                         !
 ! D40   D(15,6,7,9)           142.6675                                         !
 ! D41   D(6,7,9,10)           170.9387                                         !
 ! D42   D(8,7,9,10)            -6.0507                                         !
 ! D43   D(3,18,19,20)         -89.7027                                         !
 ! D44   D(3,18,19,22)         147.6301                                         !
 ! D45   D(3,18,19,33)          30.0823                                         !
 ! D46   D(32,18,19,20)         61.1206                                         !
 ! D47   D(32,18,19,22)        -61.5465                                         !
 ! D48   D(32,18,19,33)       -179.0943                                         !
 ! D49   D(18,19,20,21)        -16.5774                                         !
 ! D50   D(18,19,20,42)        166.9433                                         !
 ! D51   D(22,19,20,21)        105.3987                                         !
 ! D52   D(22,19,20,42)        -71.0807                                         !
 ! D53   D(33,19,20,21)       -135.6784                                         !
 ! D54   D(33,19,20,42)         47.8423                                         !
 ! D55   D(18,19,22,23)        -71.2077                                         !
 ! D56   D(18,19,22,34)        166.564                                          !
 ! D57   D(18,19,22,35)         52.5833                                         !
 ! D58   D(20,19,22,23)        165.678                                          !
 ! D59   D(20,19,22,34)         43.4496                                         !
 ! D60   D(20,19,22,35)        -70.531                                          !
 ! D61   D(33,19,22,23)         46.1972                                         !
 ! D62   D(33,19,22,34)        -76.0311                                         !
 ! D63   D(33,19,22,35)        169.9882                                         !
 ! D64   D(19,20,42,43)        -24.9276                                         !
 ! D65   D(19,20,42,50)       -166.7435                                         !
 ! D66   D(21,20,42,43)        158.6055                                         !
 ! D67   D(21,20,42,50)         16.7897                                         !
 ! D68   D(19,22,23,24)         65.6489                                         !
 ! D69   D(19,22,23,25)       -113.421                                          !
 ! D70   D(34,22,23,24)       -172.2979                                         !
 ! D71   D(34,22,23,25)          8.6321                                         !
 ! D72   D(35,22,23,24)        -55.7415                                         !
 ! D73   D(35,22,23,25)        125.1886                                         !
 ! D74   D(22,23,24,28)       -178.3475                                         !
 ! D75   D(22,23,24,36)          2.2632                                         !
 ! D76   D(25,23,24,28)          0.8656                                         !
 ! D77   D(25,23,24,36)       -178.5237                                         !
 ! D78   D(22,23,25,26)        179.1615                                         !
 ! D79   D(22,23,25,27)         -1.1714                                         !
 ! D80   D(24,23,25,26)         -0.0717                                         !
 ! D81   D(24,23,25,27)        179.5954                                         !
 ! D82   D(23,24,28,26)         -1.3706                                         !
 ! D83   D(23,24,28,37)       -171.443                                          !
 ! D84   D(36,24,28,26)        178.0819                                         !
 ! D85   D(36,24,28,37)          8.0095                                         !
 ! D86   D(23,25,26,28)         -0.738                                          !
 ! D87   D(23,25,26,29)        179.9869                                         !
 ! D88   D(27,25,26,28)        179.5357                                         !
 ! D89   D(27,25,26,29)          0.2605                                         !
 ! D90   D(23,25,27,30)        179.9935                                         !
 ! D91   D(23,25,27,38)         -0.417                                          !
 ! D92   D(26,25,27,30)         -0.3693                                         !
 ! D93   D(26,25,27,38)        179.2203                                         !
 ! D94   D(25,26,28,24)          1.2835                                         !
 ! D95   D(25,26,28,37)        171.3019                                         !
 ! D96   D(29,26,28,24)       -179.5242                                         !
 ! D97   D(29,26,28,37)         -9.5058                                         !
 ! D98   D(25,26,29,31)         -0.0535                                         !
 ! D99   D(25,26,29,39)       -179.2975                                         !
 ! D100  D(28,26,29,31)       -179.1402                                         !
 ! D101  D(28,26,29,39)          1.6158                                         !
 ! D102  D(25,27,30,31)          0.2854                                         !
 ! D103  D(25,27,30,40)        179.4213                                         !
 ! D104  D(38,27,30,31)       -179.3054                                         !
 ! D105  D(38,27,30,40)         -0.1695                                         !
 ! D106  D(26,29,31,30)         -0.0407                                         !
 ! D107  D(26,29,31,41)       -179.3285                                         !
 ! D108  D(39,29,31,30)        179.2041                                         !
 ! D109  D(39,29,31,41)         -0.0837                                         !
 ! D110  D(27,30,31,29)         -0.0771                                         !
 ! D111  D(27,30,31,41)        179.2107                                         !
 ! D112  D(40,30,31,29)       -179.2175                                         !
 ! D113  D(40,30,31,41)          0.0703                                         !
 ! D114  D(20,42,43,44)        -81.5451                                         !
 ! D115  D(20,42,43,46)        156.2205                                         !
 ! D116  D(20,42,43,51)         40.9555                                         !
 ! D117  D(50,42,43,44)         59.0771                                         !
 ! D118  D(50,42,43,46)        -63.1572                                         !
 ! D119  D(50,42,43,51)       -178.4223                                         !
 ! D120  D(42,43,44,45)        -31.268                                          !
 ! D121  D(42,43,44,56)        148.8719                                         !
 ! D122  D(46,43,44,45)         90.0427                                         !
 ! D123  D(46,43,44,56)        -89.8173                                         !
 ! D124  D(51,43,44,45)       -151.7702                                         !
 ! D125  D(51,43,44,56)         28.3697                                         !
 ! D126  D(42,43,46,47)         66.8505                                         !
 ! D127  D(42,43,46,48)       -170.296                                          !
 ! D128  D(42,43,46,52)        -55.4993                                         !
 ! D129  D(44,43,46,47)        -54.1168                                         !
 ! D130  D(44,43,46,48)         68.7367                                         !
 ! D131  D(44,43,46,52)       -176.4666                                         !
 ! D132  D(51,43,46,47)       -176.0128                                         !
 ! D133  D(51,43,46,48)        -53.1594                                         !
 ! D134  D(51,43,46,52)         61.6374                                         !
 ! D135  D(43,44,56,57)        -10.3783                                         !
 ! D136  D(43,44,56,69)       -173.087                                          !
 ! D137  D(45,44,56,57)        169.7631                                         !
 ! D138  D(45,44,56,69)          7.0545                                         !
 ! D139  D(43,46,47,53)        178.9855                                         !
 ! D140  D(43,46,47,54)         58.1659                                         !
 ! D141  D(43,46,47,55)        -62.8301                                         !
 ! D142  D(48,46,47,53)         59.3545                                         !
 ! D143  D(48,46,47,54)        -61.4652                                         !
 ! D144  D(48,46,47,55)        177.5388                                         !
 ! D145  D(52,46,47,53)        -60.8013                                         !
 ! D146  D(52,46,47,54)        178.3791                                         !
 ! D147  D(52,46,47,55)         57.3831                                         !
 ! D148  D(43,46,48,49)        174.4227                                         !
 ! D149  D(47,46,48,49)        -59.9159                                         !
 ! D150  D(52,46,48,49)         61.2276                                         !
 ! D151  D(44,56,57,58)        116.7059                                         !
 ! D152  D(44,56,57,60)        -11.4675                                         !
 ! D153  D(44,56,57,70)       -130.435                                          !
 ! D154  D(69,56,57,58)        -80.7909                                         !
 ! D155  D(69,56,57,60)        151.0357                                         !
 ! D156  D(69,56,57,70)         32.0682                                         !
 ! D157  D(56,57,58,59)        129.6001                                         !
 ! D158  D(56,57,58,67)        -52.0916                                         !
 ! D159  D(60,57,58,59)        -98.5985                                         !
 ! D160  D(60,57,58,67)         79.7098                                         !
 ! D161  D(70,57,58,59)         18.0878                                         !
 ! D162  D(70,57,58,67)       -163.6038                                         !
 ! D163  D(56,57,60,61)       -168.6613                                         !
 ! D164  D(56,57,60,71)         68.2099                                         !
 ! D165  D(56,57,60,72)        -47.0655                                         !
 ! D166  D(58,57,60,61)         62.9793                                         !
 ! D167  D(58,57,60,71)        -60.1494                                         !
 ! D168  D(58,57,60,72)       -175.4249                                         !
 ! D169  D(70,57,60,61)        -52.1641                                         !
 ! D170  D(70,57,60,71)       -175.2929                                         !
 ! D171  D(70,57,60,72)         69.4317                                         !
 ! D172  D(57,58,67,68)         -0.5224                                         !
 ! D173  D(59,58,67,68)        177.7872                                         !
 ! D174  D(57,60,61,62)         27.2139                                         !
 ! D175  D(57,60,61,73)        152.7764                                         !
 ! D176  D(57,60,61,74)        -94.4613                                         !
 ! D177  D(71,60,61,62)        151.8869                                         !
 ! D178  D(71,60,61,73)        -82.5506                                         !
 ! D179  D(71,60,61,74)         30.2117                                         !
 ! D180  D(72,60,61,62)        -94.4047                                         !
 ! D181  D(72,60,61,73)         31.1578                                         !
 ! D182  D(72,60,61,74)        143.9201                                         !
 ! D183  D(60,61,62,63)         41.5975                                         !
 ! D184  D(60,61,62,75)        162.727                                          !
 ! D185  D(60,61,62,76)        -81.229                                          !
 ! D186  D(73,61,62,63)        -82.6937                                         !
 ! D187  D(73,61,62,75)         38.4358                                         !
 ! D188  D(73,61,62,76)        154.4798                                         !
 ! D189  D(74,61,62,63)        165.5364                                         !
 ! D190  D(74,61,62,75)        -73.3342                                         !
 ! D191  D(74,61,62,76)         42.7099                                         !
 ! D192  D(61,62,63,64)       -136.2067                                         !
 ! D193  D(61,62,63,77)         45.1742                                         !
 ! D194  D(75,62,63,64)        102.3144                                         !
 ! D195  D(75,62,63,77)        -76.3048                                         !
 ! D196  D(76,62,63,64)        -12.1938                                         !
 ! D197  D(76,62,63,77)        169.1871                                         !
 ! D198  D(62,63,64,65)         26.2773                                         !
 ! D199  D(62,63,64,66)       -153.9269                                         !
 ! D200  D(77,63,64,65)       -155.0563                                         !
 ! D201  D(77,63,64,66)         24.7395                                         !
 ! D202  D(63,64,65,78)       -172.6357                                         !
 ! D203  D(63,64,65,79)         22.1745                                         !
 ! D204  D(66,64,65,78)          7.5724                                         !
 ! D205  D(66,64,65,79)       -157.6173                                         !
 ! D206  D(63,64,66,80)         35.9115                                         !
 ! D207  D(63,64,66,81)        173.8604                                         !
 ! D208  D(65,64,66,80)       -144.289                                          !
 ! D209  D(65,64,66,81)         -6.3401                                         !
 --------------------------------------------------------------------------------
 Symmetry turned off by external request.
 Stoichiometry    C26H39N8O8(1+)
 Framework group  C1[X(C26H39N8O8)]
 Deg. of freedom   237
 Full point group                 C1      NOp   1
                          Input orientation:                          
 ---------------------------------------------------------------------
 Center     Atomic      Atomic             Coordinates (Angstroms)
 Number     Number       Type             X           Y           Z
 ---------------------------------------------------------------------
      1          7           0       10.780448   32.631511   10.149423
      2          6           0       12.160903   33.118193   10.446593
      3          6           0       13.282897   32.062274   10.354029
      4          8           0       14.285187   32.318543    9.707054
      5          6           0       12.259125   33.795241   11.834877
      6          6           0       11.767886   35.259250   11.910413
      7          6           0       10.411152   35.412984   11.281203
      8          8           0        9.344374   35.113772   11.803788
      9          8           0       10.488114   35.865026   10.022905
     10          1           0        9.585873   35.796389    9.642462
     11          1           0       12.433383   33.844979    9.676779
     12          1           0       11.715789   33.205636   12.576229
     13          1           0       13.305111   33.789652   12.156453
     14          1           0       12.474992   35.916098   11.397970
     15          1           0       11.703049   35.548283   12.963306
     16          1           0       10.830601   31.700687    9.733261
     17          1           0       10.279115   32.522258   11.025441
     18          7           0       13.161854   30.851071   11.005942
     19          6           0       12.231841   30.448329   12.042785
     20          6           0       12.792191   30.746216   13.447205
     21          8           0       13.975887   30.971891   13.618827
     22          6           0       11.911499   28.938119   11.890864
     23          6           0       11.057650   28.639248   10.694008
     24          6           0       11.385702   28.790546    9.365915
     25          6           0        9.702686   28.145873   10.726976
     26          6           0        9.265339   28.021245    9.377619
     27          6           0        8.817995   27.791676   11.761832
     28          7           0       10.307069   28.438464    8.573934
     29          6           0        7.984331   27.563747    9.045978
     30          6           0        7.544966   27.339520   11.437624
     31          6           0        7.132700   27.226025   10.092224
     32          1           0       14.056974   30.371162   11.042413
     33          1           0       11.310601   31.006278   11.901666
     34          1           0       11.410536   28.582081   12.797127
     35          1           0       12.867400   28.399987   11.854201
     36          1           0       12.314244   29.116029    8.919456
     37          1           0       10.338022   28.346766    7.569508
     38          1           0        9.126218   27.863497   12.802357
     39          1           0        7.670976   27.464094    8.010373
     40          1           0        6.857046   27.054402   12.228407
     41          1           0        6.135833   26.857257    9.869692
     42          7           0       11.906194   30.671946   14.511881
     43          6           0       10.463265   30.849019   14.413877
     44          6           0       10.137254   32.358871   14.398813
     45          8           0       10.883535   33.110370   15.018691
     46          6           0        9.767777   30.136456   15.596206
     47          6           0       10.036799   30.732403   16.972238
     48          8           0        8.354480   30.171139   15.280078
     49          1           0        7.878111   29.655813   15.952009
     50          1           0       12.316959   31.091855   15.340693
     51          1           0       10.110533   30.347436   13.518475
     52          1           0       10.105099   29.092399   15.564541
     53          1           0        9.487005   30.169533   17.735200
     54          1           0        9.734750   31.781703   17.019050
     55          1           0       11.098557   30.666879   17.229545
     56          7           0        9.062463   32.892839   13.734350
     57          6           0        8.045874   32.471939   12.765006
     58          6           0        6.639453   32.552619   13.377635
     59          8           0        5.726668   33.129752   12.797379
     60          6           0        8.251958   31.118597   12.070455
     61          6           0        7.334264   30.806320   10.866413
     62          6           0        6.738405   31.936536   10.010882
     63          7           0        7.615040   33.081489    9.665257
     64          6           0        7.212573   34.355446    9.729374
     65          7           0        6.245098   34.742184   10.549396
     66          7           0        7.834990   35.272507    8.917714
     67          8           0        6.438871   31.950511   14.533191
     68          1           0        7.262419   31.500919   14.857373
     69          1           0        9.122335   33.907999   13.774379
     70          1           0        8.080192   33.249197   12.007041
     71          1           0        8.141614   30.301919   12.786085
     72          1           0        9.285276   31.073702   11.723790
     73          1           0        7.887578   30.119329   10.222811
     74          1           0        6.467601   30.231180   11.208598
     75          1           0        6.398497   31.495994    9.066448
     76          1           0        5.860700   32.342838   10.506274
     77          1           0        8.571549   32.919113    9.339891
     78          1           0        5.879512   35.683472   10.505245
     79          1           0        6.005661   34.179241   11.387995
     80          1           0        8.106353   34.940062    7.998289
     81          1           0        7.454128   36.212652    8.909038
 ---------------------------------------------------------------------
 Rotational constants (GHZ):           0.0876850           0.0825435           0.0764481
 Standard basis: 6-31G(d) (6D, 7F)
   708 basis functions,  1332 primitive gaussians,   708 cartesian basis functions
   157 alpha electrons      157 beta electrons
       nuclear repulsion energy      5882.9594491276 Hartrees.
 NAtoms=   81 NActive=   81 NUniq=   81 SFac= 1.00D+00 NAtFMM=   60 NAOKFM=T Big=T
 Integral buffers will be    131072 words long.
 Raffenetti 2 integral format.
 Two-electron integral symmetry is turned off.
 Nuclear repulsion after empirical dispersion term =     5882.8199136747 Hartrees.
 One-electron integrals computed using PRISM.
 NBasis=   708 RedAO= T EigKep=  3.66D-04  NBF=   708
 NBsUse=   708 1.00D-06 EigRej= -1.00D+00 NBFU=   708
 Initial guess from the checkpoint file:  "conf-472.chk"
 B after Tr=     0.000000    0.000000    0.000000
         Rot=    1.000000    0.000000    0.000000    0.000000 Ang=   0.00 deg.
 Requested convergence on RMS density matrix=1.00D-08 within 128 cycles.
 Requested convergence on MAX density matrix=1.00D-06.
 Requested convergence on             energy=1.00D-06.
 No special actions if energy rises.
 SCF Done:  E(RB3LYP) =  -2054.04117164     A.U. after    1 cycles
            NFock=  1  Conv=0.50D-08     -V/T= 2.0093

 **********************************************************************

            Population analysis using the SCF Density.

 **********************************************************************

 Alpha  occ. eigenvalues --  -19.29814 -19.29435 -19.29190 -19.25737 -19.24672
 Alpha  occ. eigenvalues --  -19.22209 -19.21095 -19.19560 -14.53674 -14.52286
 Alpha  occ. eigenvalues --  -14.51800 -14.47488 -14.47356 -14.45451 -14.44486
 Alpha  occ. eigenvalues --  -14.44002 -10.49066 -10.43650 -10.42606 -10.39999
 Alpha  occ. eigenvalues --  -10.38153 -10.37162 -10.36561 -10.35961 -10.35813
 Alpha  occ. eigenvalues --  -10.34934 -10.33562 -10.32150 -10.31626 -10.31397
 Alpha  occ. eigenvalues --  -10.31271 -10.30944 -10.29584 -10.29484 -10.29340
 Alpha  occ. eigenvalues --  -10.28313 -10.28174 -10.28132 -10.28000 -10.27903
 Alpha  occ. eigenvalues --  -10.27696 -10.27448  -1.21504  -1.20962  -1.17325
 Alpha  occ. eigenvalues --   -1.15828  -1.14607  -1.13149  -1.13069  -1.11701
 Alpha  occ. eigenvalues --   -1.11661  -1.07323  -1.06584  -1.05503  -1.03480
 Alpha  occ. eigenvalues --   -1.02345  -1.01524  -0.99656  -0.93341  -0.92474
 Alpha  occ. eigenvalues --   -0.90080  -0.89318  -0.88804  -0.87318  -0.85300
 Alpha  occ. eigenvalues --   -0.82901  -0.82719  -0.81453  -0.81171  -0.80909
 Alpha  occ. eigenvalues --   -0.78783  -0.76319  -0.74967  -0.74390  -0.73853
 Alpha  occ. eigenvalues --   -0.73074  -0.72647  -0.71527  -0.70657  -0.69710
 Alpha  occ. eigenvalues --   -0.69122  -0.68713  -0.68075  -0.67149  -0.66180
 Alpha  occ. eigenvalues --   -0.65789  -0.65423  -0.65189  -0.63819  -0.63195
 Alpha  occ. eigenvalues --   -0.63031  -0.61763  -0.60987  -0.60419  -0.59878
 Alpha  occ. eigenvalues --   -0.58835  -0.58778  -0.58410  -0.58170  -0.57658
 Alpha  occ. eigenvalues --   -0.57477  -0.56970  -0.56606  -0.56432  -0.56050
 Alpha  occ. eigenvalues --   -0.55910  -0.55614  -0.55267  -0.54477  -0.54076
 Alpha  occ. eigenvalues --   -0.53777  -0.53392  -0.52602  -0.52490  -0.52021
 Alpha  occ. eigenvalues --   -0.51448  -0.51079  -0.50992  -0.50875  -0.50375
 Alpha  occ. eigenvalues --   -0.50137  -0.49648  -0.49421  -0.48861  -0.48699
 Alpha  occ. eigenvalues --   -0.48373  -0.48078  -0.47672  -0.47244  -0.47085
 Alpha  occ. eigenvalues --   -0.46803  -0.46635  -0.45921  -0.45460  -0.45134
 Alpha  occ. eigenvalues --   -0.44873  -0.44645  -0.44386  -0.43704  -0.42790
 Alpha  occ. eigenvalues --   -0.42672  -0.42424  -0.41949  -0.41222  -0.40752
 Alpha  occ. eigenvalues --   -0.40161  -0.38472  -0.37212  -0.36724  -0.36498
 Alpha  occ. eigenvalues --   -0.36124  -0.35481  -0.35035  -0.33582  -0.32510
 Alpha  occ. eigenvalues --   -0.31752  -0.29688
 Alpha virt. eigenvalues --   -0.14853  -0.11524  -0.10738  -0.10052  -0.09578
 Alpha virt. eigenvalues --   -0.09024  -0.08200  -0.07216  -0.06845  -0.05529
 Alpha virt. eigenvalues --   -0.04398  -0.04054  -0.03734  -0.02561  -0.01987
 Alpha virt. eigenvalues --   -0.01485  -0.00790  -0.00712  -0.00074   0.00305
 Alpha virt. eigenvalues --    0.00663   0.00868   0.02306   0.02632   0.02864
 Alpha virt. eigenvalues --    0.03376   0.03605   0.03980   0.04617   0.04849
 Alpha virt. eigenvalues --    0.05124   0.05494   0.05731   0.05884   0.06599
 Alpha virt. eigenvalues --    0.06719   0.06789   0.06838   0.07702   0.07951
 Alpha virt. eigenvalues --    0.08003   0.08219   0.08842   0.08985   0.09163
 Alpha virt. eigenvalues --    0.09186   0.09528   0.09839   0.10306   0.10587
 Alpha virt. eigenvalues --    0.10841   0.11121   0.11443   0.11679   0.11984
 Alpha virt. eigenvalues --    0.12480   0.13328   0.13655   0.13998   0.14125
 Alpha virt. eigenvalues --    0.14570   0.15330   0.15930   0.16344   0.16902
 Alpha virt. eigenvalues --    0.17037   0.17593   0.18388   0.18907   0.19346
 Alpha virt. eigenvalues --    0.19753   0.20913   0.21615   0.22434   0.23011
 Alpha virt. eigenvalues --    0.23276   0.24427   0.24798   0.25168   0.25727
 Alpha virt. eigenvalues --    0.27104   0.27881   0.28317   0.29309   0.30120
 Alpha virt. eigenvalues --    0.31052   0.31416   0.32005   0.33105   0.35224
 Alpha virt. eigenvalues --    0.35580   0.36614   0.38376   0.38744   0.39472
 Alpha virt. eigenvalues --    0.40567   0.40709   0.40949   0.41704   0.42288
 Alpha virt. eigenvalues --    0.43016   0.43104   0.43515   0.44057   0.44641
 Alpha virt. eigenvalues --    0.44840   0.45479   0.45627   0.45837   0.46120
 Alpha virt. eigenvalues --    0.46822   0.47007   0.47210   0.47480   0.47838
 Alpha virt. eigenvalues --    0.48233   0.48555   0.49348   0.49947   0.50014
 Alpha virt. eigenvalues --    0.50248   0.50522   0.50982   0.51261   0.51919
 Alpha virt. eigenvalues --    0.52135   0.52347   0.52965   0.53130   0.53532
 Alpha virt. eigenvalues --    0.54177   0.54657   0.55251   0.55670   0.56020
 Alpha virt. eigenvalues --    0.56270   0.56277   0.56389   0.56758   0.57452
 Alpha virt. eigenvalues --    0.57956   0.58423   0.59036   0.59850   0.60372
 Alpha virt. eigenvalues --    0.60621   0.60790   0.61448   0.62195   0.63049
 Alpha virt. eigenvalues --    0.63563   0.63799   0.64878   0.65549   0.65707
 Alpha virt. eigenvalues --    0.66144   0.67452   0.67625   0.68250   0.68555
 Alpha virt. eigenvalues --    0.68701   0.69406   0.69953   0.70128   0.70722
 Alpha virt. eigenvalues --    0.70929   0.71398   0.71822   0.72424   0.72795
 Alpha virt. eigenvalues --    0.73014   0.73678   0.73857   0.74106   0.74345
 Alpha virt. eigenvalues --    0.74554   0.75053   0.75165   0.75650   0.76100
 Alpha virt. eigenvalues --    0.76249   0.76586   0.76881   0.77030   0.77472
 Alpha virt. eigenvalues --    0.77596   0.77731   0.78087   0.78408   0.78792
 Alpha virt. eigenvalues --    0.79307   0.79835   0.80112   0.80881   0.81108
 Alpha virt. eigenvalues --    0.81307   0.81488   0.82004   0.82775   0.82941
 Alpha virt. eigenvalues --    0.83403   0.83493   0.84802   0.85233   0.85604
 Alpha virt. eigenvalues --    0.86029   0.86763   0.87180   0.87657   0.88167
 Alpha virt. eigenvalues --    0.88388   0.88688   0.88744   0.89714   0.90425
 Alpha virt. eigenvalues --    0.90999   0.91289   0.92070   0.92382   0.92699
 Alpha virt. eigenvalues --    0.93356   0.93751   0.94523   0.94897   0.96289
 Alpha virt. eigenvalues --    0.97345   0.97430   0.97892   0.98652   0.98957
 Alpha virt. eigenvalues --    0.99517   1.00081   1.00749   1.00851   1.01565
 Alpha virt. eigenvalues --    1.02181   1.02526   1.03397   1.03483   1.04246
 Alpha virt. eigenvalues --    1.04481   1.05168   1.05317   1.06207   1.06622
 Alpha virt. eigenvalues --    1.07232   1.07942   1.08872   1.09741   1.10014
 Alpha virt. eigenvalues --    1.11329   1.11570   1.11885   1.12629   1.13001
 Alpha virt. eigenvalues --    1.14785   1.15084   1.16119   1.16950   1.18107
 Alpha virt. eigenvalues --    1.19002   1.19351   1.19750   1.20868   1.21113
 Alpha virt. eigenvalues --    1.22726   1.23314   1.23796   1.24880   1.25136
 Alpha virt. eigenvalues --    1.25472   1.26139   1.27293   1.27980   1.28047
 Alpha virt. eigenvalues --    1.28443   1.29938   1.30361   1.31164   1.32004
 Alpha virt. eigenvalues --    1.32164   1.32823   1.33231   1.34094   1.35324
 Alpha virt. eigenvalues --    1.36486   1.36856   1.36995   1.37860   1.38816
 Alpha virt. eigenvalues --    1.38871   1.40184   1.40377   1.41014   1.41709
 Alpha virt. eigenvalues --    1.41979   1.43625   1.44461   1.45036   1.45436
 Alpha virt. eigenvalues --    1.46392   1.47457   1.47794   1.48758   1.49088
 Alpha virt. eigenvalues --    1.49337   1.50930   1.52025   1.53679   1.53801
 Alpha virt. eigenvalues --    1.54418   1.55096   1.55922   1.56080   1.57713
 Alpha virt. eigenvalues --    1.58558   1.59167   1.59541   1.60294   1.61011
 Alpha virt. eigenvalues --    1.61368   1.62187   1.62662   1.62998   1.64429
 Alpha virt. eigenvalues --    1.64770   1.65196   1.65647   1.66092   1.66800
 Alpha virt. eigenvalues --    1.68070   1.68519   1.69436   1.69599   1.70050
 Alpha virt. eigenvalues --    1.70258   1.70736   1.71147   1.71247   1.71935
 Alpha virt. eigenvalues --    1.72230   1.72633   1.73374   1.73885   1.74439
 Alpha virt. eigenvalues --    1.74797   1.75657   1.75938   1.76133   1.76459
 Alpha virt. eigenvalues --    1.77562   1.78259   1.78683   1.78942   1.79895
 Alpha virt. eigenvalues --    1.80485   1.80714   1.81018   1.81967   1.82395
 Alpha virt. eigenvalues --    1.82657   1.83443   1.84073   1.84468   1.85356
 Alpha virt. eigenvalues --    1.85922   1.86383   1.87108   1.87310   1.87608
 Alpha virt. eigenvalues --    1.87941   1.88843   1.89196   1.90029   1.90363
 Alpha virt. eigenvalues --    1.91204   1.92673   1.92707   1.92892   1.93579
 Alpha virt. eigenvalues --    1.94978   1.95381   1.95814   1.96515   1.97248
 Alpha virt. eigenvalues --    1.97864   1.98490   1.98623   1.99101   1.99694
 Alpha virt. eigenvalues --    2.00062   2.00662   2.01109   2.02030   2.02889
 Alpha virt. eigenvalues --    2.03291   2.04485   2.04756   2.05365   2.06165
 Alpha virt. eigenvalues --    2.07148   2.07538   2.09132   2.09252   2.09790
 Alpha virt. eigenvalues --    2.10143   2.10878   2.12689   2.13530   2.14293
 Alpha virt. eigenvalues --    2.14869   2.15933   2.16150   2.17177   2.17575
 Alpha virt. eigenvalues --    2.17775   2.19245   2.20080   2.20429   2.21297
 Alpha virt. eigenvalues --    2.21472   2.22841   2.23831   2.24619   2.25523
 Alpha virt. eigenvalues --    2.26319   2.27413   2.29147   2.29543   2.30168
 Alpha virt. eigenvalues --    2.30717   2.31038   2.32059   2.32407   2.32693
 Alpha virt. eigenvalues --    2.32956   2.35020   2.35989   2.36961   2.37704
 Alpha virt. eigenvalues --    2.37845   2.38823   2.39755   2.41463   2.41889
 Alpha virt. eigenvalues --    2.42029   2.42351   2.43264   2.43865   2.44981
 Alpha virt. eigenvalues --    2.45353   2.45907   2.46661   2.46902   2.48553
 Alpha virt. eigenvalues --    2.48726   2.50270   2.50694   2.52323   2.52597
 Alpha virt. eigenvalues --    2.53298   2.54722   2.54941   2.55445   2.55803
 Alpha virt. eigenvalues --    2.56725   2.57946   2.58414   2.58944   2.60019
 Alpha virt. eigenvalues --    2.60680   2.61404   2.61664   2.63676   2.64882
 Alpha virt. eigenvalues --    2.65248   2.67249   2.68007   2.68778   2.69554
 Alpha virt. eigenvalues --    2.69946   2.70669   2.70947   2.72487   2.74428
 Alpha virt. eigenvalues --    2.75509   2.76995   2.77641   2.78277   2.83063
 Alpha virt. eigenvalues --    2.84518   2.89040   2.90182   2.91493   2.91720
 Alpha virt. eigenvalues --    2.92072   2.92691   2.93443   2.93867   2.94452
 Alpha virt. eigenvalues --    2.96801   2.98040   2.98959   3.03658   3.04410
 Alpha virt. eigenvalues --    3.08545   3.10803   3.15834   3.34874   3.71772
 Alpha virt. eigenvalues --    3.75065   3.78352   3.82055   3.83282   3.88702
 Alpha virt. eigenvalues --    3.89829   3.96286   3.96541   3.97691   3.99570
 Alpha virt. eigenvalues --    4.01481   4.02427   4.06371   4.06899   4.07304
 Alpha virt. eigenvalues --    4.07639   4.09188   4.12911   4.14290   4.15566
 Alpha virt. eigenvalues --    4.16077   4.20045   4.23858   4.24363   4.28882
 Alpha virt. eigenvalues --    4.29177   4.29659   4.30545   4.32971   4.36964
 Alpha virt. eigenvalues --    4.38489   4.40371   4.46335   4.47703   4.50302
 Alpha virt. eigenvalues --    4.53734   4.61092   4.65366   4.68282   4.70238
 Alpha virt. eigenvalues --    4.71925
          Condensed to atoms (all electrons):
 Mulliken charges:
               1
     1  N   -0.809049
     2  C   -0.033170
     3  C    0.549799
     4  O   -0.477370
     5  C   -0.334879
     6  C   -0.338177
     7  C    0.582238
     8  O   -0.521328
     9  O   -0.563419
    10  H    0.441252
    11  H    0.192291
    12  H    0.165325
    13  H    0.212511
    14  H    0.193999
    15  H    0.200088
    16  H    0.329890
    17  H    0.328044
    18  N   -0.580302
    19  C   -0.066844
    20  C    0.605182
    21  O   -0.473264
    22  C   -0.374269
    23  C    0.070153
    24  C   -0.009184
    25  C    0.065673
    26  C    0.306518
    27  C   -0.218113
    28  N   -0.689645
    29  C   -0.174121
    30  C   -0.147308
    31  C   -0.152175
    32  H    0.349707
    33  H    0.113601
    34  H    0.166533
    35  H    0.182984
    36  H    0.183069
    37  H    0.342430
    38  H    0.128289
    39  H    0.142507
    40  H    0.138636
    41  H    0.147015
    42  N   -0.590439
    43  C   -0.098496
    44  C    0.611725
    45  O   -0.509055
    46  C    0.122519
    47  C   -0.481926
    48  O   -0.659733
    49  H    0.428972
    50  H    0.357337
    51  H    0.171116
    52  H    0.167636
    53  H    0.163750
    54  H    0.192131
    55  H    0.179493
    56  N   -0.634366
    57  C   -0.086845
    58  C    0.643896
    59  O   -0.497505
    60  C   -0.334352
    61  C   -0.310206
    62  C   -0.172571
    63  N   -0.608533
    64  C    0.772573
    65  N   -0.756229
    66  N   -0.797004
    67  O   -0.565633
    68  H    0.462672
    69  H    0.365406
    70  H    0.201243
    71  H    0.198167
    72  H    0.151572
    73  H    0.193099
    74  H    0.187986
    75  H    0.191992
    76  H    0.204995
    77  H    0.381164
    78  H    0.371444
    79  H    0.442577
    80  H    0.385658
    81  H    0.378650
 Sum of Mulliken charges =   1.00000
 Mulliken charges with hydrogens summed into heavy atoms:
               1
     1  N   -0.151115
     2  C    0.159121
     3  C    0.549799
     4  O   -0.477370
     5  C    0.042957
     6  C    0.055910
     7  C    0.582238
     8  O   -0.521328
     9  O   -0.122167
    18  N   -0.230595
    19  C    0.046757
    20  C    0.605182
    21  O   -0.473264
    22  C   -0.024753
    23  C    0.070153
    24  C    0.173885
    25  C    0.065673
    26  C    0.306518
    27  C   -0.089824
    28  N   -0.347215
    29  C   -0.031614
    30  C   -0.008672
    31  C   -0.005160
    42  N   -0.233101
    43  C    0.072620
    44  C    0.611725
    45  O   -0.509055
    46  C    0.290155
    47  C    0.053448
    48  O   -0.230760
    56  N   -0.268960
    57  C    0.114398
    58  C    0.643896
    59  O   -0.497505
    60  C    0.015387
    61  C    0.070879
    62  C    0.224416
    63  N   -0.227369
    64  C    0.772573
    65  N    0.057792
    66  N   -0.032696
    67  O   -0.102961
 Electronic spatial extent (au):  <R**2>=        1399413.5643
 Charge=              1.0000 electrons
 Dipole moment (field-independent basis, Debye):
    X=             35.8737    Y=            154.6978    Z=             50.6441  Tot=            166.6828
 Quadrupole moment (field-independent basis, Debye-Ang):
   XX=             -3.0491   YY=           4793.9490   ZZ=            345.5754
   XY=           1138.4854   XZ=            386.3004   YZ=           1606.2467
 Traceless Quadrupole moment (field-independent basis, Debye-Ang):
   XX=          -1715.2075   YY=           3081.7906   ZZ=          -1366.5831
   XY=           1138.4854   XZ=            386.3004   YZ=           1606.2467
 Octapole moment (field-independent basis, Debye-Ang**2):
  XXX=          -6039.3571  YYY=         142884.5390  ZZZ=          -1073.5177  XYY=          34185.3755
  XXY=           -227.4185  XXZ=           -248.2256  XZZ=           2254.3935  YZZ=          10620.8087
  YYZ=          48617.8669  XYZ=          12087.2312
 Hexadecapole moment (field-independent basis, Debye-Ang**3):
 XXXX=        -152635.2801 YYYY=        4066553.9107 ZZZZ=        -105059.4690 XXXY=        -193524.8098
 XXXZ=         -72356.9354 YYYX=         964570.3372 YYYZ=        1398062.7356 ZZZX=         -23156.1133
 ZZZY=         -42524.0464 XXYY=         -33664.3673 XXZZ=         -27104.5234 YYZZ=         295271.4720
 XXYZ=         -10250.4537 YYXZ=         354234.5739 ZZXY=          67268.3567
 N-N= 5.882819913675D+03 E-N=-1.652036090749D+04  KE= 2.035211032594D+03
 Unable to Open any file for archive entry.
 1\1\GINC-LAC-313\SP\RB3LYP\6-31G(d)\C26H39N8O8(1+)\KENGMITH\27-May-202
 2\0\\# B3LYP/6-31G* empiricaldispersion=gd3 guess=read geom=check nosy
 mm integral(ultrafinegrid)\\Candidate Structure: Conf:472 Charge calc 
 in gas phase\\1,1\N,0,10.7804482309,32.6315113494,10.1494228071\C,0,12
 .1609031126,33.1181926049,10.4465929375\C,0,13.2828968202,32.062273941
 1,10.3540294535\O,0,14.2851868685,32.3185425263,9.7070543364\C,0,12.25
 91251541,33.7952413337,11.8348772554\C,0,11.7678856055,35.2592497266,1
 1.9104132976\C,0,10.4111524503,35.4129835405,11.2812032865\O,0,9.34437
 39453,35.113771928,11.8037880207\O,0,10.4881135386,35.8650258807,10.02
 2904889\H,0,9.5858734372,35.7963887609,9.6424621088\H,0,12.4333827081,
 33.844978827,9.6767792087\H,0,11.7157891228,33.2056355811,12.576228981
 1\H,0,13.305110707,33.7896522585,12.1564532606\H,0,12.4749920806,35.91
 60979171,11.3979702598\H,0,11.7030493356,35.5482834519,12.9633060605\H
 ,0,10.8306013616,31.7006873605,9.7332611145\H,0,10.279115496,32.522257
 8502,11.0254410629\N,0,13.1618542567,30.851070799,11.0059422982\C,0,12
 .231841341,30.4483293846,12.0427846866\C,0,12.7921910794,30.7462155978
 ,13.4472049421\O,0,13.9758869158,30.9718911696,13.6188268128\C,0,11.91
 14993524,28.9381185803,11.8908635564\C,0,11.0576500075,28.6392475185,1
 0.6940082782\C,0,11.3857024183,28.7905460404,9.3659145789\C,0,9.702685
 685,28.1458732237,10.7269760729\C,0,9.2653387647,28.0212446378,9.37761
 85079\C,0,8.8179948598,27.7916761538,11.7618315291\N,0,10.3070688541,2
 8.4384638091,8.5739341596\C,0,7.9843307259,27.5637473652,9.0459775897\
 C,0,7.5449661803,27.3395201669,11.4376242525\C,0,7.1326996684,27.22602
 48546,10.0922236673\H,0,14.056973941,30.3711624985,11.0424126986\H,0,1
 1.3106005306,31.0062782098,11.9016655529\H,0,11.4105355913,28.58208091
 34,12.7971265972\H,0,12.867399718,28.399987166,11.8542012951\H,0,12.31
 42439851,29.1160286417,8.919456141\H,0,10.3380221192,28.3467662029,7.5
 695083262\H,0,9.1262184386,27.8634973716,12.8023573429\H,0,7.670976286
 ,27.4640943975,8.0103731365\H,0,6.8570459207,27.0544024779,12.22840712
 87\H,0,6.1358328515,26.85725694,9.869691569\N,0,11.9061938905,30.67194
 61169,14.5118808786\C,0,10.4632654828,30.8490192963,14.4138769076\C,0,
 10.1372535078,32.3588713417,14.3988129429\O,0,10.8835347276,33.1103698
 141,15.0186909925\C,0,9.7677774751,30.1364562269,15.5962058813\C,0,10.
 0367992971,30.7324034309,16.9722377383\O,0,8.3544797408,30.1711393297,
 15.2800783462\H,0,7.8781111574,29.6558133204,15.9520094473\H,0,12.3169
 585986,31.0918552436,15.3406925032\H,0,10.1105328472,30.3474356001,13.
 5184754424\H,0,10.1050991681,29.0923990034,15.5645411447\H,0,9.4870048
 076,30.1695326493,17.7352004125\H,0,9.7347503205,31.7817030428,17.0190
 503033\H,0,11.0985570323,30.6668790085,17.2295452974\N,0,9.0624627014,
 32.8928392377,13.7343501193\C,0,8.0458735207,32.4719388071,12.76500561
 88\C,0,6.6394531594,32.5526193609,13.3776345325\O,0,5.7266682358,33.12
 9752013,12.7973785667\C,0,8.2519575212,31.1185969894,12.0704547609\C,0
 ,7.3342643426,30.8063203488,10.8664127255\C,0,6.7384053062,31.93653554
 52,10.0108819642\N,0,7.6150397044,33.0814891604,9.6652570947\C,0,7.212
 5727507,34.3554457915,9.7293738819\N,0,6.2450976042,34.7421837205,10.5
 493963494\N,0,7.8349897793,35.2725072848,8.9177140728\O,0,6.4388711397
 ,31.9505107386,14.5331906517\H,0,7.2624185402,31.5009193663,14.8573729
 376\H,0,9.1223351036,33.9079990994,13.7743785554\H,0,8.0801919079,33.2
 491968918,12.0070411438\H,0,8.1416143912,30.301918613,12.7860845594\H,
 0,9.2852760976,31.0737022535,11.7237897644\H,0,7.8875775236,30.1193291
 104,10.2228112225\H,0,6.4676009327,30.2311796961,11.2085983163\H,0,6.3
 984970334,31.4959939223,9.066448036\H,0,5.8607002021,32.3428380219,10.
 5062741855\H,0,8.5715493286,32.919113224,9.3398914486\H,0,5.8795122039
 ,35.683472461,10.5052448933\H,0,6.0056613102,34.1792411172,11.38799503
 37\H,0,8.1063530153,34.9400616728,7.9982892052\H,0,7.4541276845,36.212
 6519288,8.909037501\\Version=ES64L-G16RevC.01\HF=-2054.0411716\RMSD=5.
 006e-09\Dipole=-4.3038715,1.2124325,-2.4536127\Quadrupole=-1275.214754
 8,2291.2357625,-1016.0210077,846.4360245,287.2049082,1194.2050623\PG=C
 01 [X(C26H39N8O8)]\\@
 The archive entry for this job was punched.


 YOU CAN LEAD A BOY TO COLLEGE....
 BUT YOU CANNOT MAKE HIM THINK....
           ELBERT HUBBARD
 Job cpu time:       0 days  0 hours  3 minutes 30.5 seconds.
 Elapsed time:       0 days  0 hours  0 minutes 53.6 seconds.
 File lengths (MBytes):  RWF=    376 Int=      0 D2E=      0 Chk=     56 Scr=     16
 Normal termination of Gaussian 16 at Fri May 27 05:12:57 2022.
