 Entering Gaussian System, Link 0=/opt/software/Gaussian/g16-AVX2-C.01/g16/g16
 Input=charge-conf-883.com
 Output=charge-conf-883.log
 Initial command:
 /opt/software/Gaussian/g16-AVX2-C.01/g16/l1.exe "/mnt/gs18/scratch/users/kengmith/Gau-38620.inp" -scrdir="/mnt/gs18/scratch/users/kengmith/"
 Entering Link 1 = /opt/software/Gaussian/g16-AVX2-C.01/g16/l1.exe PID=     38631.
  
 Copyright (c) 1988-2019, Gaussian, Inc.  All Rights Reserved.
  
 This is part of the Gaussian(R) 16 program.  It is based on
 the Gaussian(R) 09 system (copyright 2009, Gaussian, Inc.),
 the Gaussian(R) 03 system (copyright 2003, Gaussian, Inc.),
 the Gaussian(R) 98 system (copyright 1998, Gaussian, Inc.),
 the Gaussian(R) 94 system (copyright 1995, Gaussian, Inc.),
 the Gaussian 92(TM) system (copyright 1992, Gaussian, Inc.),
 the Gaussian 90(TM) system (copyright 1990, Gaussian, Inc.),
 the Gaussian 88(TM) system (copyright 1988, Gaussian, Inc.),
 the Gaussian 86(TM) system (copyright 1986, Carnegie Mellon
 University), and the Gaussian 82(TM) system (copyright 1983,
 Carnegie Mellon University). Gaussian is a federally registered
 trademark of Gaussian, Inc.
  
 This software contains proprietary and confidential information,
 including trade secrets, belonging to Gaussian, Inc.
  
 This software is provided under written license and may be
 used, copied, transmitted, or stored only in accord with that
 written license.
  
 The following legend is applicable only to US Government
 contracts under FAR:
  
                    RESTRICTED RIGHTS LEGEND
  
 Use, reproduction and disclosure by the US Government is
 subject to restrictions as set forth in subparagraphs (a)
 and (c) of the Commercial Computer Software - Restricted
 Rights clause in FAR 52.227-19.
  
 Gaussian, Inc.
 340 Quinnipiac St., Bldg. 40, Wallingford CT 06492
  
  
 ---------------------------------------------------------------
 Warning -- This program may not be used in any manner that
 competes with the business of Gaussian, Inc. or will provide
 assistance to any competitor of Gaussian, Inc.  The licensee
 of this program is prohibited from giving any competitor of
 Gaussian, Inc. access to this program.  By using this program,
 the user acknowledges that Gaussian, Inc. is engaged in the
 business of creating and licensing software in the field of
 computational chemistry and represents and warrants to the
 licensee that it is not a competitor of Gaussian, Inc. and that
 it will not use this program in any manner prohibited above.
 ---------------------------------------------------------------
  

 Cite this work as:
 Gaussian 16, Revision C.01,
 M. J. Frisch, G. W. Trucks, H. B. Schlegel, G. E. Scuseria, 
 M. A. Robb, J. R. Cheeseman, G. Scalmani, V. Barone, 
 G. A. Petersson, H. Nakatsuji, X. Li, M. Caricato, A. V. Marenich, 
 J. Bloino, B. G. Janesko, R. Gomperts, B. Mennucci, H. P. Hratchian, 
 J. V. Ortiz, A. F. Izmaylov, J. L. Sonnenberg, D. Williams-Young, 
 F. Ding, F. Lipparini, F. Egidi, J. Goings, B. Peng, A. Petrone, 
 T. Henderson, D. Ranasinghe, V. G. Zakrzewski, J. Gao, N. Rega, 
 G. Zheng, W. Liang, M. Hada, M. Ehara, K. Toyota, R. Fukuda, 
 J. Hasegawa, M. Ishida, T. Nakajima, Y. Honda, O. Kitao, H. Nakai, 
 T. Vreven, K. Throssell, J. A. Montgomery, Jr., J. E. Peralta, 
 F. Ogliaro, M. J. Bearpark, J. J. Heyd, E. N. Brothers, K. N. Kudin, 
 V. N. Staroverov, T. A. Keith, R. Kobayashi, J. Normand, 
 K. Raghavachari, A. P. Rendell, J. C. Burant, S. S. Iyengar, 
 J. Tomasi, M. Cossi, J. M. Millam, M. Klene, C. Adamo, R. Cammi, 
 J. W. Ochterski, R. L. Martin, K. Morokuma, O. Farkas, 
 J. B. Foresman, and D. J. Fox, Gaussian, Inc., Wallingford CT, 2019.
 
 ******************************************
 Gaussian 16:  ES64L-G16RevC.01  3-Jul-2019
                27-May-2022 
 ******************************************
 %mem=8gb
 %nproc=4
 Will use up to    4 processors via shared memory.
 %chk=conf-883.chk
 ----------------------------------------------------------------------
 # B3LYP/6-31G* empiricaldispersion=gd3 guess=read geom=check nosymm in
 tegral(ultrafinegrid)
 ----------------------------------------------------------------------
 1/29=2,38=1,172=1/1;
 2/12=2,15=1,40=1/2;
 3/5=1,6=6,7=1,11=2,14=-4,25=1,30=1,74=-5,75=-5,116=-2,124=31/1,2,3;
 4/5=1/1;
 5/5=2,38=6/2;
 6/7=2,8=2,9=2,10=2,28=1/1;
 99/5=1,9=1/99;
 ------------------------------------------------------
 Candidate Structure: Conf:883 Charge calc in gas phase
 ------------------------------------------------------
 Structure from the checkpoint file:  "conf-883.chk"
 Charge =  1 Multiplicity = 1
 Redundant internal coordinates found in file.  (old form).
 N,0,11.1629413851,28.2750380215,13.3737009315
 C,0,11.9918306458,28.6403880194,12.1539062094
 C,0,13.2971347265,29.3338077019,12.6322058491
 O,0,14.3501454787,28.8606840829,12.2442438939
 C,0,11.1802423553,29.3875057067,11.0824480292
 C,0,10.1554236237,28.52565433,10.2952753318
 C,0,8.736206969,28.5871418001,10.8253440014
 O,0,7.7420064068,28.7956147657,10.1696928932
 O,0,8.6909933597,28.3840442492,12.1692825833
 H,0,7.8066280828,28.5964864606,12.5443501083
 H,0,10.1616438395,28.1563920631,13.1324268005
 H,0,12.3398306475,27.6976937065,11.7279567064
 H,0,10.6761328013,30.2623925839,11.4981866124
 H,0,11.9195437996,29.7698196621,10.3713431304
 H,0,10.469366835,27.4731163519,10.2718913424
 H,0,10.1068015918,28.8595466589,9.2571630325
 H,0,11.5140934766,27.4184977303,13.8096251867
 H,0,11.2216908713,29.015834817,14.1050200405
 N,0,13.2130719263,30.3322827143,13.5718723872
 C,0,12.2561611302,31.451851402,13.6213832059
 C,0,13.0555069604,32.7122255781,13.198298196
 O,0,14.22472257,32.7911597155,13.5674663905
 C,0,11.6885397297,31.6513645046,15.0510261836
 C,0,10.7380197013,30.5621018714,15.4483402684
 C,0,10.9986536225,29.4901648504,16.2746525938
 C,0,9.3712741697,30.4021781378,14.9894173544
 C,0,8.8804235747,29.1904571994,15.5532012056
 C,0,8.5234748845,31.175595528,14.1746927207
 N,0,9.9051633291,28.6399603937,16.3093333027
 C,0,7.5875311895,28.7168088699,15.3049679956
 C,0,7.228164122,30.7204301329,13.9482098519
 C,0,6.7666277992,29.5003642485,14.4941821727
 H,0,14.145025795,30.6847953323,13.8106911744
 H,0,11.4280696091,31.2530733559,12.9459893224
 H,0,11.1745807763,32.6183200899,15.0843455813
 H,0,12.533152377,31.7167885104,15.7441876143
 H,0,11.8929626171,29.2647620311,16.8400111884
 H,0,9.7825398242,27.8990966544,16.9854710758
 H,0,8.828309652,32.1350923679,13.7640927411
 H,0,7.2253995169,27.7947458253,15.7506642317
 H,0,6.549691782,31.3322499324,13.3634918353
 H,0,5.7408416546,29.1888286368,14.3174863786
 N,0,12.4363961103,33.6640918227,12.4690496808
 C,0,11.0697867637,33.6962196337,11.9534492954
 C,0,11.1829362641,34.2150520702,10.5070783651
 O,0,12.0537967751,35.0450929318,10.2652247115
 C,0,10.1403260286,34.5442929291,12.8841558449
 C,0,10.3293001113,36.0511865917,12.7293098237
 O,0,8.7955925072,34.1404550531,12.7309108069
 H,0,8.4542171284,34.5767096043,11.9028559095
 H,0,13.0232682008,34.4370555798,12.1639136267
 H,0,10.6754335198,32.6831538204,11.95158447
 H,0,10.4277673938,34.2544322917,13.9039310484
 H,0,9.9986842713,36.380055358,11.7407045513
 H,0,11.3787096315,36.335599572,12.8573424678
 H,0,9.7292924999,36.5656849819,13.48517297
 N,0,10.4602250922,33.6567211668,9.4744500128
 C,0,9.0528831243,33.2277697128,9.342025662
 C,0,8.0726910965,34.4425985807,9.3908926294
 O,0,7.2607969998,34.5320494695,8.4198085488
 C,0,8.6195011737,32.101023402,10.2994077368
 C,0,7.1041006139,31.9056647816,10.489724511
 C,0,6.2205495962,31.7464136826,9.2413340477
 N,0,6.8330766296,30.9303498013,8.1856045362
 C,0,7.1220512247,31.3482113163,6.9452707761
 N,0,7.1277359113,32.6312894835,6.6184010213
 N,0,7.4580514754,30.3884506036,6.033486133
 O,0,8.1442445103,35.2006791739,10.3785384701
 H,0,10.7585598689,34.1361234923,8.6277053112
 H,0,9.015224241,32.8231650523,8.3286908214
 H,0,8.9922610015,32.302055063,11.3012303688
 H,0,9.0771192531,31.1691289803,9.9474150577
 H,0,6.9773117139,31.0226947363,11.1228310401
 H,0,6.7100119902,32.7569496274,11.0564412228
 H,0,5.276794113,31.2672122558,9.5248280547
 H,0,5.9810838663,32.7211987423,8.8242689787
 H,0,7.11277197,29.9907001162,8.4474318352
 H,0,7.1735351567,32.8837626997,5.640322357
 H,0,7.1917980362,33.4348270593,7.3516405802
 H,0,7.0069772154,29.4857025713,6.0964884451
 H,0,7.7155822013,30.675758714,5.0995979646
 Recover connectivity data from disk.
                           ----------------------------
                           !    Current Parameters    !
                           ! (Angstroms and Degrees)  !
 --------------------------                            --------------------------
 ! Name  Definition              Value                                          !
 --------------------------------------------------------------------------------
 ! R1    R(1,2)                  1.5194                                         !
 ! R2    R(1,11)                 1.0368                                         !
 ! R3    R(1,17)                 1.0232                                         !
 ! R4    R(1,18)                 1.0426                                         !
 ! R5    R(2,3)                  1.5535                                         !
 ! R6    R(2,5)                  1.5378                                         !
 ! R7    R(2,12)                 1.0914                                         !
 ! R8    R(3,4)                  1.2179                                         !
 ! R9    R(3,19)                 1.3737                                         !
 ! R10   R(5,6)                  1.5533                                         !
 ! R11   R(5,13)                 1.092                                          !
 ! R12   R(5,14)                 1.0947                                         !
 ! R13   R(6,7)                  1.5162                                         !
 ! R14   R(6,15)                 1.0986                                         !
 ! R15   R(6,16)                 1.0916                                         !
 ! R16   R(7,8)                  1.209                                          !
 ! R17   R(7,9)                  1.3599                                         !
 ! R18   R(9,10)                 0.9838                                         !
 ! R19   R(19,20)                1.4736                                         !
 ! R20   R(19,33)                1.0246                                         !
 ! R21   R(20,21)                1.5513                                         !
 ! R22   R(20,23)                1.5511                                         !
 ! R23   R(20,34)                1.0869                                         !
 ! R24   R(21,22)                1.2287                                         !
 ! R25   R(21,43)                1.3495                                         !
 ! R26   R(23,24)                1.4993                                         !
 ! R27   R(23,35)                1.0956                                         !
 ! R28   R(23,36)                1.0946                                         !
 ! R29   R(24,25)                1.3783                                         !
 ! R30   R(24,26)                1.4506                                         !
 ! R31   R(25,29)                1.3856                                         !
 ! R32   R(25,37)                1.0818                                         !
 ! R33   R(26,27)                1.4237                                         !
 ! R34   R(26,28)                1.4074                                         !
 ! R35   R(27,29)                1.3874                                         !
 ! R36   R(27,30)                1.3991                                         !
 ! R37   R(28,31)                1.3915                                         !
 ! R38   R(28,39)                1.0873                                         !
 ! R39   R(29,38)                1.0105                                         !
 ! R40   R(30,32)                1.3947                                         !
 ! R41   R(30,40)                1.0863                                         !
 ! R42   R(31,32)                1.4141                                         !
 ! R43   R(31,41)                1.0847                                         !
 ! R44   R(32,42)                1.0865                                         !
 ! R45   R(43,44)                1.461                                          !
 ! R46   R(43,51)                1.0173                                         !
 ! R47   R(44,45)                1.5408                                         !
 ! R48   R(44,47)                1.565                                          !
 ! R49   R(44,52)                1.0871                                         !
 ! R50   R(45,46)                1.2271                                         !
 ! R51   R(45,57)                1.3785                                         !
 ! R52   R(47,48)                1.5266                                         !
 ! R53   R(47,49)                1.4124                                         !
 ! R54   R(47,53)                1.0984                                         !
 ! R55   R(48,54)                1.0931                                         !
 ! R56   R(48,55)                1.0948                                         !
 ! R57   R(48,56)                1.0936                                         !
 ! R58   R(49,50)                0.9963                                         !
 ! R59   R(57,58)                1.4772                                         !
 ! R60   R(57,69)                1.0177                                         !
 ! R61   R(58,59)                1.5617                                         !
 ! R62   R(58,61)                1.5408                                         !
 ! R63   R(58,70)                1.0918                                         !
 ! R64   R(59,60)                1.2689                                         !
 ! R65   R(59,68)                1.2471                                         !
 ! R66   R(61,62)                1.5397                                         !
 ! R67   R(61,71)                1.0877                                         !
 ! R68   R(61,72)                1.0962                                         !
 ! R69   R(62,63)                1.5377                                         !
 ! R70   R(62,73)                1.0939                                         !
 ! R71   R(62,74)                1.096                                          !
 ! R72   R(63,64)                1.4682                                         !
 ! R73   R(63,75)                1.0958                                         !
 ! R74   R(63,76)                1.087                                          !
 ! R75   R(64,65)                1.3404                                         !
 ! R76   R(64,77)                1.0148                                         !
 ! R77   R(65,66)                1.3241                                         !
 ! R78   R(65,67)                1.3658                                         !
 ! R79   R(66,78)                1.0112                                         !
 ! R80   R(66,79)                1.0897                                         !
 ! R81   R(67,80)                1.0111                                         !
 ! R82   R(67,81)                1.0105                                         !
 ! A1    A(2,1,11)             111.566                                          !
 ! A2    A(2,1,17)             110.8608                                         !
 ! A3    A(2,1,18)             111.1945                                         !
 ! A4    A(11,1,17)            109.5596                                         !
 ! A5    A(11,1,18)            107.3954                                         !
 ! A6    A(17,1,18)            106.0576                                         !
 ! A7    A(1,2,3)              108.5747                                         !
 ! A8    A(1,2,5)              112.8472                                         !
 ! A9    A(1,2,12)             106.2349                                         !
 ! A10   A(3,2,5)              116.1736                                         !
 ! A11   A(3,2,12)             103.7556                                         !
 ! A12   A(5,2,12)             108.4201                                         !
 ! A13   A(2,3,4)              117.0655                                         !
 ! A14   A(2,3,19)             118.9226                                         !
 ! A15   A(4,3,19)             123.5868                                         !
 ! A16   A(2,5,6)              115.5772                                         !
 ! A17   A(2,5,13)             111.569                                          !
 ! A18   A(2,5,14)             105.4172                                         !
 ! A19   A(6,5,13)             109.4455                                         !
 ! A20   A(6,5,14)             108.0685                                         !
 ! A21   A(13,5,14)            106.2168                                         !
 ! A22   A(5,6,7)              114.7017                                         !
 ! A23   A(5,6,15)             110.7221                                         !
 ! A24   A(5,6,16)             109.9761                                         !
 ! A25   A(7,6,15)             108.2869                                         !
 ! A26   A(7,6,16)             106.1635                                         !
 ! A27   A(15,6,16)            106.5912                                         !
 ! A28   A(6,7,8)              125.9519                                         !
 ! A29   A(6,7,9)              111.7493                                         !
 ! A30   A(8,7,9)              122.2977                                         !
 ! A31   A(7,9,10)             111.9862                                         !
 ! A32   A(3,19,20)            127.948                                          !
 ! A33   A(3,19,33)            110.723                                          !
 ! A34   A(20,19,33)           108.7488                                         !
 ! A35   A(19,20,21)           105.8727                                         !
 ! A36   A(19,20,23)           111.4891                                         !
 ! A37   A(19,20,34)           109.5668                                         !
 ! A38   A(21,20,23)           109.5991                                         !
 ! A39   A(21,20,34)           111.8198                                         !
 ! A40   A(23,20,34)           108.5086                                         !
 ! A41   A(20,21,22)           117.426                                          !
 ! A42   A(20,21,43)           118.9508                                         !
 ! A43   A(22,21,43)           123.6164                                         !
 ! A44   A(20,23,24)           112.5078                                         !
 ! A45   A(20,23,35)           108.2544                                         !
 ! A46   A(20,23,36)           107.9984                                         !
 ! A47   A(24,23,35)           109.6186                                         !
 ! A48   A(24,23,36)           111.3957                                         !
 ! A49   A(35,23,36)           106.8566                                         !
 ! A50   A(23,24,25)           127.1579                                         !
 ! A51   A(23,24,26)           126.4131                                         !
 ! A52   A(25,24,26)           106.3851                                         !
 ! A53   A(24,25,29)           110.0591                                         !
 ! A54   A(24,25,37)           129.175                                          !
 ! A55   A(29,25,37)           120.7642                                         !
 ! A56   A(24,26,27)           107.0608                                         !
 ! A57   A(24,26,28)           133.6413                                         !
 ! A58   A(27,26,28)           119.2919                                         !
 ! A59   A(26,27,29)           107.3895                                         !
 ! A60   A(26,27,30)           122.4421                                         !
 ! A61   A(29,27,30)           130.158                                          !
 ! A62   A(26,28,31)           118.3733                                         !
 ! A63   A(26,28,39)           122.3228                                         !
 ! A64   A(31,28,39)           119.2212                                         !
 ! A65   A(25,29,27)           109.0138                                         !
 ! A66   A(25,29,38)           124.2227                                         !
 ! A67   A(27,29,38)           124.4686                                         !
 ! A68   A(27,30,32)           117.1838                                         !
 ! A69   A(27,30,40)           121.5084                                         !
 ! A70   A(32,30,40)           121.2773                                         !
 ! A71   A(28,31,32)           121.547                                          !
 ! A72   A(28,31,41)           119.0449                                         !
 ! A73   A(32,31,41)           119.3824                                         !
 ! A74   A(30,32,31)           121.1355                                         !
 ! A75   A(30,32,42)           119.284                                          !
 ! A76   A(31,32,42)           119.5208                                         !
 ! A77   A(21,43,44)           129.4461                                         !
 ! A78   A(21,43,51)           115.6798                                         !
 ! A79   A(44,43,51)           114.6479                                         !
 ! A80   A(43,44,45)           105.6643                                         !
 ! A81   A(43,44,47)           110.951                                          !
 ! A82   A(43,44,52)           108.6285                                         !
 ! A83   A(45,44,47)           114.7962                                         !
 ! A84   A(45,44,52)           109.8055                                         !
 ! A85   A(47,44,52)           106.8916                                         !
 ! A86   A(44,45,46)           117.7037                                         !
 ! A87   A(44,45,57)           121.8905                                         !
 ! A88   A(46,45,57)           119.8924                                         !
 ! A89   A(44,47,48)           113.6447                                         !
 ! A90   A(44,47,49)           110.2414                                         !
 ! A91   A(44,47,53)           104.6961                                         !
 ! A92   A(48,47,49)           112.898                                          !
 ! A93   A(48,47,53)           108.7995                                         !
 ! A94   A(49,47,53)           105.9276                                         !
 ! A95   A(47,48,54)           110.566                                          !
 ! A96   A(47,48,55)           111.2992                                         !
 ! A97   A(47,48,56)           109.0481                                         !
 ! A98   A(54,48,55)           108.5142                                         !
 ! A99   A(54,48,56)           108.5183                                         !
 ! A100  A(55,48,56)           108.8355                                         !
 ! A101  A(47,49,50)           106.9309                                         !
 ! A102  A(45,57,58)           133.1745                                         !
 ! A103  A(45,57,69)           106.1861                                         !
 ! A104  A(58,57,69)           109.9663                                         !
 ! A105  A(57,58,59)           111.6703                                         !
 ! A106  A(57,58,61)           115.1268                                         !
 ! A107  A(57,58,70)           102.9252                                         !
 ! A108  A(59,58,61)           111.8929                                         !
 ! A109  A(59,58,70)           107.1977                                         !
 ! A110  A(61,58,70)           107.2182                                         !
 ! A111  A(58,59,60)           115.6243                                         !
 ! A112  A(58,59,68)           117.4919                                         !
 ! A113  A(60,59,68)           126.8647                                         !
 ! A114  A(58,61,62)           116.514                                          !
 ! A115  A(58,61,71)           109.9236                                         !
 ! A116  A(58,61,72)           107.7416                                         !
 ! A117  A(62,61,71)           104.2941                                         !
 ! A118  A(62,61,72)           110.0399                                         !
 ! A119  A(71,61,72)           108.0475                                         !
 ! A120  A(61,62,63)           118.5745                                         !
 ! A121  A(61,62,73)           106.7401                                         !
 ! A122  A(61,62,74)           108.6179                                         !
 ! A123  A(63,62,73)           108.6441                                         !
 ! A124  A(63,62,74)           107.0757                                         !
 ! A125  A(73,62,74)           106.6202                                         !
 ! A126  A(62,63,64)           113.6791                                         !
 ! A127  A(62,63,75)           109.2771                                         !
 ! A128  A(62,63,76)           110.1951                                         !
 ! A129  A(64,63,75)           107.5944                                         !
 ! A130  A(64,63,76)           108.3284                                         !
 ! A131  A(75,63,76)           107.5606                                         !
 ! A132  A(63,64,65)           125.5954                                         !
 ! A133  A(63,64,77)           116.3681                                         !
 ! A134  A(65,64,77)           117.9061                                         !
 ! A135  A(64,65,66)           122.1051                                         !
 ! A136  A(64,65,67)           116.8551                                         !
 ! A137  A(66,65,67)           121.0039                                         !
 ! A138  A(65,66,78)           118.7464                                         !
 ! A139  A(65,66,79)           123.2786                                         !
 ! A140  A(78,66,79)           117.6511                                         !
 ! A141  A(65,67,80)           118.4274                                         !
 ! A142  A(65,67,81)           118.6786                                         !
 ! A143  A(80,67,81)           115.1597                                         !
 ! D1    D(11,1,2,3)           157.9587                                         !
 ! D2    D(11,1,2,5)            27.6778                                         !
 ! D3    D(11,1,2,12)          -90.9953                                         !
 ! D4    D(17,1,2,3)           -79.639                                          !
 ! D5    D(17,1,2,5)           150.0801                                         !
 ! D6    D(17,1,2,12)           31.407                                          !
 ! D7    D(18,1,2,3)            38.0875                                         !
 ! D8    D(18,1,2,5)           -92.1933                                         !
 ! D9    D(18,1,2,12)          149.1336                                         !
 ! D10   D(1,2,3,4)            125.4108                                         !
 ! D11   D(1,2,3,19)           -47.3768                                         !
 ! D12   D(5,2,3,4)           -106.1579                                         !
 ! D13   D(5,2,3,19)            81.0544                                         !
 ! D14   D(12,2,3,4)            12.7104                                         !
 ! D15   D(12,2,3,19)         -160.0773                                         !
 ! D16   D(1,2,5,6)            -72.1979                                         !
 ! D17   D(1,2,5,13)            53.6808                                         !
 ! D18   D(1,2,5,14)           168.5485                                         !
 ! D19   D(3,2,5,6)            161.4865                                         !
 ! D20   D(3,2,5,13)           -72.6348                                         !
 ! D21   D(3,2,5,14)            42.2329                                         !
 ! D22   D(12,2,5,6)            45.1946                                         !
 ! D23   D(12,2,5,13)          171.0734                                         !
 ! D24   D(12,2,5,14)          -74.059                                          !
 ! D25   D(2,3,19,20)          -44.3506                                         !
 ! D26   D(2,3,19,33)          178.6939                                         !
 ! D27   D(4,3,19,20)          143.362                                          !
 ! D28   D(4,3,19,33)            6.4065                                         !
 ! D29   D(2,5,6,7)             96.2839                                         !
 ! D30   D(2,5,6,15)           -26.6236                                         !
 ! D31   D(2,5,6,16)          -144.1624                                         !
 ! D32   D(13,5,6,7)           -30.6715                                         !
 ! D33   D(13,5,6,15)         -153.579                                          !
 ! D34   D(13,5,6,16)           88.8821                                         !
 ! D35   D(14,5,6,7)          -145.9304                                         !
 ! D36   D(14,5,6,15)           91.1621                                         !
 ! D37   D(14,5,6,16)          -26.3768                                         !
 ! D38   D(5,6,7,8)            130.3682                                         !
 ! D39   D(5,6,7,9)            -49.2455                                         !
 ! D40   D(15,6,7,8)          -105.4238                                         !
 ! D41   D(15,6,7,9)            74.9625                                         !
 ! D42   D(16,6,7,8)             8.7111                                         !
 ! D43   D(16,6,7,9)          -170.9026                                         !
 ! D44   D(6,7,9,10)           168.7462                                         !
 ! D45   D(8,7,9,10)           -10.8838                                         !
 ! D46   D(3,19,20,21)        -105.6231                                         !
 ! D47   D(3,19,20,23)         135.2511                                         !
 ! D48   D(3,19,20,34)          15.1187                                         !
 ! D49   D(33,19,20,21)         31.9865                                         !
 ! D50   D(33,19,20,23)        -87.1393                                         !
 ! D51   D(33,19,20,34)        152.7282                                         !
 ! D52   D(19,20,21,22)        -36.6448                                         !
 ! D53   D(19,20,21,43)        144.2688                                         !
 ! D54   D(23,20,21,22)         83.7205                                         !
 ! D55   D(23,20,21,43)        -95.3659                                         !
 ! D56   D(34,20,21,22)       -155.9127                                         !
 ! D57   D(34,20,21,43)         25.0009                                         !
 ! D58   D(19,20,23,24)        -71.5804                                         !
 ! D59   D(19,20,23,35)        167.1292                                         !
 ! D60   D(19,20,23,36)         51.7749                                         !
 ! D61   D(21,20,23,24)        171.5353                                         !
 ! D62   D(21,20,23,35)         50.2449                                         !
 ! D63   D(21,20,23,36)        -65.1093                                         !
 ! D64   D(34,20,23,24)         49.1734                                         !
 ! D65   D(34,20,23,35)        -72.117                                          !
 ! D66   D(34,20,23,36)        172.5287                                         !
 ! D67   D(20,21,43,44)         -1.7126                                         !
 ! D68   D(20,21,43,51)       -175.893                                          !
 ! D69   D(22,21,43,44)        179.2612                                         !
 ! D70   D(22,21,43,51)          5.0808                                         !
 ! D71   D(20,23,24,25)        101.9229                                         !
 ! D72   D(20,23,24,26)        -75.3351                                         !
 ! D73   D(35,23,24,25)       -137.5688                                         !
 ! D74   D(35,23,24,26)         45.1732                                         !
 ! D75   D(36,23,24,25)        -19.5154                                         !
 ! D76   D(36,23,24,26)        163.2266                                         !
 ! D77   D(23,24,25,29)       -174.8576                                         !
 ! D78   D(23,24,25,37)          4.6559                                         !
 ! D79   D(26,24,25,29)          2.8426                                         !
 ! D80   D(26,24,25,37)       -177.6439                                         !
 ! D81   D(23,24,26,27)        176.2361                                         !
 ! D82   D(23,24,26,28)         -4.697                                          !
 ! D83   D(25,24,26,27)         -1.4864                                         !
 ! D84   D(25,24,26,28)        177.5806                                         !
 ! D85   D(24,25,29,27)         -3.1756                                         !
 ! D86   D(24,25,29,38)       -166.5811                                         !
 ! D87   D(37,25,29,27)        177.2634                                         !
 ! D88   D(37,25,29,38)         13.8579                                         !
 ! D89   D(24,26,27,29)         -0.3845                                         !
 ! D90   D(24,26,27,30)       -179.318                                          !
 ! D91   D(28,26,27,29)       -179.6103                                         !
 ! D92   D(28,26,27,30)          1.4563                                         !
 ! D93   D(24,26,28,31)       -179.0918                                         !
 ! D94   D(24,26,28,39)         -2.4272                                         !
 ! D95   D(27,26,28,31)         -0.1146                                         !
 ! D96   D(27,26,28,39)        176.55                                           !
 ! D97   D(26,27,29,25)          2.1307                                         !
 ! D98   D(26,27,29,38)        165.486                                          !
 ! D99   D(30,27,29,25)       -179.0471                                         !
 ! D100  D(30,27,29,38)        -15.6917                                         !
 ! D101  D(26,27,30,32)         -1.4025                                         !
 ! D102  D(26,27,30,40)       -179.4188                                         !
 ! D103  D(29,27,30,32)        179.9293                                         !
 ! D104  D(29,27,30,40)          1.913                                          !
 ! D105  D(26,28,31,32)         -1.2044                                         !
 ! D106  D(26,28,31,41)        176.9402                                         !
 ! D107  D(39,28,31,32)       -177.975                                          !
 ! D108  D(39,28,31,41)          0.1696                                         !
 ! D109  D(27,30,32,31)          0.0565                                         !
 ! D110  D(27,30,32,42)       -177.1197                                         !
 ! D111  D(40,30,32,31)        178.0777                                         !
 ! D112  D(40,30,32,42)          0.9014                                         !
 ! D113  D(28,31,32,30)          1.2633                                         !
 ! D114  D(28,31,32,42)        178.433                                          !
 ! D115  D(41,31,32,30)       -176.8751                                         !
 ! D116  D(41,31,32,42)          0.2945                                         !
 ! D117  D(21,43,44,45)       -136.5233                                         !
 ! D118  D(21,43,44,47)         98.4631                                         !
 ! D119  D(21,43,44,52)        -18.7562                                         !
 ! D120  D(51,43,44,45)         37.7064                                         !
 ! D121  D(51,43,44,47)        -87.3072                                         !
 ! D122  D(51,43,44,52)        155.4734                                         !
 ! D123  D(43,44,45,46)        -34.2183                                         !
 ! D124  D(43,44,45,57)        137.5475                                         !
 ! D125  D(47,44,45,46)         88.3717                                         !
 ! D126  D(47,44,45,57)        -99.8625                                         !
 ! D127  D(52,44,45,46)       -151.1928                                         !
 ! D128  D(52,44,45,57)         20.573                                          !
 ! D129  D(43,44,47,48)         76.3631                                         !
 ! D130  D(43,44,47,49)       -155.7466                                         !
 ! D131  D(43,44,47,53)        -42.2254                                         !
 ! D132  D(45,44,47,48)        -43.3306                                         !
 ! D133  D(45,44,47,49)         84.5597                                         !
 ! D134  D(45,44,47,53)       -161.9191                                         !
 ! D135  D(52,44,47,48)       -165.36                                           !
 ! D136  D(52,44,47,49)        -37.4697                                         !
 ! D137  D(52,44,47,53)         76.0516                                         !
 ! D138  D(44,45,57,58)         44.0463                                         !
 ! D139  D(44,45,57,69)       -176.4994                                         !
 ! D140  D(46,45,57,58)       -144.3639                                         !
 ! D141  D(46,45,57,69)         -4.9096                                         !
 ! D142  D(44,47,48,54)         66.9306                                         !
 ! D143  D(44,47,48,55)        -53.753                                          !
 ! D144  D(44,47,48,56)       -173.8325                                         !
 ! D145  D(49,47,48,54)        -59.5758                                         !
 ! D146  D(49,47,48,55)        179.7406                                         !
 ! D147  D(49,47,48,56)         59.661                                          !
 ! D148  D(53,47,48,54)       -176.8641                                         !
 ! D149  D(53,47,48,55)         62.4523                                         !
 ! D150  D(53,47,48,56)        -57.6272                                         !
 ! D151  D(44,47,49,50)        -80.1047                                         !
 ! D152  D(48,47,49,50)         48.1953                                         !
 ! D153  D(53,47,49,50)        167.1636                                         !
 ! D154  D(45,57,58,59)         67.2479                                         !
 ! D155  D(45,57,58,61)        -61.7671                                         !
 ! D156  D(45,57,58,70)       -178.0679                                         !
 ! D157  D(69,57,58,59)        -71.1304                                         !
 ! D158  D(69,57,58,61)        159.8546                                         !
 ! D159  D(69,57,58,70)         43.5538                                         !
 ! D160  D(57,58,59,60)        126.4649                                         !
 ! D161  D(57,58,59,68)        -55.018                                          !
 ! D162  D(61,58,59,60)       -102.8347                                         !
 ! D163  D(61,58,59,68)         75.6824                                         !
 ! D164  D(70,58,59,60)         14.4444                                         !
 ! D165  D(70,58,59,68)       -167.0384                                         !
 ! D166  D(57,58,61,62)        162.782                                          !
 ! D167  D(57,58,61,71)         44.4675                                         !
 ! D168  D(57,58,61,72)        -73.0454                                         !
 ! D169  D(59,58,61,62)         33.877                                          !
 ! D170  D(59,58,61,71)        -84.4376                                         !
 ! D171  D(59,58,61,72)        158.0495                                         !
 ! D172  D(70,58,61,62)        -83.3899                                         !
 ! D173  D(70,58,61,71)        158.2956                                         !
 ! D174  D(70,58,61,72)         40.7827                                         !
 ! D175  D(58,61,62,63)         52.2935                                         !
 ! D176  D(58,61,62,73)        175.2468                                         !
 ! D177  D(58,61,62,74)        -70.139                                          !
 ! D178  D(71,61,62,63)        173.6322                                         !
 ! D179  D(71,61,62,73)        -63.4146                                         !
 ! D180  D(71,61,62,74)         51.1996                                         !
 ! D181  D(72,61,62,63)        -70.6943                                         !
 ! D182  D(72,61,62,73)         52.259                                          !
 ! D183  D(72,61,62,74)        166.8731                                         !
 ! D184  D(61,62,63,64)         39.4494                                         !
 ! D185  D(61,62,63,75)        159.6511                                         !
 ! D186  D(61,62,63,76)        -82.3651                                         !
 ! D187  D(73,62,63,64)        -82.5496                                         !
 ! D188  D(73,62,63,75)         37.6521                                         !
 ! D189  D(73,62,63,76)        155.6359                                         !
 ! D190  D(74,62,63,64)        162.652                                          !
 ! D191  D(74,62,63,75)        -77.1463                                         !
 ! D192  D(74,62,63,76)         40.8375                                         !
 ! D193  D(62,63,64,65)       -119.0278                                         !
 ! D194  D(62,63,64,77)         56.7139                                         !
 ! D195  D(75,63,64,65)        119.8248                                         !
 ! D196  D(75,63,64,77)        -64.4335                                         !
 ! D197  D(76,63,64,65)          3.8175                                         !
 ! D198  D(76,63,64,77)        179.5591                                         !
 ! D199  D(63,64,65,66)         13.8907                                         !
 ! D200  D(63,64,65,67)       -168.2693                                         !
 ! D201  D(77,64,65,66)       -161.7918                                         !
 ! D202  D(77,64,65,67)         16.0481                                         !
 ! D203  D(64,65,66,78)       -168.2405                                         !
 ! D204  D(64,65,66,79)         18.4563                                         !
 ! D205  D(67,65,66,78)         14.0079                                         !
 ! D206  D(67,65,66,79)       -159.2954                                         !
 ! D207  D(64,65,67,80)         34.4186                                         !
 ! D208  D(64,65,67,81)       -177.6805                                         !
 ! D209  D(66,65,67,80)       -147.7161                                         !
 ! D210  D(66,65,67,81)          0.1848                                         !
 --------------------------------------------------------------------------------
 Symmetry turned off by external request.
 Stoichiometry    C26H39N8O8(1+)
 Framework group  C1[X(C26H39N8O8)]
 Deg. of freedom   237
 Full point group                 C1      NOp   1
                          Input orientation:                          
 ---------------------------------------------------------------------
 Center     Atomic      Atomic             Coordinates (Angstroms)
 Number     Number       Type             X           Y           Z
 ---------------------------------------------------------------------
      1          7           0       11.162941   28.275038   13.373701
      2          6           0       11.991831   28.640388   12.153906
      3          6           0       13.297135   29.333808   12.632206
      4          8           0       14.350145   28.860684   12.244244
      5          6           0       11.180242   29.387506   11.082448
      6          6           0       10.155424   28.525654   10.295275
      7          6           0        8.736207   28.587142   10.825344
      8          8           0        7.742006   28.795615   10.169693
      9          8           0        8.690993   28.384044   12.169283
     10          1           0        7.806628   28.596486   12.544350
     11          1           0       10.161644   28.156392   13.132427
     12          1           0       12.339831   27.697694   11.727957
     13          1           0       10.676133   30.262393   11.498187
     14          1           0       11.919544   29.769820   10.371343
     15          1           0       10.469367   27.473116   10.271891
     16          1           0       10.106802   28.859547    9.257163
     17          1           0       11.514093   27.418498   13.809625
     18          1           0       11.221691   29.015835   14.105020
     19          7           0       13.213072   30.332283   13.571872
     20          6           0       12.256161   31.451851   13.621383
     21          6           0       13.055507   32.712226   13.198298
     22          8           0       14.224723   32.791160   13.567466
     23          6           0       11.688540   31.651365   15.051026
     24          6           0       10.738020   30.562102   15.448340
     25          6           0       10.998654   29.490165   16.274653
     26          6           0        9.371274   30.402178   14.989417
     27          6           0        8.880424   29.190457   15.553201
     28          6           0        8.523475   31.175596   14.174693
     29          7           0        9.905163   28.639960   16.309333
     30          6           0        7.587531   28.716809   15.304968
     31          6           0        7.228164   30.720430   13.948210
     32          6           0        6.766628   29.500364   14.494182
     33          1           0       14.145026   30.684795   13.810691
     34          1           0       11.428070   31.253073   12.945989
     35          1           0       11.174581   32.618320   15.084346
     36          1           0       12.533152   31.716789   15.744188
     37          1           0       11.892963   29.264762   16.840011
     38          1           0        9.782540   27.899097   16.985471
     39          1           0        8.828310   32.135092   13.764093
     40          1           0        7.225400   27.794746   15.750664
     41          1           0        6.549692   31.332250   13.363492
     42          1           0        5.740842   29.188829   14.317486
     43          7           0       12.436396   33.664092   12.469050
     44          6           0       11.069787   33.696220   11.953449
     45          6           0       11.182936   34.215052   10.507078
     46          8           0       12.053797   35.045093   10.265225
     47          6           0       10.140326   34.544293   12.884156
     48          6           0       10.329300   36.051187   12.729310
     49          8           0        8.795593   34.140455   12.730911
     50          1           0        8.454217   34.576710   11.902856
     51          1           0       13.023268   34.437056   12.163914
     52          1           0       10.675434   32.683154   11.951584
     53          1           0       10.427767   34.254432   13.903931
     54          1           0        9.998684   36.380055   11.740705
     55          1           0       11.378710   36.335600   12.857342
     56          1           0        9.729292   36.565685   13.485173
     57          7           0       10.460225   33.656721    9.474450
     58          6           0        9.052883   33.227770    9.342026
     59          6           0        8.072691   34.442599    9.390893
     60          8           0        7.260797   34.532049    8.419809
     61          6           0        8.619501   32.101023   10.299408
     62          6           0        7.104101   31.905665   10.489725
     63          6           0        6.220550   31.746414    9.241334
     64          7           0        6.833077   30.930350    8.185605
     65          6           0        7.122051   31.348211    6.945271
     66          7           0        7.127736   32.631289    6.618401
     67          7           0        7.458051   30.388451    6.033486
     68          8           0        8.144245   35.200679   10.378538
     69          1           0       10.758560   34.136123    8.627705
     70          1           0        9.015224   32.823165    8.328691
     71          1           0        8.992261   32.302055   11.301230
     72          1           0        9.077119   31.169129    9.947415
     73          1           0        6.977312   31.022695   11.122831
     74          1           0        6.710012   32.756950   11.056441
     75          1           0        5.276794   31.267212    9.524828
     76          1           0        5.981084   32.721199    8.824269
     77          1           0        7.112772   29.990700    8.447432
     78          1           0        7.173535   32.883763    5.640322
     79          1           0        7.191798   33.434827    7.351641
     80          1           0        7.006977   29.485703    6.096488
     81          1           0        7.715582   30.675759    5.099598
 ---------------------------------------------------------------------
 Rotational constants (GHZ):           0.1057959           0.0707514           0.0594365
 Standard basis: 6-31G(d) (6D, 7F)
   708 basis functions,  1332 primitive gaussians,   708 cartesian basis functions
   157 alpha electrons      157 beta electrons
       nuclear repulsion energy      5768.8398953459 Hartrees.
 NAtoms=   81 NActive=   81 NUniq=   81 SFac= 1.00D+00 NAtFMM=   60 NAOKFM=T Big=T
 Integral buffers will be    131072 words long.
 Raffenetti 2 integral format.
 Two-electron integral symmetry is turned off.
 Nuclear repulsion after empirical dispersion term =     5768.7045517171 Hartrees.
 One-electron integrals computed using PRISM.
 NBasis=   708 RedAO= T EigKep=  3.48D-04  NBF=   708
 NBsUse=   708 1.00D-06 EigRej= -1.00D+00 NBFU=   708
 Initial guess from the checkpoint file:  "conf-883.chk"
 B after Tr=     0.000000    0.000000    0.000000
         Rot=    1.000000    0.000000    0.000000    0.000000 Ang=   0.00 deg.
 Requested convergence on RMS density matrix=1.00D-08 within 128 cycles.
 Requested convergence on MAX density matrix=1.00D-06.
 Requested convergence on             energy=1.00D-06.
 No special actions if energy rises.
 SCF Done:  E(RB3LYP) =  -2054.02716567     A.U. after    1 cycles
            NFock=  1  Conv=0.93D-08     -V/T= 2.0093

 **********************************************************************

            Population analysis using the SCF Density.

 **********************************************************************

 Alpha  occ. eigenvalues --  -19.35118 -19.29308 -19.24372 -19.20580 -19.19948
 Alpha  occ. eigenvalues --  -19.19549 -19.17325 -19.16596 -14.58639 -14.50933
 Alpha  occ. eigenvalues --  -14.49417 -14.48800 -14.47527 -14.46548 -14.44992
 Alpha  occ. eigenvalues --  -14.43775 -10.47498 -10.44879 -10.42108 -10.40161
 Alpha  occ. eigenvalues --  -10.38398 -10.37039 -10.35480 -10.35464 -10.35249
 Alpha  occ. eigenvalues --  -10.34995 -10.34792 -10.34748 -10.32246 -10.32044
 Alpha  occ. eigenvalues --  -10.31487 -10.31333 -10.31288 -10.31140 -10.31039
 Alpha  occ. eigenvalues --  -10.30982 -10.30832 -10.30076 -10.29968 -10.28452
 Alpha  occ. eigenvalues --  -10.28401 -10.22972  -1.25495  -1.16953  -1.16634
 Alpha  occ. eigenvalues --   -1.13674  -1.13277  -1.12939  -1.11700  -1.10687
 Alpha  occ. eigenvalues --   -1.10249  -1.07839  -1.03980  -1.02897  -1.02025
 Alpha  occ. eigenvalues --   -1.01379  -1.00496  -0.99431  -0.96250  -0.95808
 Alpha  occ. eigenvalues --   -0.93026  -0.89254  -0.88741  -0.87565  -0.85735
 Alpha  occ. eigenvalues --   -0.84624  -0.84063  -0.83227  -0.80523  -0.78653
 Alpha  occ. eigenvalues --   -0.77895  -0.77017  -0.75718  -0.74579  -0.74396
 Alpha  occ. eigenvalues --   -0.74219  -0.72736  -0.71544  -0.70851  -0.70463
 Alpha  occ. eigenvalues --   -0.69829  -0.68889  -0.68186  -0.67836  -0.66594
 Alpha  occ. eigenvalues --   -0.66231  -0.65844  -0.64912  -0.64118  -0.63423
 Alpha  occ. eigenvalues --   -0.62720  -0.61613  -0.60992  -0.60843  -0.60680
 Alpha  occ. eigenvalues --   -0.60487  -0.59753  -0.59115  -0.58357  -0.58329
 Alpha  occ. eigenvalues --   -0.57794  -0.57083  -0.56707  -0.56534  -0.56088
 Alpha  occ. eigenvalues --   -0.55670  -0.55455  -0.55054  -0.54782  -0.54480
 Alpha  occ. eigenvalues --   -0.54083  -0.53776  -0.53665  -0.53394  -0.52783
 Alpha  occ. eigenvalues --   -0.51893  -0.51652  -0.51379  -0.51166  -0.50590
 Alpha  occ. eigenvalues --   -0.50393  -0.50211  -0.49247  -0.49213  -0.48893
 Alpha  occ. eigenvalues --   -0.47979  -0.47567  -0.47422  -0.47212  -0.46747
 Alpha  occ. eigenvalues --   -0.46384  -0.46123  -0.45537  -0.45412  -0.45069
 Alpha  occ. eigenvalues --   -0.44733  -0.43819  -0.42917  -0.42683  -0.42500
 Alpha  occ. eigenvalues --   -0.42049  -0.40214  -0.40017  -0.39087  -0.38718
 Alpha  occ. eigenvalues --   -0.37410  -0.37196  -0.36384  -0.35337  -0.35245
 Alpha  occ. eigenvalues --   -0.34820  -0.33492  -0.33213  -0.32571  -0.32080
 Alpha  occ. eigenvalues --   -0.31026  -0.29816
 Alpha virt. eigenvalues --   -0.14799  -0.14000  -0.12166  -0.10604  -0.09685
 Alpha virt. eigenvalues --   -0.09490  -0.08071  -0.07254  -0.06395  -0.06060
 Alpha virt. eigenvalues --   -0.05465  -0.04448  -0.03376  -0.02941  -0.02415
 Alpha virt. eigenvalues --   -0.02019  -0.01184  -0.00937  -0.00763  -0.00311
 Alpha virt. eigenvalues --    0.00290   0.00586   0.00976   0.01351   0.01837
 Alpha virt. eigenvalues --    0.02098   0.02807   0.03163   0.03494   0.04004
 Alpha virt. eigenvalues --    0.04112   0.04495   0.04879   0.05262   0.05711
 Alpha virt. eigenvalues --    0.05852   0.06545   0.06930   0.07317   0.07388
 Alpha virt. eigenvalues --    0.08144   0.08281   0.08666   0.08763   0.09109
 Alpha virt. eigenvalues --    0.09390   0.10169   0.10405   0.10935   0.11334
 Alpha virt. eigenvalues --    0.11978   0.12397   0.12650   0.12944   0.13285
 Alpha virt. eigenvalues --    0.13487   0.13940   0.14611   0.14865   0.15165
 Alpha virt. eigenvalues --    0.15573   0.15976   0.16424   0.16732   0.17017
 Alpha virt. eigenvalues --    0.17532   0.18095   0.18806   0.18922   0.20244
 Alpha virt. eigenvalues --    0.20395   0.20937   0.21633   0.22348   0.22570
 Alpha virt. eigenvalues --    0.23182   0.23678   0.24814   0.25058   0.26826
 Alpha virt. eigenvalues --    0.27503   0.27932   0.29085   0.29567   0.30709
 Alpha virt. eigenvalues --    0.31494   0.32863   0.33371   0.34133   0.34990
 Alpha virt. eigenvalues --    0.35325   0.35925   0.36778   0.38008   0.38543
 Alpha virt. eigenvalues --    0.39361   0.40057   0.40658   0.40872   0.41385
 Alpha virt. eigenvalues --    0.41702   0.42095   0.42973   0.43549   0.43866
 Alpha virt. eigenvalues --    0.44254   0.44354   0.44643   0.45146   0.45450
 Alpha virt. eigenvalues --    0.45669   0.46017   0.46719   0.46914   0.47231
 Alpha virt. eigenvalues --    0.48043   0.48413   0.48803   0.49160   0.49685
 Alpha virt. eigenvalues --    0.50087   0.50219   0.50545   0.50750   0.51246
 Alpha virt. eigenvalues --    0.51343   0.51957   0.52470   0.52857   0.53084
 Alpha virt. eigenvalues --    0.53202   0.54167   0.54490   0.55264   0.55670
 Alpha virt. eigenvalues --    0.55918   0.56541   0.56609   0.56892   0.56974
 Alpha virt. eigenvalues --    0.57470   0.57634   0.58313   0.58656   0.59236
 Alpha virt. eigenvalues --    0.59592   0.60254   0.60653   0.61429   0.61831
 Alpha virt. eigenvalues --    0.61984   0.63067   0.64106   0.64199   0.64918
 Alpha virt. eigenvalues --    0.65208   0.65695   0.66054   0.66962   0.67312
 Alpha virt. eigenvalues --    0.67543   0.67736   0.68522   0.69048   0.69298
 Alpha virt. eigenvalues --    0.69833   0.70075   0.70727   0.71157   0.71642
 Alpha virt. eigenvalues --    0.71926   0.72303   0.72857   0.73058   0.73415
 Alpha virt. eigenvalues --    0.74051   0.74474   0.74772   0.74944   0.75339
 Alpha virt. eigenvalues --    0.75508   0.75673   0.75960   0.76408   0.76630
 Alpha virt. eigenvalues --    0.77142   0.77752   0.78102   0.78265   0.78591
 Alpha virt. eigenvalues --    0.79259   0.79345   0.80051   0.80578   0.81387
 Alpha virt. eigenvalues --    0.81728   0.82256   0.82621   0.82981   0.83770
 Alpha virt. eigenvalues --    0.83924   0.84671   0.84790   0.85211   0.85555
 Alpha virt. eigenvalues --    0.85643   0.86264   0.86769   0.87347   0.87652
 Alpha virt. eigenvalues --    0.88339   0.88837   0.89308   0.89638   0.90028
 Alpha virt. eigenvalues --    0.90884   0.91473   0.92089   0.92206   0.93256
 Alpha virt. eigenvalues --    0.93776   0.93848   0.94622   0.95802   0.96291
 Alpha virt. eigenvalues --    0.96982   0.97760   0.97912   0.98784   0.98865
 Alpha virt. eigenvalues --    1.00043   1.00098   1.00914   1.01275   1.02107
 Alpha virt. eigenvalues --    1.02369   1.02851   1.03790   1.04447   1.05271
 Alpha virt. eigenvalues --    1.06170   1.06414   1.07398   1.07592   1.07882
 Alpha virt. eigenvalues --    1.08241   1.08659   1.09221   1.10094   1.10410
 Alpha virt. eigenvalues --    1.11983   1.12512   1.13307   1.13791   1.14530
 Alpha virt. eigenvalues --    1.15714   1.16026   1.16598   1.17640   1.18173
 Alpha virt. eigenvalues --    1.18763   1.19929   1.20627   1.21012   1.21605
 Alpha virt. eigenvalues --    1.22127   1.22419   1.23208   1.23305   1.24440
 Alpha virt. eigenvalues --    1.24576   1.25802   1.26436   1.27718   1.28967
 Alpha virt. eigenvalues --    1.29137   1.29990   1.30745   1.31156   1.32403
 Alpha virt. eigenvalues --    1.32651   1.32743   1.33736   1.35165   1.35450
 Alpha virt. eigenvalues --    1.36862   1.37243   1.37642   1.37961   1.38911
 Alpha virt. eigenvalues --    1.39082   1.39829   1.40309   1.40495   1.41503
 Alpha virt. eigenvalues --    1.42613   1.43189   1.43321   1.44538   1.44999
 Alpha virt. eigenvalues --    1.46025   1.47162   1.48340   1.48614   1.49189
 Alpha virt. eigenvalues --    1.50737   1.51355   1.52117   1.52442   1.53181
 Alpha virt. eigenvalues --    1.54272   1.54575   1.54965   1.55604   1.55831
 Alpha virt. eigenvalues --    1.56726   1.58600   1.59451   1.59872   1.60264
 Alpha virt. eigenvalues --    1.60911   1.61699   1.62110   1.62956   1.64224
 Alpha virt. eigenvalues --    1.65675   1.65863   1.66212   1.66412   1.67046
 Alpha virt. eigenvalues --    1.67603   1.67961   1.68798   1.69004   1.69212
 Alpha virt. eigenvalues --    1.70078   1.70771   1.71218   1.71555   1.72458
 Alpha virt. eigenvalues --    1.73015   1.73636   1.74283   1.74862   1.75227
 Alpha virt. eigenvalues --    1.75427   1.75825   1.77014   1.77362   1.77684
 Alpha virt. eigenvalues --    1.78178   1.78456   1.78867   1.79100   1.79841
 Alpha virt. eigenvalues --    1.80163   1.80942   1.81221   1.81424   1.81692
 Alpha virt. eigenvalues --    1.82245   1.82700   1.84053   1.84072   1.84975
 Alpha virt. eigenvalues --    1.85071   1.85344   1.86086   1.87029   1.87904
 Alpha virt. eigenvalues --    1.88733   1.89202   1.89414   1.89875   1.90197
 Alpha virt. eigenvalues --    1.91460   1.92087   1.92482   1.92686   1.93180
 Alpha virt. eigenvalues --    1.93385   1.94164   1.94793   1.94956   1.95312
 Alpha virt. eigenvalues --    1.96234   1.96289   1.97086   1.98186   1.99006
 Alpha virt. eigenvalues --    1.99930   2.00489   2.01305   2.02355   2.03157
 Alpha virt. eigenvalues --    2.03727   2.04262   2.04988   2.05471   2.06636
 Alpha virt. eigenvalues --    2.07710   2.08093   2.08975   2.10184   2.10608
 Alpha virt. eigenvalues --    2.11182   2.12155   2.13194   2.13480   2.14464
 Alpha virt. eigenvalues --    2.14586   2.14992   2.16367   2.17014   2.17103
 Alpha virt. eigenvalues --    2.18200   2.18372   2.18888   2.19650   2.20437
 Alpha virt. eigenvalues --    2.21417   2.22436   2.22640   2.23195   2.25071
 Alpha virt. eigenvalues --    2.25669   2.26166   2.27353   2.28129   2.28384
 Alpha virt. eigenvalues --    2.29018   2.29598   2.30855   2.31208   2.32720
 Alpha virt. eigenvalues --    2.33902   2.34436   2.34964   2.35874   2.36523
 Alpha virt. eigenvalues --    2.36636   2.37457   2.38266   2.39713   2.41031
 Alpha virt. eigenvalues --    2.41755   2.43352   2.44191   2.44609   2.45712
 Alpha virt. eigenvalues --    2.47353   2.47898   2.48057   2.48603   2.49602
 Alpha virt. eigenvalues --    2.50714   2.50971   2.51579   2.52177   2.52767
 Alpha virt. eigenvalues --    2.53535   2.54103   2.55138   2.56131   2.56270
 Alpha virt. eigenvalues --    2.57143   2.58169   2.58665   2.59618   2.59786
 Alpha virt. eigenvalues --    2.60699   2.62558   2.62838   2.63044   2.63896
 Alpha virt. eigenvalues --    2.64700   2.64975   2.66059   2.66366   2.68658
 Alpha virt. eigenvalues --    2.68862   2.70213   2.70748   2.72386   2.73262
 Alpha virt. eigenvalues --    2.75866   2.77272   2.81406   2.84208   2.86083
 Alpha virt. eigenvalues --    2.86606   2.87471   2.87965   2.89036   2.90388
 Alpha virt. eigenvalues --    2.91399   2.91836   2.92034   2.92995   2.96910
 Alpha virt. eigenvalues --    2.98886   2.99225   2.99434   2.99996   3.02769
 Alpha virt. eigenvalues --    3.08150   3.12462   3.12850   3.31480   3.67884
 Alpha virt. eigenvalues --    3.78605   3.80325   3.80768   3.85730   3.88014
 Alpha virt. eigenvalues --    3.90731   3.92238   3.94536   3.96892   3.97949
 Alpha virt. eigenvalues --    3.99888   4.03514   4.04573   4.06141   4.08471
 Alpha virt. eigenvalues --    4.10609   4.11592   4.12156   4.14119   4.16677
 Alpha virt. eigenvalues --    4.18484   4.19289   4.21403   4.24422   4.27526
 Alpha virt. eigenvalues --    4.28024   4.31213   4.32520   4.35012   4.37809
 Alpha virt. eigenvalues --    4.40536   4.44834   4.47301   4.49902   4.51717
 Alpha virt. eigenvalues --    4.52866   4.55230   4.65574   4.66629   4.68083
 Alpha virt. eigenvalues --    4.69278
          Condensed to atoms (all electrons):
 Mulliken charges:
               1
     1  N   -0.812685
     2  C   -0.096770
     3  C    0.573368
     4  O   -0.445086
     5  C   -0.322809
     6  C   -0.375995
     7  C    0.628343
     8  O   -0.454151
     9  O   -0.612014
    10  H    0.444808
    11  H    0.447666
    12  H    0.220887
    13  H    0.201059
    14  H    0.223995
    15  H    0.200814
    16  H    0.210658
    17  H    0.405354
    18  H    0.428224
    19  N   -0.601834
    20  C   -0.103405
    21  C    0.628751
    22  O   -0.509460
    23  C   -0.347264
    24  C    0.011808
    25  C   -0.028769
    26  C    0.065950
    27  C    0.287703
    28  C   -0.221575
    29  N   -0.674316
    30  C   -0.172618
    31  C   -0.171910
    32  C   -0.212763
    33  H    0.378253
    34  H    0.129954
    35  H    0.198270
    36  H    0.189410
    37  H    0.191374
    38  H    0.354969
    39  H    0.222261
    40  H    0.158962
    41  H    0.169737
    42  H    0.165123
    43  N   -0.605600
    44  C   -0.069543
    45  C    0.612945
    46  O   -0.503880
    47  C    0.136813
    48  C   -0.479935
    49  O   -0.679398
    50  H    0.456900
    51  H    0.373512
    52  H    0.124200
    53  H    0.129109
    54  H    0.199805
    55  H    0.152594
    56  H    0.167112
    57  N   -0.620532
    58  C   -0.059074
    59  C    0.629971
    60  O   -0.592675
    61  C   -0.311936
    62  C   -0.298347
    63  C   -0.173204
    64  N   -0.607377
    65  C    0.764234
    66  N   -0.781845
    67  N   -0.763767
    68  O   -0.562351
    69  H    0.341064
    70  H    0.128427
    71  H    0.182775
    72  H    0.111752
    73  H    0.133287
    74  H    0.193488
    75  H    0.173003
    76  H    0.223855
    77  H    0.368117
    78  H    0.351837
    79  H    0.451275
    80  H    0.364554
    81  H    0.364562
 Sum of Mulliken charges =   1.00000
 Mulliken charges with hydrogens summed into heavy atoms:
               1
     1  N    0.468559
     2  C    0.124117
     3  C    0.573368
     4  O   -0.445086
     5  C    0.102245
     6  C    0.035477
     7  C    0.628343
     8  O   -0.454151
     9  O   -0.167206
    19  N   -0.223581
    20  C    0.026548
    21  C    0.628751
    22  O   -0.509460
    23  C    0.040416
    24  C    0.011808
    25  C    0.162605
    26  C    0.065950
    27  C    0.287703
    28  C    0.000686
    29  N   -0.319347
    30  C   -0.013657
    31  C   -0.002172
    32  C   -0.047641
    43  N   -0.232089
    44  C    0.054657
    45  C    0.612945
    46  O   -0.503880
    47  C    0.265922
    48  C    0.039575
    49  O   -0.222498
    57  N   -0.279467
    58  C    0.069353
    59  C    0.629971
    60  O   -0.592675
    61  C   -0.017409
    62  C    0.028427
    63  C    0.223653
    64  N   -0.239260
    65  C    0.764234
    66  N    0.021267
    67  N   -0.034650
    68  O   -0.562351
 Electronic spatial extent (au):  <R**2>=        1392075.4458
 Charge=              1.0000 electrons
 Dipole moment (field-independent basis, Debye):
    X=             41.8303    Y=            131.0679    Z=             54.3641  Tot=            147.9325
 Quadrupole moment (field-independent basis, Debye-Ang):
   XX=            107.0803   YY=           3274.6796   ZZ=            486.9947
   XY=           1130.0190   XZ=            502.5280   YZ=           1461.8870
 Traceless Quadrupole moment (field-independent basis, Debye-Ang):
   XX=          -1182.5046   YY=           1985.0947   ZZ=           -802.5902
   XY=           1130.0190   XZ=            502.5280   YZ=           1461.8870
 Octapole moment (field-independent basis, Debye-Ang**2):
  XXX=          -4584.9594  YYY=          69185.9039  ZZZ=           2023.7458  XYY=          27610.0988
  XXY=           1582.0372  XXZ=           1601.5110  XZZ=           4647.6884  YZZ=          12054.7511
  YYZ=          35743.5626  XYZ=          13449.4357
 Hexadecapole moment (field-independent basis, Debye-Ang**3):
 XXXX=        -136274.9144 YYYY=         871653.0792 ZZZZ=         -53032.5194 XXXY=        -161773.1120
 XXXZ=         -50601.6911 YYYX=         550570.1387 YYYZ=         723584.5580 ZZZX=          19133.7802
 ZZZY=          19701.6623 XXYY=         -29203.9346 XXZZ=           5466.8040 YYZZ=         247041.0941
 XXYZ=          27650.8937 YYXZ=         325027.4949 ZZXY=         114640.3514
 N-N= 5.768704551717D+03 E-N=-1.629240746370D+04  KE= 2.035174197400D+03
 Unable to Open any file for archive entry.
 1\1\GINC-SKL-137\SP\RB3LYP\6-31G(d)\C26H39N8O8(1+)\KENGMITH\27-May-202
 2\0\\# B3LYP/6-31G* empiricaldispersion=gd3 guess=read geom=check nosy
 mm integral(ultrafinegrid)\\Candidate Structure: Conf:883 Charge calc 
 in gas phase\\1,1\N,0,11.1629413851,28.2750380215,13.3737009315\C,0,11
 .9918306458,28.6403880194,12.1539062094\C,0,13.2971347265,29.333807701
 9,12.6322058491\O,0,14.3501454787,28.8606840829,12.2442438939\C,0,11.1
 802423553,29.3875057067,11.0824480292\C,0,10.1554236237,28.52565433,10
 .2952753318\C,0,8.736206969,28.5871418001,10.8253440014\O,0,7.74200640
 68,28.7956147657,10.1696928932\O,0,8.6909933597,28.3840442492,12.16928
 25833\H,0,7.8066280828,28.5964864606,12.5443501083\H,0,10.1616438395,2
 8.1563920631,13.1324268005\H,0,12.3398306475,27.6976937065,11.72795670
 64\H,0,10.6761328013,30.2623925839,11.4981866124\H,0,11.9195437996,29.
 7698196621,10.3713431304\H,0,10.469366835,27.4731163519,10.2718913424\
 H,0,10.1068015918,28.8595466589,9.2571630325\H,0,11.5140934766,27.4184
 977303,13.8096251867\H,0,11.2216908713,29.015834817,14.1050200405\N,0,
 13.2130719263,30.3322827143,13.5718723872\C,0,12.2561611302,31.4518514
 02,13.6213832059\C,0,13.0555069604,32.7122255781,13.198298196\O,0,14.2
 2472257,32.7911597155,13.5674663905\C,0,11.6885397297,31.6513645046,15
 .0510261836\C,0,10.7380197013,30.5621018714,15.4483402684\C,0,10.99865
 36225,29.4901648504,16.2746525938\C,0,9.3712741697,30.4021781378,14.98
 94173544\C,0,8.8804235747,29.1904571994,15.5532012056\C,0,8.5234748845
 ,31.175595528,14.1746927207\N,0,9.9051633291,28.6399603937,16.30933330
 27\C,0,7.5875311895,28.7168088699,15.3049679956\C,0,7.228164122,30.720
 4301329,13.9482098519\C,0,6.7666277992,29.5003642485,14.4941821727\H,0
 ,14.145025795,30.6847953323,13.8106911744\H,0,11.4280696091,31.2530733
 559,12.9459893224\H,0,11.1745807763,32.6183200899,15.0843455813\H,0,12
 .533152377,31.7167885104,15.7441876143\H,0,11.8929626171,29.2647620311
 ,16.8400111884\H,0,9.7825398242,27.8990966544,16.9854710758\H,0,8.8283
 09652,32.1350923679,13.7640927411\H,0,7.2253995169,27.7947458253,15.75
 06642317\H,0,6.549691782,31.3322499324,13.3634918353\H,0,5.7408416546,
 29.1888286368,14.3174863786\N,0,12.4363961103,33.6640918227,12.4690496
 808\C,0,11.0697867637,33.6962196337,11.9534492954\C,0,11.1829362641,34
 .2150520702,10.5070783651\O,0,12.0537967751,35.0450929318,10.265224711
 5\C,0,10.1403260286,34.5442929291,12.8841558449\C,0,10.3293001113,36.0
 511865917,12.7293098237\O,0,8.7955925072,34.1404550531,12.7309108069\H
 ,0,8.4542171284,34.5767096043,11.9028559095\H,0,13.0232682008,34.43705
 55798,12.1639136267\H,0,10.6754335198,32.6831538204,11.95158447\H,0,10
 .4277673938,34.2544322917,13.9039310484\H,0,9.9986842713,36.380055358,
 11.7407045513\H,0,11.3787096315,36.335599572,12.8573424678\H,0,9.72929
 24999,36.5656849819,13.48517297\N,0,10.4602250922,33.6567211668,9.4744
 500128\C,0,9.0528831243,33.2277697128,9.342025662\C,0,8.0726910965,34.
 4425985807,9.3908926294\O,0,7.2607969998,34.5320494695,8.4198085488\C,
 0,8.6195011737,32.101023402,10.2994077368\C,0,7.1041006139,31.90566478
 16,10.489724511\C,0,6.2205495962,31.7464136826,9.2413340477\N,0,6.8330
 766296,30.9303498013,8.1856045362\C,0,7.1220512247,31.3482113163,6.945
 2707761\N,0,7.1277359113,32.6312894835,6.6184010213\N,0,7.4580514754,3
 0.3884506036,6.033486133\O,0,8.1442445103,35.2006791739,10.3785384701\
 H,0,10.7585598689,34.1361234923,8.6277053112\H,0,9.015224241,32.823165
 0523,8.3286908214\H,0,8.9922610015,32.302055063,11.3012303688\H,0,9.07
 71192531,31.1691289803,9.9474150577\H,0,6.9773117139,31.0226947363,11.
 1228310401\H,0,6.7100119902,32.7569496274,11.0564412228\H,0,5.27679411
 3,31.2672122558,9.5248280547\H,0,5.9810838663,32.7211987423,8.82426897
 87\H,0,7.11277197,29.9907001162,8.4474318352\H,0,7.1735351567,32.88376
 26997,5.640322357\H,0,7.1917980362,33.4348270593,7.3516405802\H,0,7.00
 69772154,29.4857025713,6.0964884451\H,0,7.7155822013,30.675758714,5.09
 95979646\\Version=ES64L-G16RevC.01\HF=-2054.0271657\RMSD=9.324e-09\Dip
 ole=-2.0001053,-7.8410534,-0.8892361\Quadrupole=-879.1631579,1475.8692
 855,-596.7061276,840.1414453,373.6172156,1086.877147\PG=C01 [X(C26H39N
 8O8)]\\@
 The archive entry for this job was punched.


 THERE IS AN OLD, OLD RECIPE IN MAINE FOR STEWING COOT. PLACE THE
 BIRD IN A KETTLE OF WATER WITH A RED BUILDING BRICK FREE OF MORTAR AND
 BLEMISHES. PARBOIL THE COOT AND BRICK TOGETHER FOR THREE HOURS.
 POUR OFF THE WATER, REFILL THE KETTLE, AND AGAIN PARBOIL FOR THREE HOURS.
 ONCE AGAIN POUR OFF THE WATER, FOR THE LAST TIME ADD FRESH WATER,
 AND LET THE COOT AND BRICK SIMMER TOGETHER OVERNIGHT. IN THE MORNING,
 THROW AWAY THE COOT AND EAT THE BRICK.
 Job cpu time:       0 days  0 hours  2 minutes 28.1 seconds.
 Elapsed time:       0 days  0 hours  0 minutes 37.9 seconds.
 File lengths (MBytes):  RWF=    376 Int=      0 D2E=      0 Chk=     56 Scr=     16
 Normal termination of Gaussian 16 at Fri May 27 05:10:42 2022.
