 Entering Gaussian System, Link 0=/opt/software/Gaussian/g16-AVX2-C.01/g16/g16
 Input=charge-conf-962.com
 Output=charge-conf-962.log
 Initial command:
 /opt/software/Gaussian/g16-AVX2-C.01/g16/l1.exe "/mnt/gs18/scratch/users/kengmith/Gau-18195.inp" -scrdir="/mnt/gs18/scratch/users/kengmith/"
 Entering Link 1 = /opt/software/Gaussian/g16-AVX2-C.01/g16/l1.exe PID=     18205.
  
 Copyright (c) 1988-2019, Gaussian, Inc.  All Rights Reserved.
  
 This is part of the Gaussian(R) 16 program.  It is based on
 the Gaussian(R) 09 system (copyright 2009, Gaussian, Inc.),
 the Gaussian(R) 03 system (copyright 2003, Gaussian, Inc.),
 the Gaussian(R) 98 system (copyright 1998, Gaussian, Inc.),
 the Gaussian(R) 94 system (copyright 1995, Gaussian, Inc.),
 the Gaussian 92(TM) system (copyright 1992, Gaussian, Inc.),
 the Gaussian 90(TM) system (copyright 1990, Gaussian, Inc.),
 the Gaussian 88(TM) system (copyright 1988, Gaussian, Inc.),
 the Gaussian 86(TM) system (copyright 1986, Carnegie Mellon
 University), and the Gaussian 82(TM) system (copyright 1983,
 Carnegie Mellon University). Gaussian is a federally registered
 trademark of Gaussian, Inc.
  
 This software contains proprietary and confidential information,
 including trade secrets, belonging to Gaussian, Inc.
  
 This software is provided under written license and may be
 used, copied, transmitted, or stored only in accord with that
 written license.
  
 The following legend is applicable only to US Government
 contracts under FAR:
  
                    RESTRICTED RIGHTS LEGEND
  
 Use, reproduction and disclosure by the US Government is
 subject to restrictions as set forth in subparagraphs (a)
 and (c) of the Commercial Computer Software - Restricted
 Rights clause in FAR 52.227-19.
  
 Gaussian, Inc.
 340 Quinnipiac St., Bldg. 40, Wallingford CT 06492
  
  
 ---------------------------------------------------------------
 Warning -- This program may not be used in any manner that
 competes with the business of Gaussian, Inc. or will provide
 assistance to any competitor of Gaussian, Inc.  The licensee
 of this program is prohibited from giving any competitor of
 Gaussian, Inc. access to this program.  By using this program,
 the user acknowledges that Gaussian, Inc. is engaged in the
 business of creating and licensing software in the field of
 computational chemistry and represents and warrants to the
 licensee that it is not a competitor of Gaussian, Inc. and that
 it will not use this program in any manner prohibited above.
 ---------------------------------------------------------------
  

 Cite this work as:
 Gaussian 16, Revision C.01,
 M. J. Frisch, G. W. Trucks, H. B. Schlegel, G. E. Scuseria, 
 M. A. Robb, J. R. Cheeseman, G. Scalmani, V. Barone, 
 G. A. Petersson, H. Nakatsuji, X. Li, M. Caricato, A. V. Marenich, 
 J. Bloino, B. G. Janesko, R. Gomperts, B. Mennucci, H. P. Hratchian, 
 J. V. Ortiz, A. F. Izmaylov, J. L. Sonnenberg, D. Williams-Young, 
 F. Ding, F. Lipparini, F. Egidi, J. Goings, B. Peng, A. Petrone, 
 T. Henderson, D. Ranasinghe, V. G. Zakrzewski, J. Gao, N. Rega, 
 G. Zheng, W. Liang, M. Hada, M. Ehara, K. Toyota, R. Fukuda, 
 J. Hasegawa, M. Ishida, T. Nakajima, Y. Honda, O. Kitao, H. Nakai, 
 T. Vreven, K. Throssell, J. A. Montgomery, Jr., J. E. Peralta, 
 F. Ogliaro, M. J. Bearpark, J. J. Heyd, E. N. Brothers, K. N. Kudin, 
 V. N. Staroverov, T. A. Keith, R. Kobayashi, J. Normand, 
 K. Raghavachari, A. P. Rendell, J. C. Burant, S. S. Iyengar, 
 J. Tomasi, M. Cossi, J. M. Millam, M. Klene, C. Adamo, R. Cammi, 
 J. W. Ochterski, R. L. Martin, K. Morokuma, O. Farkas, 
 J. B. Foresman, and D. J. Fox, Gaussian, Inc., Wallingford CT, 2019.
 
 ******************************************
 Gaussian 16:  ES64L-G16RevC.01  3-Jul-2019
                27-May-2022 
 ******************************************
 %mem=8gb
 %nproc=4
 Will use up to    4 processors via shared memory.
 %chk=conf-962.chk
 ----------------------------------------------------------------------
 # B3LYP/6-31G* empiricaldispersion=gd3 guess=read geom=check nosymm in
 tegral(ultrafinegrid)
 ----------------------------------------------------------------------
 1/29=2,38=1,172=1/1;
 2/12=2,15=1,40=1/2;
 3/5=1,6=6,7=1,11=2,14=-4,25=1,30=1,74=-5,75=-5,116=-2,124=31/1,2,3;
 4/5=1/1;
 5/5=2,38=6/2;
 6/7=2,8=2,9=2,10=2,28=1/1;
 99/5=1,9=1/99;
 ------------------------------------------------------
 Candidate Structure: Conf:962 Charge calc in gas phase
 ------------------------------------------------------
 Structure from the checkpoint file:  "conf-962.chk"
 Charge =  1 Multiplicity = 1
 Redundant internal coordinates found in file.  (old form).
 N,0,14.1993608084,31.9886286862,12.5306362903
 C,0,12.9705437149,32.8670193424,12.6572809283
 C,0,12.745309487,32.917158989,14.1997328166
 O,0,13.7838685329,33.1174209974,14.8380379713
 C,0,11.8605615734,32.5175475969,11.6770327488
 C,0,12.2234996833,32.6787663643,10.1731304109
 C,0,12.4986409033,31.3430226788,9.5199737431
 O,0,11.8873538016,30.8612864959,8.5912881721
 O,0,13.5123078487,30.692504189,10.1380690636
 H,0,13.5079696902,29.757335628,9.8439362924
 H,0,13.9883219407,30.9879245556,12.7270552164
 H,0,13.3313880205,33.8767285621,12.4274032734
 H,0,11.4883894569,31.509315008,11.8667857995
 H,0,11.0444111086,33.2108401419,11.8950118225
 H,0,13.0952950325,33.3333756952,10.0394082362
 H,0,11.3946856943,33.1374298397,9.6317788517
 H,0,14.6354573902,32.0320857487,11.6066952139
 H,0,14.8314717735,32.3266907928,13.2777799546
 N,0,11.5205238791,32.905735036,14.7536782118
 C,0,10.3085691877,32.1458249983,14.4349077081
 C,0,9.1941845601,32.8107147092,15.2777550255
 O,0,9.5077457501,33.2974040961,16.3630568404
 C,0,10.4497727161,30.6559653461,14.8743378341
 C,0,11.5389744215,29.9175696764,14.1623725776
 C,0,12.8524940588,29.8462866842,14.5317254597
 C,0,11.4134806922,29.1843635637,12.9142918908
 C,0,12.702198088,28.70685479,12.5748666269
 C,0,10.3196603243,28.8754438318,12.0851756565
 N,0,13.6030745977,29.1929484056,13.5345032316
 C,0,12.9390888632,27.9227699852,11.4420896098
 C,0,10.551854203,28.104414264,10.949796206
 C,0,11.8416368214,27.6320424405,10.6306016089
 H,0,11.512129774,33.1780413423,15.7404890073
 H,0,10.0856197006,32.1994898814,13.3746952
 H,0,9.4930339826,30.1567249055,14.6974438375
 H,0,10.6196419432,30.6531612472,15.9562275348
 H,0,13.3466964182,30.2520920152,15.4040010927
 H,0,14.4429925159,28.6762178716,13.7722111327
 H,0,9.3108005645,29.1947015097,12.3389121434
 H,0,13.9264175609,27.5225339957,11.2235314921
 H,0,9.7159385052,27.8284186045,10.3145072351
 H,0,11.9781398073,27.004731315,9.7546336704
 N,0,7.9363137896,32.8084110707,14.7946200057
 C,0,7.3873311131,32.2041601986,13.5748202821
 C,0,6.3240433107,33.2190132441,13.1057382467
 O,0,5.5802127471,33.6914894204,13.9612578415
 C,0,6.8538819164,30.7555585967,13.8786489371
 C,0,5.4173235095,30.7019102408,14.389955253
 O,0,7.0687348489,29.894872076,12.7716410086
 H,0,6.369512834,30.1204454327,12.1113749517
 H,0,7.2409715119,33.268013801,15.3785747202
 H,0,8.1833870957,32.0974090267,12.8408787214
 H,0,7.5138607677,30.3791865209,14.6688658517
 H,0,4.722040891,31.0260861662,13.6122842772
 H,0,5.2831040951,31.3513373241,15.2597143018
 H,0,5.1809345839,29.671358224,14.6705472562
 N,0,6.3127769835,33.7197050903,11.8292426633
 C,0,6.6514215758,33.1152313068,10.5353643716
 C,0,5.8094791844,31.8405784754,10.2224915303
 O,0,5.6817122898,31.5699923916,8.9890283312
 C,0,8.1811113595,32.8804648132,10.3113138167
 C,0,8.6928059304,31.4253837658,10.2631526385
 C,0,8.539470083,30.6743329196,8.9290241476
 N,0,9.1233503871,31.3904086513,7.7878868704
 C,0,8.4580837512,32.1365206235,6.8981558785
 N,0,7.1744514948,32.4295087793,7.0329812731
 N,0,9.1811345478,32.6414583352,5.8525674637
 O,0,5.3710433987,31.1828519208,11.1835867873
 H,0,5.5343720195,34.3689034282,11.760496556
 H,0,6.3421395555,33.870871134,9.8089512752
 H,0,8.7031569986,33.4198183625,11.1110830548
 H,0,8.4776019909,33.3863984257,9.3850810743
 H,0,9.760707991,31.426317397,10.5036517274
 H,0,8.2097265459,30.8209244811,11.0351807942
 H,0,9.0752431139,29.7235137794,8.9997602655
 H,0,7.4954460451,30.4547012341,8.7126952465
 H,0,10.1388726873,31.3929544414,7.7516016354
 H,0,6.6852027439,32.8309787698,6.2443713505
 H,0,6.5673907419,32.1413048946,7.8842691435
 H,0,9.9667233611,32.1021623116,5.5142862047
 H,0,8.6933811888,33.1671616073,5.1406858658
 Recover connectivity data from disk.
                           ----------------------------
                           !    Current Parameters    !
                           ! (Angstroms and Degrees)  !
 --------------------------                            --------------------------
 ! Name  Definition              Value                                          !
 --------------------------------------------------------------------------------
 ! R1    R(1,2)                  1.5158                                         !
 ! R2    R(1,11)                 1.0414                                         !
 ! R3    R(1,17)                 1.0226                                         !
 ! R4    R(1,18)                 1.0354                                         !
 ! R5    R(2,3)                  1.5596                                         !
 ! R6    R(2,5)                  1.5215                                         !
 ! R7    R(2,12)                 1.0966                                         !
 ! R8    R(3,4)                  1.2354                                         !
 ! R9    R(3,19)                 1.3443                                         !
 ! R10   R(5,6)                  1.5555                                         !
 ! R11   R(5,13)                 1.0914                                         !
 ! R12   R(5,14)                 1.0928                                         !
 ! R13   R(6,7)                  1.5121                                         !
 ! R14   R(6,15)                 1.0984                                         !
 ! R15   R(6,16)                 1.091                                          !
 ! R16   R(7,8)                  1.2117                                         !
 ! R17   R(7,9)                  1.3538                                         !
 ! R18   R(9,10)                 0.9803                                         !
 ! R19   R(19,20)                1.4656                                         !
 ! R20   R(19,33)                1.0237                                         !
 ! R21   R(20,21)                1.5474                                         !
 ! R22   R(20,23)                1.5597                                         !
 ! R23   R(20,34)                1.0847                                         !
 ! R24   R(21,22)                1.2301                                         !
 ! R25   R(21,43)                1.3475                                         !
 ! R26   R(23,24)                1.4962                                         !
 ! R27   R(23,35)                1.0936                                         !
 ! R28   R(23,36)                1.0951                                         !
 ! R29   R(24,25)                1.3663                                         !
 ! R30   R(24,26)                1.4529                                         !
 ! R31   R(25,29)                1.4088                                         !
 ! R32   R(25,37)                1.0816                                         !
 ! R33   R(26,27)                1.4156                                         !
 ! R34   R(26,28)                1.4069                                         !
 ! R35   R(27,29)                1.4031                                         !
 ! R36   R(27,30)                1.3979                                         !
 ! R37   R(28,31)                1.3919                                         !
 ! R38   R(28,39)                1.0882                                         !
 ! R39   R(29,38)                1.0144                                         !
 ! R40   R(30,32)                1.3955                                         !
 ! R41   R(30,40)                1.0876                                         !
 ! R42   R(31,32)                1.4102                                         !
 ! R43   R(31,41)                1.0856                                         !
 ! R44   R(32,42)                1.086                                          !
 ! R45   R(43,44)                1.4678                                         !
 ! R46   R(43,51)                1.0177                                         !
 ! R47   R(44,45)                1.5429                                         !
 ! R48   R(44,47)                1.5733                                         !
 ! R49   R(44,52)                1.088                                          !
 ! R50   R(45,46)                1.2282                                         !
 ! R51   R(45,57)                1.3712                                         !
 ! R52   R(47,48)                1.5258                                         !
 ! R53   R(47,49)                1.4186                                         !
 ! R54   R(47,53)                1.0962                                         !
 ! R55   R(48,54)                1.0924                                         !
 ! R56   R(48,55)                1.0937                                         !
 ! R57   R(48,56)                1.0939                                         !
 ! R58   R(49,50)                0.9878                                         !
 ! R59   R(57,58)                1.4677                                         !
 ! R60   R(57,69)                1.0159                                         !
 ! R61   R(58,59)                1.5593                                         !
 ! R62   R(58,61)                1.5637                                         !
 ! R63   R(58,70)                1.0929                                         !
 ! R64   R(59,60)                1.2692                                         !
 ! R65   R(59,68)                1.2444                                         !
 ! R66   R(61,62)                1.5432                                         !
 ! R67   R(61,71)                1.0968                                         !
 ! R68   R(61,72)                1.0963                                         !
 ! R69   R(62,63)                1.5387                                         !
 ! R70   R(62,73)                1.0946                                         !
 ! R71   R(62,74)                1.0931                                         !
 ! R72   R(63,64)                1.4683                                         !
 ! R73   R(63,75)                1.0937                                         !
 ! R74   R(63,76)                1.0886                                         !
 ! R75   R(64,65)                1.3382                                         !
 ! R76   R(64,77)                1.0162                                         !
 ! R77   R(65,66)                1.3235                                         !
 ! R78   R(65,67)                1.3679                                         !
 ! R79   R(66,78)                1.0112                                         !
 ! R80   R(66,79)                1.0846                                         !
 ! R81   R(67,80)                1.0111                                         !
 ! R82   R(67,81)                1.0105                                         !
 ! A1    A(2,1,11)             112.136                                          !
 ! A2    A(2,1,17)             113.3646                                         !
 ! A3    A(2,1,18)             104.2067                                         !
 ! A4    A(11,1,17)            107.3175                                         !
 ! A5    A(11,1,18)            107.5391                                         !
 ! A6    A(17,1,18)            112.194                                          !
 ! A7    A(1,2,3)              102.6114                                         !
 ! A8    A(1,2,5)              113.8582                                         !
 ! A9    A(1,2,12)             104.4361                                         !
 ! A10   A(3,2,5)              122.6284                                         !
 ! A11   A(3,2,12)             103.0168                                         !
 ! A12   A(5,2,12)             108.4501                                         !
 ! A13   A(2,3,4)              113.2539                                         !
 ! A14   A(2,3,19)             122.6052                                         !
 ! A15   A(4,3,19)             123.6707                                         !
 ! A16   A(2,5,6)              115.3959                                         !
 ! A17   A(2,5,13)             110.4233                                         !
 ! A18   A(2,5,14)             105.7002                                         !
 ! A19   A(6,5,13)             110.0861                                         !
 ! A20   A(6,5,14)             107.5391                                         !
 ! A21   A(13,5,14)            107.2609                                         !
 ! A22   A(5,6,7)              111.6249                                         !
 ! A23   A(5,6,15)             111.388                                          !
 ! A24   A(5,6,16)             110.2462                                         !
 ! A25   A(7,6,15)             109.2356                                         !
 ! A26   A(7,6,16)             107.1729                                         !
 ! A27   A(15,6,16)            106.9776                                         !
 ! A28   A(6,7,8)              126.1898                                         !
 ! A29   A(6,7,9)              111.3151                                         !
 ! A30   A(8,7,9)              122.4548                                         !
 ! A31   A(7,9,10)             108.5467                                         !
 ! A32   A(3,19,20)            131.9297                                         !
 ! A33   A(3,19,33)            113.73                                           !
 ! A34   A(20,19,33)           109.9257                                         !
 ! A35   A(19,20,21)           104.731                                          !
 ! A36   A(19,20,23)           111.0473                                         !
 ! A37   A(19,20,34)           110.9102                                         !
 ! A38   A(21,20,23)           108.7951                                         !
 ! A39   A(21,20,34)           111.2912                                         !
 ! A40   A(23,20,34)           109.9521                                         !
 ! A41   A(20,21,22)           117.8412                                         !
 ! A42   A(20,21,43)           118.4415                                         !
 ! A43   A(22,21,43)           123.7103                                         !
 ! A44   A(20,23,24)           113.7823                                         !
 ! A45   A(20,23,35)           108.1377                                         !
 ! A46   A(20,23,36)           107.1464                                         !
 ! A47   A(24,23,35)           109.55                                           !
 ! A48   A(24,23,36)           110.8497                                         !
 ! A49   A(35,23,36)           107.1177                                         !
 ! A50   A(23,24,25)           126.6536                                         !
 ! A51   A(23,24,26)           126.5083                                         !
 ! A52   A(25,24,26)           106.7931                                         !
 ! A53   A(24,25,29)           110.1841                                         !
 ! A54   A(24,25,37)           129.6218                                         !
 ! A55   A(29,25,37)           120.0955                                         !
 ! A56   A(24,26,27)           107.3107                                         !
 ! A57   A(24,26,28)           133.1723                                         !
 ! A58   A(27,26,28)           119.4989                                         !
 ! A59   A(26,27,29)           107.6767                                         !
 ! A60   A(26,27,30)           122.5318                                         !
 ! A61   A(29,27,30)           129.772                                          !
 ! A62   A(26,28,31)           118.206                                          !
 ! A63   A(26,28,39)           121.2636                                         !
 ! A64   A(31,28,39)           120.4889                                         !
 ! A65   A(25,29,27)           107.6206                                         !
 ! A66   A(25,29,38)           120.7647                                         !
 ! A67   A(27,29,38)           121.0252                                         !
 ! A68   A(27,30,32)           117.0523                                         !
 ! A69   A(27,30,40)           121.5417                                         !
 ! A70   A(32,30,40)           121.3601                                         !
 ! A71   A(28,31,32)           121.5174                                         !
 ! A72   A(28,31,41)           119.3219                                         !
 ! A73   A(32,31,41)           119.1206                                         !
 ! A74   A(30,32,31)           121.1898                                         !
 ! A75   A(30,32,42)           119.3744                                         !
 ! A76   A(31,32,42)           119.4075                                         !
 ! A77   A(21,43,44)           130.3779                                         !
 ! A78   A(21,43,51)           115.5504                                         !
 ! A79   A(44,43,51)           114.0299                                         !
 ! A80   A(43,44,45)           103.8649                                         !
 ! A81   A(43,44,47)           110.2044                                         !
 ! A82   A(43,44,52)           109.1071                                         !
 ! A83   A(45,44,47)           115.5098                                         !
 ! A84   A(45,44,52)           111.3259                                         !
 ! A85   A(47,44,52)           106.7387                                         !
 ! A86   A(44,45,46)           117.2989                                         !
 ! A87   A(44,45,57)           121.9284                                         !
 ! A88   A(46,45,57)           120.1991                                         !
 ! A89   A(44,47,48)           114.6025                                         !
 ! A90   A(44,47,49)           110.89                                           !
 ! A91   A(44,47,53)           104.5485                                         !
 ! A92   A(48,47,49)           112.5054                                         !
 ! A93   A(48,47,53)           108.2527                                         !
 ! A94   A(49,47,53)           105.2503                                         !
 ! A95   A(47,48,54)           110.5035                                         !
 ! A96   A(47,48,55)           111.1708                                         !
 ! A97   A(47,48,56)           108.8166                                         !
 ! A98   A(54,48,55)           108.1682                                         !
 ! A99   A(54,48,56)           108.9437                                         !
 ! A100  A(55,48,56)           109.201                                          !
 ! A101  A(47,49,50)           106.0126                                         !
 ! A102  A(45,57,58)           131.9421                                         !
 ! A103  A(45,57,69)           107.6152                                         !
 ! A104  A(58,57,69)           112.353                                          !
 ! A105  A(57,58,59)           112.8899                                         !
 ! A106  A(57,58,61)           114.4467                                         !
 ! A107  A(57,58,70)           103.6449                                         !
 ! A108  A(59,58,61)           112.1302                                         !
 ! A109  A(59,58,70)           106.2026                                         !
 ! A110  A(61,58,70)           106.5836                                         !
 ! A111  A(58,59,60)           115.0627                                         !
 ! A112  A(58,59,68)           117.8608                                         !
 ! A113  A(60,59,68)           127.0433                                         !
 ! A114  A(58,61,62)           118.0601                                         !
 ! A115  A(58,61,71)           106.696                                          !
 ! A116  A(58,61,72)           108.4416                                         !
 ! A117  A(62,61,71)           109.1837                                         !
 ! A118  A(62,61,72)           108.6093                                         !
 ! A119  A(71,61,72)           105.0939                                         !
 ! A120  A(61,62,63)           117.0178                                         !
 ! A121  A(61,62,73)           108.4104                                         !
 ! A122  A(61,62,74)           110.6612                                         !
 ! A123  A(63,62,73)           106.7464                                         !
 ! A124  A(63,62,74)           107.364                                          !
 ! A125  A(73,62,74)           106.0484                                         !
 ! A126  A(62,63,64)           113.3405                                         !
 ! A127  A(62,63,75)           108.6304                                         !
 ! A128  A(62,63,76)           111.4916                                         !
 ! A129  A(64,63,75)           106.2275                                         !
 ! A130  A(64,63,76)           108.9856                                         !
 ! A131  A(75,63,76)           107.8953                                         !
 ! A132  A(63,64,65)           126.2234                                         !
 ! A133  A(63,64,77)           115.238                                          !
 ! A134  A(65,64,77)           118.1424                                         !
 ! A135  A(64,65,66)           122.5359                                         !
 ! A136  A(64,65,67)           116.8236                                         !
 ! A137  A(66,65,67)           120.5852                                         !
 ! A138  A(65,66,78)           118.5358                                         !
 ! A139  A(65,66,79)           124.3321                                         !
 ! A140  A(78,66,79)           116.5411                                         !
 ! A141  A(65,67,80)           118.004                                          !
 ! A142  A(65,67,81)           118.3868                                         !
 ! A143  A(80,67,81)           114.6333                                         !
 ! D1    D(11,1,2,3)            72.8083                                         !
 ! D2    D(11,1,2,5)           -61.8674                                         !
 ! D3    D(11,1,2,12)         -179.9785                                         !
 ! D4    D(17,1,2,3)          -165.4701                                         !
 ! D5    D(17,1,2,5)            59.8541                                         !
 ! D6    D(17,1,2,12)          -58.257                                          !
 ! D7    D(18,1,2,3)           -43.2052                                         !
 ! D8    D(18,1,2,5)          -177.8809                                         !
 ! D9    D(18,1,2,12)           64.0079                                         !
 ! D10   D(1,2,3,4)             45.3039                                         !
 ! D11   D(1,2,3,19)          -142.3029                                         !
 ! D12   D(5,2,3,4)            174.7523                                         !
 ! D13   D(5,2,3,19)           -12.8545                                         !
 ! D14   D(12,2,3,4)           -62.992                                          !
 ! D15   D(12,2,3,19)          109.4013                                         !
 ! D16   D(1,2,5,6)            -62.3545                                         !
 ! D17   D(1,2,5,13)            63.2682                                         !
 ! D18   D(1,2,5,14)           178.9621                                         !
 ! D19   D(3,2,5,6)            173.1304                                         !
 ! D20   D(3,2,5,13)           -61.2469                                         !
 ! D21   D(3,2,5,14)            54.447                                          !
 ! D22   D(12,2,5,6)            53.4255                                         !
 ! D23   D(12,2,5,13)          179.0482                                         !
 ! D24   D(12,2,5,14)          -65.2579                                         !
 ! D25   D(2,3,19,20)           41.079                                          !
 ! D26   D(2,3,19,33)         -165.3829                                         !
 ! D27   D(4,3,19,20)         -147.324                                          !
 ! D28   D(4,3,19,33)            6.214                                          !
 ! D29   D(2,5,6,7)            103.103                                          !
 ! D30   D(2,5,6,15)           -19.3001                                         !
 ! D31   D(2,5,6,16)          -137.901                                          !
 ! D32   D(13,5,6,7)           -22.6928                                         !
 ! D33   D(13,5,6,15)         -145.096                                          !
 ! D34   D(13,5,6,16)           96.3032                                         !
 ! D35   D(14,5,6,7)          -139.2386                                         !
 ! D36   D(14,5,6,15)           98.3582                                         !
 ! D37   D(14,5,6,16)          -20.2427                                         !
 ! D38   D(5,6,7,8)            119.0679                                         !
 ! D39   D(5,6,7,9)            -58.6557                                         !
 ! D40   D(15,6,7,8)          -117.3028                                         !
 ! D41   D(15,6,7,9)            64.9736                                         !
 ! D42   D(16,6,7,8)            -1.7383                                         !
 ! D43   D(16,6,7,9)          -179.462                                          !
 ! D44   D(6,7,9,10)           165.693                                          !
 ! D45   D(8,7,9,10)           -12.1299                                         !
 ! D46   D(3,19,20,21)        -169.3243                                         !
 ! D47   D(3,19,20,23)          73.4095                                         !
 ! D48   D(3,19,20,34)         -49.1672                                         !
 ! D49   D(33,19,20,21)         36.3912                                         !
 ! D50   D(33,19,20,23)        -80.875                                          !
 ! D51   D(33,19,20,34)        156.5483                                         !
 ! D52   D(19,20,21,22)        -31.825                                          !
 ! D53   D(19,20,21,43)        149.1042                                         !
 ! D54   D(23,20,21,22)         86.9743                                         !
 ! D55   D(23,20,21,43)        -92.0965                                         !
 ! D56   D(34,20,21,22)       -151.7278                                         !
 ! D57   D(34,20,21,43)         29.2015                                         !
 ! D58   D(19,20,23,24)        -63.0209                                         !
 ! D59   D(19,20,23,35)        175.0303                                         !
 ! D60   D(19,20,23,36)         59.8671                                         !
 ! D61   D(21,20,23,24)       -177.7778                                         !
 ! D62   D(21,20,23,35)         60.2734                                         !
 ! D63   D(21,20,23,36)        -54.8898                                         !
 ! D64   D(34,20,23,24)         60.1085                                         !
 ! D65   D(34,20,23,35)        -61.8403                                         !
 ! D66   D(34,20,23,36)       -177.0035                                         !
 ! D67   D(20,21,43,44)          3.2979                                         !
 ! D68   D(20,21,43,51)       -179.2235                                         !
 ! D69   D(22,21,43,44)       -175.7143                                         !
 ! D70   D(22,21,43,51)          1.7643                                         !
 ! D71   D(20,23,24,25)         87.8369                                         !
 ! D72   D(20,23,24,26)        -89.3989                                         !
 ! D73   D(35,23,24,25)       -150.9992                                         !
 ! D74   D(35,23,24,26)         31.765                                          !
 ! D75   D(36,23,24,25)        -32.9992                                         !
 ! D76   D(36,23,24,26)        149.7649                                         !
 ! D77   D(23,24,25,29)       -173.1472                                         !
 ! D78   D(23,24,25,37)          3.175                                          !
 ! D79   D(26,24,25,29)          4.5324                                         !
 ! D80   D(26,24,25,37)       -179.1455                                         !
 ! D81   D(23,24,26,27)        176.95                                           !
 ! D82   D(23,24,26,28)         -4.6594                                         !
 ! D83   D(25,24,26,27)         -0.7339                                         !
 ! D84   D(25,24,26,28)        177.6568                                         !
 ! D85   D(24,25,29,27)         -6.6723                                         !
 ! D86   D(24,25,29,38)       -151.5997                                         !
 ! D87   D(37,25,29,27)        176.6015                                         !
 ! D88   D(37,25,29,38)         31.6742                                         !
 ! D89   D(24,26,27,29)         -3.2971                                         !
 ! D90   D(24,26,27,30)        178.1657                                         !
 ! D91   D(28,26,27,29)        178.0514                                         !
 ! D92   D(28,26,27,30)         -0.4858                                         !
 ! D93   D(24,26,28,31)       -178.3021                                         !
 ! D94   D(24,26,28,39)         -0.6347                                         !
 ! D95   D(27,26,28,31)         -0.0675                                         !
 ! D96   D(27,26,28,39)        177.5999                                         !
 ! D97   D(26,27,29,25)          6.0092                                         !
 ! D98   D(26,27,29,38)        150.8269                                         !
 ! D99   D(30,27,29,25)       -175.5955                                         !
 ! D100  D(30,27,29,38)        -30.7778                                         !
 ! D101  D(26,27,30,32)          0.7074                                         !
 ! D102  D(26,27,30,40)       -176.8609                                         !
 ! D103  D(29,27,30,32)       -177.4792                                         !
 ! D104  D(29,27,30,40)          4.9526                                         !
 ! D105  D(26,28,31,32)          0.3684                                         !
 ! D106  D(26,28,31,41)        178.0448                                         !
 ! D107  D(39,28,31,32)       -177.3177                                         !
 ! D108  D(39,28,31,41)          0.3586                                         !
 ! D109  D(27,30,32,31)         -0.3964                                         !
 ! D110  D(27,30,32,42)       -178.4509                                         !
 ! D111  D(40,30,32,31)        177.1766                                         !
 ! D112  D(40,30,32,42)         -0.8779                                         !
 ! D113  D(28,31,32,30)         -0.1348                                         !
 ! D114  D(28,31,32,42)        177.9191                                         !
 ! D115  D(41,31,32,30)       -177.8157                                         !
 ! D116  D(41,31,32,42)          0.2382                                         !
 ! D117  D(21,43,44,45)       -143.6883                                         !
 ! D118  D(21,43,44,47)         92.0128                                         !
 ! D119  D(21,43,44,52)        -24.8768                                         !
 ! D120  D(51,43,44,45)         38.8023                                         !
 ! D121  D(51,43,44,47)        -85.4966                                         !
 ! D122  D(51,43,44,52)        157.6139                                         !
 ! D123  D(43,44,45,46)        -43.9965                                         !
 ! D124  D(43,44,45,57)        127.3289                                         !
 ! D125  D(47,44,45,46)         76.7968                                         !
 ! D126  D(47,44,45,57)       -111.8778                                         !
 ! D127  D(52,44,45,46)       -161.2741                                         !
 ! D128  D(52,44,45,57)         10.0513                                         !
 ! D129  D(43,44,47,48)         86.2603                                         !
 ! D130  D(43,44,47,49)       -145.0305                                         !
 ! D131  D(43,44,47,53)        -32.0811                                         !
 ! D132  D(45,44,47,48)        -31.0326                                         !
 ! D133  D(45,44,47,49)         97.6766                                         !
 ! D134  D(45,44,47,53)       -149.374                                          !
 ! D135  D(52,44,47,48)       -155.3862                                         !
 ! D136  D(52,44,47,49)        -26.677                                          !
 ! D137  D(52,44,47,53)         86.2724                                         !
 ! D138  D(44,45,57,58)         35.2773                                         !
 ! D139  D(44,45,57,69)       -179.4617                                         !
 ! D140  D(46,45,57,58)       -153.6436                                         !
 ! D141  D(46,45,57,69)         -8.3827                                         !
 ! D142  D(44,47,48,54)         66.4156                                         !
 ! D143  D(44,47,48,55)        -53.7049                                         !
 ! D144  D(44,47,48,56)       -174.0076                                         !
 ! D145  D(49,47,48,54)        -61.4798                                         !
 ! D146  D(49,47,48,55)        178.3998                                         !
 ! D147  D(49,47,48,56)         58.097                                          !
 ! D148  D(53,47,48,54)       -177.3573                                         !
 ! D149  D(53,47,48,55)         62.5223                                         !
 ! D150  D(53,47,48,56)        -57.7805                                         !
 ! D151  D(44,47,49,50)        -77.2826                                         !
 ! D152  D(48,47,49,50)         52.545                                          !
 ! D153  D(53,47,49,50)        170.2138                                         !
 ! D154  D(45,57,58,59)         57.5942                                         !
 ! D155  D(45,57,58,61)        -72.2813                                         !
 ! D156  D(45,57,58,70)        172.0616                                         !
 ! D157  D(69,57,58,59)        -86.444                                          !
 ! D158  D(69,57,58,61)        143.6806                                         !
 ! D159  D(69,57,58,70)         28.0234                                         !
 ! D160  D(57,58,59,60)        155.0309                                         !
 ! D161  D(57,58,59,68)        -26.9153                                         !
 ! D162  D(61,58,59,60)        -73.9245                                         !
 ! D163  D(61,58,59,68)        104.1293                                         !
 ! D164  D(70,58,59,60)         42.1173                                         !
 ! D165  D(70,58,59,68)       -139.829                                          !
 ! D166  D(57,58,61,62)        111.7498                                         !
 ! D167  D(57,58,61,71)        -11.524                                          !
 ! D168  D(57,58,61,72)       -124.267                                          !
 ! D169  D(59,58,61,62)        -18.5                                            !
 ! D170  D(59,58,61,71)       -141.7738                                         !
 ! D171  D(59,58,61,72)        105.4832                                         !
 ! D172  D(70,58,61,62)       -134.3112                                         !
 ! D173  D(70,58,61,71)        102.4151                                         !
 ! D174  D(70,58,61,72)        -10.3279                                         !
 ! D175  D(58,61,62,63)         81.6874                                         !
 ! D176  D(58,61,62,73)       -157.6082                                         !
 ! D177  D(58,61,62,74)        -41.7014                                         !
 ! D178  D(71,61,62,63)       -156.2962                                         !
 ! D179  D(71,61,62,73)        -35.5918                                         !
 ! D180  D(71,61,62,74)         80.315                                          !
 ! D181  D(72,61,62,63)        -42.2124                                         !
 ! D182  D(72,61,62,73)         78.4921                                         !
 ! D183  D(72,61,62,74)       -165.6012                                         !
 ! D184  D(61,62,63,64)         53.7459                                         !
 ! D185  D(61,62,63,75)        171.5638                                         !
 ! D186  D(61,62,63,76)        -69.6696                                         !
 ! D187  D(73,62,63,64)        -67.8311                                         !
 ! D188  D(73,62,63,75)         49.9868                                         !
 ! D189  D(73,62,63,76)        168.7534                                         !
 ! D190  D(74,62,63,64)        178.8053                                         !
 ! D191  D(74,62,63,75)        -63.3768                                         !
 ! D192  D(74,62,63,76)         55.3898                                         !
 ! D193  D(62,63,64,65)        -99.3036                                         !
 ! D194  D(62,63,64,77)         73.2912                                         !
 ! D195  D(75,63,64,65)        141.4897                                         !
 ! D196  D(75,63,64,77)        -45.9155                                         !
 ! D197  D(76,63,64,65)         25.4768                                         !
 ! D198  D(76,63,64,77)       -161.9284                                         !
 ! D199  D(63,64,65,66)          7.2272                                         !
 ! D200  D(63,64,65,67)       -175.4646                                         !
 ! D201  D(77,64,65,66)       -165.1753                                         !
 ! D202  D(77,64,65,67)         12.133                                          !
 ! D203  D(64,65,66,78)       -167.6461                                         !
 ! D204  D(64,65,66,79)          3.2174                                         !
 ! D205  D(67,65,66,78)         15.1443                                         !
 ! D206  D(67,65,66,79)       -173.9922                                         !
 ! D207  D(64,65,67,80)         31.3288                                         !
 ! D208  D(64,65,67,81)        176.8148                                         !
 ! D209  D(66,65,67,80)       -151.3072                                         !
 ! D210  D(66,65,67,81)         -5.8212                                         !
 --------------------------------------------------------------------------------
 Symmetry turned off by external request.
 Stoichiometry    C26H39N8O8(1+)
 Framework group  C1[X(C26H39N8O8)]
 Deg. of freedom   237
 Full point group                 C1      NOp   1
                          Input orientation:                          
 ---------------------------------------------------------------------
 Center     Atomic      Atomic             Coordinates (Angstroms)
 Number     Number       Type             X           Y           Z
 ---------------------------------------------------------------------
      1          7           0       14.199361   31.988629   12.530636
      2          6           0       12.970544   32.867019   12.657281
      3          6           0       12.745309   32.917159   14.199733
      4          8           0       13.783869   33.117421   14.838038
      5          6           0       11.860562   32.517548   11.677033
      6          6           0       12.223500   32.678766   10.173130
      7          6           0       12.498641   31.343023    9.519974
      8          8           0       11.887354   30.861286    8.591288
      9          8           0       13.512308   30.692504   10.138069
     10          1           0       13.507970   29.757336    9.843936
     11          1           0       13.988322   30.987925   12.727055
     12          1           0       13.331388   33.876729   12.427403
     13          1           0       11.488389   31.509315   11.866786
     14          1           0       11.044411   33.210840   11.895012
     15          1           0       13.095295   33.333376   10.039408
     16          1           0       11.394686   33.137430    9.631779
     17          1           0       14.635457   32.032086   11.606695
     18          1           0       14.831472   32.326691   13.277780
     19          7           0       11.520524   32.905735   14.753678
     20          6           0       10.308569   32.145825   14.434908
     21          6           0        9.194185   32.810715   15.277755
     22          8           0        9.507746   33.297404   16.363057
     23          6           0       10.449773   30.655965   14.874338
     24          6           0       11.538974   29.917570   14.162373
     25          6           0       12.852494   29.846287   14.531725
     26          6           0       11.413481   29.184364   12.914292
     27          6           0       12.702198   28.706855   12.574867
     28          6           0       10.319660   28.875444   12.085176
     29          7           0       13.603075   29.192948   13.534503
     30          6           0       12.939089   27.922770   11.442090
     31          6           0       10.551854   28.104414   10.949796
     32          6           0       11.841637   27.632042   10.630602
     33          1           0       11.512130   33.178041   15.740489
     34          1           0       10.085620   32.199490   13.374695
     35          1           0        9.493034   30.156725   14.697444
     36          1           0       10.619642   30.653161   15.956228
     37          1           0       13.346696   30.252092   15.404001
     38          1           0       14.442993   28.676218   13.772211
     39          1           0        9.310801   29.194702   12.338912
     40          1           0       13.926418   27.522534   11.223531
     41          1           0        9.715939   27.828419   10.314507
     42          1           0       11.978140   27.004731    9.754634
     43          7           0        7.936314   32.808411   14.794620
     44          6           0        7.387331   32.204160   13.574820
     45          6           0        6.324043   33.219013   13.105738
     46          8           0        5.580213   33.691489   13.961258
     47          6           0        6.853882   30.755559   13.878649
     48          6           0        5.417324   30.701910   14.389955
     49          8           0        7.068735   29.894872   12.771641
     50          1           0        6.369513   30.120445   12.111375
     51          1           0        7.240972   33.268014   15.378575
     52          1           0        8.183387   32.097409   12.840879
     53          1           0        7.513861   30.379187   14.668866
     54          1           0        4.722041   31.026086   13.612284
     55          1           0        5.283104   31.351337   15.259714
     56          1           0        5.180935   29.671358   14.670547
     57          7           0        6.312777   33.719705   11.829243
     58          6           0        6.651422   33.115231   10.535364
     59          6           0        5.809479   31.840578   10.222492
     60          8           0        5.681712   31.569992    8.989028
     61          6           0        8.181111   32.880465   10.311314
     62          6           0        8.692806   31.425384   10.263153
     63          6           0        8.539470   30.674333    8.929024
     64          7           0        9.123350   31.390409    7.787887
     65          6           0        8.458084   32.136521    6.898156
     66          7           0        7.174451   32.429509    7.032981
     67          7           0        9.181135   32.641458    5.852567
     68          8           0        5.371043   31.182852   11.183587
     69          1           0        5.534372   34.368903   11.760497
     70          1           0        6.342140   33.870871    9.808951
     71          1           0        8.703157   33.419818   11.111083
     72          1           0        8.477602   33.386398    9.385081
     73          1           0        9.760708   31.426317   10.503652
     74          1           0        8.209727   30.820924   11.035181
     75          1           0        9.075243   29.723514    8.999760
     76          1           0        7.495446   30.454701    8.712695
     77          1           0       10.138873   31.392954    7.751602
     78          1           0        6.685203   32.830979    6.244371
     79          1           0        6.567391   32.141305    7.884269
     80          1           0        9.966723   32.102162    5.514286
     81          1           0        8.693381   33.167162    5.140686
 ---------------------------------------------------------------------
 Rotational constants (GHZ):           0.0991251           0.0793950           0.0577409
 Standard basis: 6-31G(d) (6D, 7F)
   708 basis functions,  1332 primitive gaussians,   708 cartesian basis functions
   157 alpha electrons      157 beta electrons
       nuclear repulsion energy      5791.2297130965 Hartrees.
 NAtoms=   81 NActive=   81 NUniq=   81 SFac= 1.00D+00 NAtFMM=   60 NAOKFM=T Big=T
 Integral buffers will be    131072 words long.
 Raffenetti 2 integral format.
 Two-electron integral symmetry is turned off.
 Nuclear repulsion after empirical dispersion term =     5791.0920960352 Hartrees.
 One-electron integrals computed using PRISM.
 NBasis=   708 RedAO= T EigKep=  3.48D-04  NBF=   708
 NBsUse=   708 1.00D-06 EigRej= -1.00D+00 NBFU=   708
 Initial guess from the checkpoint file:  "conf-962.chk"
 B after Tr=     0.000000    0.000000    0.000000
         Rot=    1.000000    0.000000    0.000000    0.000000 Ang=   0.00 deg.
 Requested convergence on RMS density matrix=1.00D-08 within 128 cycles.
 Requested convergence on MAX density matrix=1.00D-06.
 Requested convergence on             energy=1.00D-06.
 No special actions if energy rises.
 SCF Done:  E(RB3LYP) =  -2054.03337636     A.U. after    3 cycles
            NFock=  3  Conv=0.13D-08     -V/T= 2.0093

 **********************************************************************

            Population analysis using the SCF Density.

 **********************************************************************

 Alpha  occ. eigenvalues --  -19.34667 -19.29299 -19.25081 -19.20472 -19.20199
 Alpha  occ. eigenvalues --  -19.18425 -19.17014 -19.16385 -14.59263 -14.51006
 Alpha  occ. eigenvalues --  -14.49067 -14.48340 -14.48289 -14.46294 -14.44740
 Alpha  occ. eigenvalues --  -14.42808 -10.47360 -10.44579 -10.43175 -10.40917
 Alpha  occ. eigenvalues --  -10.38294 -10.36167 -10.35457 -10.35421 -10.35305
 Alpha  occ. eigenvalues --  -10.34635 -10.34554 -10.34242 -10.31981 -10.31590
 Alpha  occ. eigenvalues --  -10.31254 -10.31176 -10.30864 -10.30803 -10.30760
 Alpha  occ. eigenvalues --  -10.30639 -10.30626 -10.29898 -10.29679 -10.28842
 Alpha  occ. eigenvalues --  -10.28281 -10.22297  -1.25475  -1.17945  -1.16657
 Alpha  occ. eigenvalues --   -1.13533  -1.12992  -1.12740  -1.10885  -1.10208
 Alpha  occ. eigenvalues --   -1.10020  -1.07785  -1.04830  -1.02603  -1.01872
 Alpha  occ. eigenvalues --   -1.01020  -1.00289  -0.98744  -0.96205  -0.95954
 Alpha  occ. eigenvalues --   -0.92666  -0.89248  -0.88900  -0.87553  -0.85405
 Alpha  occ. eigenvalues --   -0.84222  -0.83702  -0.82960  -0.80581  -0.78519
 Alpha  occ. eigenvalues --   -0.78186  -0.76748  -0.75520  -0.74543  -0.74006
 Alpha  occ. eigenvalues --   -0.73897  -0.72121  -0.71420  -0.71001  -0.70757
 Alpha  occ. eigenvalues --   -0.69611  -0.69259  -0.67918  -0.67774  -0.66520
 Alpha  occ. eigenvalues --   -0.65785  -0.65454  -0.64732  -0.64095  -0.63627
 Alpha  occ. eigenvalues --   -0.62128  -0.61239  -0.61055  -0.60855  -0.60329
 Alpha  occ. eigenvalues --   -0.60281  -0.59573  -0.59369  -0.58624  -0.58260
 Alpha  occ. eigenvalues --   -0.57572  -0.57347  -0.56826  -0.56349  -0.55961
 Alpha  occ. eigenvalues --   -0.55652  -0.55240  -0.55083  -0.54914  -0.54529
 Alpha  occ. eigenvalues --   -0.54052  -0.53676  -0.53495  -0.52848  -0.52639
 Alpha  occ. eigenvalues --   -0.51819  -0.51480  -0.51253  -0.50838  -0.50636
 Alpha  occ. eigenvalues --   -0.50009  -0.49962  -0.49148  -0.48765  -0.48309
 Alpha  occ. eigenvalues --   -0.47548  -0.47206  -0.47137  -0.46953  -0.46650
 Alpha  occ. eigenvalues --   -0.46302  -0.46103  -0.45669  -0.45451  -0.45111
 Alpha  occ. eigenvalues --   -0.44614  -0.43944  -0.42805  -0.42403  -0.41915
 Alpha  occ. eigenvalues --   -0.41172  -0.40199  -0.39754  -0.39646  -0.38584
 Alpha  occ. eigenvalues --   -0.37815  -0.37199  -0.35837  -0.35088  -0.34859
 Alpha  occ. eigenvalues --   -0.34506  -0.33213  -0.32777  -0.32501  -0.31654
 Alpha  occ. eigenvalues --   -0.30640  -0.29806
 Alpha virt. eigenvalues --   -0.14473  -0.13792  -0.13090  -0.11062  -0.09214
 Alpha virt. eigenvalues --   -0.08771  -0.07862  -0.06250  -0.06117  -0.05378
 Alpha virt. eigenvalues --   -0.05127  -0.04149  -0.03908  -0.03386  -0.02624
 Alpha virt. eigenvalues --   -0.02569  -0.01595  -0.01236  -0.00850  -0.00728
 Alpha virt. eigenvalues --   -0.00077   0.00290   0.00602   0.01303   0.01750
 Alpha virt. eigenvalues --    0.02460   0.02484   0.03062   0.03428   0.03607
 Alpha virt. eigenvalues --    0.04143   0.04332   0.04776   0.05295   0.05479
 Alpha virt. eigenvalues --    0.05768   0.06524   0.07120   0.07464   0.07819
 Alpha virt. eigenvalues --    0.08092   0.08445   0.08930   0.09257   0.09564
 Alpha virt. eigenvalues --    0.10191   0.10377   0.11324   0.11726   0.11792
 Alpha virt. eigenvalues --    0.12009   0.12425   0.12669   0.12999   0.13412
 Alpha virt. eigenvalues --    0.13956   0.14381   0.14540   0.14955   0.15377
 Alpha virt. eigenvalues --    0.15592   0.16144   0.16715   0.17454   0.18059
 Alpha virt. eigenvalues --    0.18154   0.18466   0.18632   0.19406   0.19590
 Alpha virt. eigenvalues --    0.20555   0.21171   0.21579   0.22675   0.23001
 Alpha virt. eigenvalues --    0.23229   0.24263   0.24783   0.25596   0.26952
 Alpha virt. eigenvalues --    0.27455   0.28697   0.29139   0.29607   0.30996
 Alpha virt. eigenvalues --    0.31709   0.33344   0.33579   0.33812   0.34893
 Alpha virt. eigenvalues --    0.36143   0.36817   0.37470   0.38829   0.39381
 Alpha virt. eigenvalues --    0.39719   0.40170   0.40822   0.40875   0.41989
 Alpha virt. eigenvalues --    0.42241   0.42824   0.43499   0.43635   0.44184
 Alpha virt. eigenvalues --    0.44653   0.44699   0.45133   0.45501   0.45922
 Alpha virt. eigenvalues --    0.46516   0.46674   0.47186   0.47666   0.48364
 Alpha virt. eigenvalues --    0.48604   0.48810   0.49431   0.49771   0.50228
 Alpha virt. eigenvalues --    0.50593   0.51018   0.51147   0.51658   0.51929
 Alpha virt. eigenvalues --    0.52028   0.52496   0.53065   0.53140   0.53360
 Alpha virt. eigenvalues --    0.53460   0.54162   0.54444   0.54666   0.55738
 Alpha virt. eigenvalues --    0.56241   0.56711   0.57218   0.57494   0.57913
 Alpha virt. eigenvalues --    0.58289   0.58512   0.59072   0.59865   0.60189
 Alpha virt. eigenvalues --    0.60217   0.60973   0.61414   0.61550   0.62018
 Alpha virt. eigenvalues --    0.62647   0.63198   0.64318   0.64808   0.65185
 Alpha virt. eigenvalues --    0.65729   0.66088   0.66419   0.66810   0.67410
 Alpha virt. eigenvalues --    0.67778   0.68429   0.68601   0.68912   0.69553
 Alpha virt. eigenvalues --    0.70488   0.70499   0.71006   0.71208   0.71283
 Alpha virt. eigenvalues --    0.72188   0.72287   0.72737   0.73663   0.74040
 Alpha virt. eigenvalues --    0.74149   0.74349   0.74613   0.75020   0.75312
 Alpha virt. eigenvalues --    0.75619   0.75784   0.76166   0.76720   0.77048
 Alpha virt. eigenvalues --    0.77454   0.77511   0.78181   0.78658   0.79044
 Alpha virt. eigenvalues --    0.79403   0.79861   0.80198   0.80993   0.81195
 Alpha virt. eigenvalues --    0.82249   0.82513   0.82647   0.83146   0.83796
 Alpha virt. eigenvalues --    0.84386   0.84759   0.85044   0.85365   0.85914
 Alpha virt. eigenvalues --    0.86121   0.86756   0.87028   0.87492   0.87807
 Alpha virt. eigenvalues --    0.88180   0.88787   0.89238   0.89873   0.90691
 Alpha virt. eigenvalues --    0.91059   0.91374   0.91848   0.92446   0.92955
 Alpha virt. eigenvalues --    0.93741   0.94368   0.95248   0.95274   0.95826
 Alpha virt. eigenvalues --    0.96085   0.96937   0.97928   0.99267   0.99437
 Alpha virt. eigenvalues --    0.99512   1.00162   1.01265   1.01631   1.02162
 Alpha virt. eigenvalues --    1.02729   1.02825   1.03427   1.03813   1.04614
 Alpha virt. eigenvalues --    1.05254   1.06033   1.06434   1.07101   1.08449
 Alpha virt. eigenvalues --    1.08909   1.09712   1.10719   1.10803   1.11336
 Alpha virt. eigenvalues --    1.13008   1.13546   1.13869   1.14352   1.15178
 Alpha virt. eigenvalues --    1.15716   1.16258   1.17719   1.18626   1.19205
 Alpha virt. eigenvalues --    1.19531   1.20790   1.20970   1.21857   1.22515
 Alpha virt. eigenvalues --    1.22785   1.23683   1.24407   1.25389   1.25854
 Alpha virt. eigenvalues --    1.26078   1.27451   1.28712   1.28810   1.29680
 Alpha virt. eigenvalues --    1.29913   1.30700   1.31383   1.31812   1.32544
 Alpha virt. eigenvalues --    1.32825   1.33696   1.34335   1.35765   1.36143
 Alpha virt. eigenvalues --    1.36589   1.37473   1.37934   1.38419   1.39039
 Alpha virt. eigenvalues --    1.39821   1.40006   1.41173   1.41812   1.42059
 Alpha virt. eigenvalues --    1.42662   1.43506   1.43675   1.44462   1.44830
 Alpha virt. eigenvalues --    1.45351   1.46425   1.47983   1.49032   1.50006
 Alpha virt. eigenvalues --    1.50869   1.51526   1.52027   1.52904   1.53331
 Alpha virt. eigenvalues --    1.53803   1.54474   1.55243   1.57211   1.57497
 Alpha virt. eigenvalues --    1.58669   1.58996   1.59597   1.60471   1.60966
 Alpha virt. eigenvalues --    1.61641   1.62269   1.62382   1.62916   1.63502
 Alpha virt. eigenvalues --    1.64060   1.64829   1.65874   1.66687   1.67907
 Alpha virt. eigenvalues --    1.68113   1.68300   1.68499   1.69098   1.69635
 Alpha virt. eigenvalues --    1.70342   1.70793   1.71466   1.72054   1.72516
 Alpha virt. eigenvalues --    1.72844   1.73084   1.74197   1.74401   1.75332
 Alpha virt. eigenvalues --    1.75710   1.76133   1.76302   1.77345   1.77579
 Alpha virt. eigenvalues --    1.78473   1.78601   1.79564   1.79809   1.80268
 Alpha virt. eigenvalues --    1.80833   1.80862   1.81651   1.82084   1.82532
 Alpha virt. eigenvalues --    1.82865   1.83664   1.84006   1.84684   1.85035
 Alpha virt. eigenvalues --    1.85397   1.86283   1.87294   1.87485   1.87912
 Alpha virt. eigenvalues --    1.88253   1.88689   1.89410   1.90216   1.90920
 Alpha virt. eigenvalues --    1.91511   1.91800   1.92712   1.93095   1.93497
 Alpha virt. eigenvalues --    1.94200   1.94459   1.94836   1.95171   1.95957
 Alpha virt. eigenvalues --    1.96361   1.96677   1.97877   1.98508   1.99010
 Alpha virt. eigenvalues --    2.00254   2.00543   2.01731   2.02074   2.03249
 Alpha virt. eigenvalues --    2.03789   2.05201   2.05754   2.06239   2.06384
 Alpha virt. eigenvalues --    2.07479   2.08544   2.09137   2.09578   2.11453
 Alpha virt. eigenvalues --    2.12050   2.12718   2.13395   2.13581   2.14348
 Alpha virt. eigenvalues --    2.14918   2.15602   2.16890   2.17387   2.17671
 Alpha virt. eigenvalues --    2.18692   2.19065   2.19686   2.20125   2.21207
 Alpha virt. eigenvalues --    2.21944   2.22352   2.24157   2.24447   2.24940
 Alpha virt. eigenvalues --    2.25396   2.26331   2.26976   2.27320   2.27982
 Alpha virt. eigenvalues --    2.28395   2.31043   2.31937   2.32653   2.33019
 Alpha virt. eigenvalues --    2.34241   2.34734   2.35809   2.36483   2.37072
 Alpha virt. eigenvalues --    2.38113   2.38426   2.38978   2.39512   2.40687
 Alpha virt. eigenvalues --    2.41779   2.43389   2.43575   2.44380   2.45028
 Alpha virt. eigenvalues --    2.46081   2.46656   2.47835   2.48137   2.49995
 Alpha virt. eigenvalues --    2.50299   2.50846   2.51437   2.52247   2.52521
 Alpha virt. eigenvalues --    2.53423   2.53745   2.55176   2.55279   2.56210
 Alpha virt. eigenvalues --    2.56622   2.58334   2.58825   2.59335   2.60057
 Alpha virt. eigenvalues --    2.60628   2.61516   2.62332   2.62636   2.63157
 Alpha virt. eigenvalues --    2.64616   2.65354   2.67294   2.67530   2.68011
 Alpha virt. eigenvalues --    2.69649   2.70272   2.70498   2.72136   2.73261
 Alpha virt. eigenvalues --    2.75034   2.76333   2.80875   2.84595   2.87169
 Alpha virt. eigenvalues --    2.87476   2.87820   2.88187   2.89706   2.91363
 Alpha virt. eigenvalues --    2.91902   2.92632   2.92986   2.94642   2.95975
 Alpha virt. eigenvalues --    2.97790   2.99568   3.00856   3.01410   3.04948
 Alpha virt. eigenvalues --    3.09818   3.11976   3.14294   3.32057   3.68401
 Alpha virt. eigenvalues --    3.72857   3.76637   3.80283   3.84678   3.87914
 Alpha virt. eigenvalues --    3.88930   3.93722   3.96419   3.97291   4.01052
 Alpha virt. eigenvalues --    4.01667   4.02549   4.05412   4.06651   4.08677
 Alpha virt. eigenvalues --    4.09828   4.10438   4.12790   4.13426   4.14965
 Alpha virt. eigenvalues --    4.15461   4.17537   4.18099   4.26542   4.28645
 Alpha virt. eigenvalues --    4.30034   4.32495   4.32720   4.34080   4.35965
 Alpha virt. eigenvalues --    4.39685   4.45013   4.45341   4.46022   4.49476
 Alpha virt. eigenvalues --    4.55025   4.57539   4.60968   4.65269   4.69635
 Alpha virt. eigenvalues --    4.73218
          Condensed to atoms (all electrons):
 Mulliken charges:
               1
     1  N   -0.762217
     2  C   -0.118072
     3  C    0.630912
     4  O   -0.521447
     5  C   -0.324221
     6  C   -0.379138
     7  C    0.612278
     8  O   -0.455485
     9  O   -0.594140
    10  H    0.435634
    11  H    0.450986
    12  H    0.226894
    13  H    0.213194
    14  H    0.213245
    15  H    0.187155
    16  H    0.210923
    17  H    0.407011
    18  H    0.416860
    19  N   -0.600346
    20  C   -0.088554
    21  C    0.628741
    22  O   -0.516492
    23  C   -0.369340
    24  C    0.100121
    25  C   -0.078868
    26  C    0.063216
    27  C    0.285569
    28  C   -0.224125
    29  N   -0.717758
    30  C   -0.240314
    31  C   -0.154209
    32  C   -0.151355
    33  H    0.380785
    34  H    0.157659
    35  H    0.203487
    36  H    0.192148
    37  H    0.196839
    38  H    0.359122
    39  H    0.219673
    40  H    0.153445
    41  H    0.164355
    42  H    0.161374
    43  N   -0.609110
    44  C   -0.081402
    45  C    0.633517
    46  O   -0.518989
    47  C    0.142359
    48  C   -0.478736
    49  O   -0.660927
    50  H    0.448065
    51  H    0.373079
    52  H    0.145226
    53  H    0.131818
    54  H    0.200039
    55  H    0.159766
    56  H    0.159027
    57  N   -0.611851
    58  C   -0.059652
    59  C    0.613922
    60  O   -0.596398
    61  C   -0.308824
    62  C   -0.316760
    63  C   -0.193335
    64  N   -0.615898
    65  C    0.767729
    66  N   -0.788133
    67  N   -0.764541
    68  O   -0.560573
    69  H    0.344203
    70  H    0.155673
    71  H    0.144732
    72  H    0.144627
    73  H    0.114671
    74  H    0.203054
    75  H    0.165949
    76  H    0.233070
    77  H    0.374598
    78  H    0.350653
    79  H    0.457147
    80  H    0.363622
    81  H    0.363032
 Sum of Mulliken charges =   1.00000
 Mulliken charges with hydrogens summed into heavy atoms:
               1
     1  N    0.512639
     2  C    0.108822
     3  C    0.630912
     4  O   -0.521447
     5  C    0.102218
     6  C    0.018941
     7  C    0.612278
     8  O   -0.455485
     9  O   -0.158507
    19  N   -0.219561
    20  C    0.069106
    21  C    0.628741
    22  O   -0.516492
    23  C    0.026295
    24  C    0.100121
    25  C    0.117971
    26  C    0.063216
    27  C    0.285569
    28  C   -0.004453
    29  N   -0.358635
    30  C   -0.086868
    31  C    0.010146
    32  C    0.010019
    43  N   -0.236030
    44  C    0.063824
    45  C    0.633517
    46  O   -0.518989
    47  C    0.274177
    48  C    0.040096
    49  O   -0.212861
    57  N   -0.267648
    58  C    0.096021
    59  C    0.613922
    60  O   -0.596398
    61  C   -0.019464
    62  C    0.000966
    63  C    0.205685
    64  N   -0.241300
    65  C    0.767729
    66  N    0.019667
    67  N   -0.037888
    68  O   -0.560573
 Electronic spatial extent (au):  <R**2>=        1390526.0579
 Charge=              1.0000 electrons
 Dipole moment (field-independent basis, Debye):
    X=             65.5503    Y=            151.4369    Z=             44.1446  Tot=            170.8179
 Quadrupole moment (field-independent basis, Debye-Ang):
   XX=            624.2630   YY=           4546.0259   ZZ=            197.1990
   XY=           2045.2336   XZ=            664.2801   YZ=           1361.2324
 Traceless Quadrupole moment (field-independent basis, Debye-Ang):
   XX=          -1164.8996   YY=           2756.8632   ZZ=          -1591.9636
   XY=           2045.2336   XZ=            664.2801   YZ=           1361.2324
 Octapole moment (field-independent basis, Debye-Ang**2):
  XXX=           4491.1767  YYY=         128979.8723  ZZZ=          -4160.8844  XYY=          61640.9904
  XXY=          19255.4971  XXZ=           6406.5642  XZZ=           4777.5462  YZZ=           5545.7592
  YYZ=          39171.7112  XYZ=          20423.7844
 Hexadecapole moment (field-independent basis, Debye-Ang**3):
 XXXX=           8511.5399 YYYY=        3386658.1072 ZZZZ=        -170924.4995 XXXY=         135783.7364
 XXXZ=          43877.0558 YYYX=        1786974.6575 YYYZ=        1029840.4827 ZZZX=          -6535.0560
 ZZZY=        -143223.9264 XXYY=         570912.2666 XXZZ=          43113.3029 YYZZ=         117576.3559
 XXYZ=         194220.6712 YYXZ=         601030.9333 ZZXY=         141873.5023
 N-N= 5.791092096035D+03 E-N=-1.633764276166D+04  KE= 2.035167207453D+03
 Unable to Open any file for archive entry.
 1\1\GINC-SKL-138\SP\RB3LYP\6-31G(d)\C26H39N8O8(1+)\KENGMITH\27-May-202
 2\0\\# B3LYP/6-31G* empiricaldispersion=gd3 guess=read geom=check nosy
 mm integral(ultrafinegrid)\\Candidate Structure: Conf:962 Charge calc 
 in gas phase\\1,1\N,0,14.1993608084,31.9886286862,12.5306362903\C,0,12
 .9705437149,32.8670193424,12.6572809283\C,0,12.745309487,32.917158989,
 14.1997328166\O,0,13.7838685329,33.1174209974,14.8380379713\C,0,11.860
 5615734,32.5175475969,11.6770327488\C,0,12.2234996833,32.6787663643,10
 .1731304109\C,0,12.4986409033,31.3430226788,9.5199737431\O,0,11.887353
 8016,30.8612864959,8.5912881721\O,0,13.5123078487,30.692504189,10.1380
 690636\H,0,13.5079696902,29.757335628,9.8439362924\H,0,13.9883219407,3
 0.9879245556,12.7270552164\H,0,13.3313880205,33.8767285621,12.42740327
 34\H,0,11.4883894569,31.509315008,11.8667857995\H,0,11.0444111086,33.2
 108401419,11.8950118225\H,0,13.0952950325,33.3333756952,10.0394082362\
 H,0,11.3946856943,33.1374298397,9.6317788517\H,0,14.6354573902,32.0320
 857487,11.6066952139\H,0,14.8314717735,32.3266907928,13.2777799546\N,0
 ,11.5205238791,32.905735036,14.7536782118\C,0,10.3085691877,32.1458249
 983,14.4349077081\C,0,9.1941845601,32.8107147092,15.2777550255\O,0,9.5
 077457501,33.2974040961,16.3630568404\C,0,10.4497727161,30.6559653461,
 14.8743378341\C,0,11.5389744215,29.9175696764,14.1623725776\C,0,12.852
 4940588,29.8462866842,14.5317254597\C,0,11.4134806922,29.1843635637,12
 .9142918908\C,0,12.702198088,28.70685479,12.5748666269\C,0,10.31966032
 43,28.8754438318,12.0851756565\N,0,13.6030745977,29.1929484056,13.5345
 032316\C,0,12.9390888632,27.9227699852,11.4420896098\C,0,10.551854203,
 28.104414264,10.949796206\C,0,11.8416368214,27.6320424405,10.630601608
 9\H,0,11.512129774,33.1780413423,15.7404890073\H,0,10.0856197006,32.19
 94898814,13.3746952\H,0,9.4930339826,30.1567249055,14.6974438375\H,0,1
 0.6196419432,30.6531612472,15.9562275348\H,0,13.3466964182,30.25209201
 52,15.4040010927\H,0,14.4429925159,28.6762178716,13.7722111327\H,0,9.3
 108005645,29.1947015097,12.3389121434\H,0,13.9264175609,27.5225339957,
 11.2235314921\H,0,9.7159385052,27.8284186045,10.3145072351\H,0,11.9781
 398073,27.004731315,9.7546336704\N,0,7.9363137896,32.8084110707,14.794
 6200057\C,0,7.3873311131,32.2041601986,13.5748202821\C,0,6.3240433107,
 33.2190132441,13.1057382467\O,0,5.5802127471,33.6914894204,13.96125784
 15\C,0,6.8538819164,30.7555585967,13.8786489371\C,0,5.4173235095,30.70
 19102408,14.389955253\O,0,7.0687348489,29.894872076,12.7716410086\H,0,
 6.369512834,30.1204454327,12.1113749517\H,0,7.2409715119,33.268013801,
 15.3785747202\H,0,8.1833870957,32.0974090267,12.8408787214\H,0,7.51386
 07677,30.3791865209,14.6688658517\H,0,4.722040891,31.0260861662,13.612
 2842772\H,0,5.2831040951,31.3513373241,15.2597143018\H,0,5.1809345839,
 29.671358224,14.6705472562\N,0,6.3127769835,33.7197050903,11.829242663
 3\C,0,6.6514215758,33.1152313068,10.5353643716\C,0,5.8094791844,31.840
 5784754,10.2224915303\O,0,5.6817122898,31.5699923916,8.9890283312\C,0,
 8.1811113595,32.8804648132,10.3113138167\C,0,8.6928059304,31.425383765
 8,10.2631526385\C,0,8.539470083,30.6743329196,8.9290241476\N,0,9.12335
 03871,31.3904086513,7.7878868704\C,0,8.4580837512,32.1365206235,6.8981
 558785\N,0,7.1744514948,32.4295087793,7.0329812731\N,0,9.1811345478,32
 .6414583352,5.8525674637\O,0,5.3710433987,31.1828519208,11.1835867873\
 H,0,5.5343720195,34.3689034282,11.760496556\H,0,6.3421395555,33.870871
 134,9.8089512752\H,0,8.7031569986,33.4198183625,11.1110830548\H,0,8.47
 76019909,33.3863984257,9.3850810743\H,0,9.760707991,31.426317397,10.50
 36517274\H,0,8.2097265459,30.8209244811,11.0351807942\H,0,9.0752431139
 ,29.7235137794,8.9997602655\H,0,7.4954460451,30.4547012341,8.712695246
 5\H,0,10.1388726873,31.3929544414,7.7516016354\H,0,6.6852027439,32.830
 9787698,6.2443713505\H,0,6.5673907419,32.1413048946,7.8842691435\H,0,9
 .9667233611,32.1021623116,5.5142862047\H,0,8.6933811888,33.1671616073,
 5.1406858658\\Version=ES64L-G16RevC.01\HF=-2054.0333764\RMSD=1.269e-09
 \Dipole=7.3916824,0.1864985,-4.9793628\Quadrupole=-866.0743139,2049.66
 02551,-1183.5859411,1520.581046,493.8759418,1012.0429418\PG=C01 [X(C26
 H39N8O8)]\\@
 The archive entry for this job was punched.


 SEE YOU NOW,
 YOUR BAIT OF FALSEHOOD TAKES THIS CARP OF TRUTH.
 AND THUS DO WE OF WISDOM AND OF REACH...
 BY INDIRECTIONS FIND DIRECTIONS OUT.    -- HAMLET, II, 1
 Job cpu time:       0 days  0 hours  5 minutes 44.9 seconds.
 Elapsed time:       0 days  0 hours  1 minutes 27.4 seconds.
 File lengths (MBytes):  RWF=    376 Int=      0 D2E=      0 Chk=     56 Scr=     16
 Normal termination of Gaussian 16 at Fri May 27 05:11:32 2022.
