 Entering Gaussian System, Link 0=/opt/software/Gaussian/g16-AVX-C.01/g16/g16
 Input=charge-conf-84.com
 Output=charge-conf-84.log
 Initial command:
 /opt/software/Gaussian/g16-AVX-C.01/g16/l1.exe "/mnt/gs18/scratch/users/kengmith/Gau-34349.inp" -scrdir="/mnt/gs18/scratch/users/kengmith/"
 Entering Link 1 = /opt/software/Gaussian/g16-AVX-C.01/g16/l1.exe PID=     34359.
  
 Copyright (c) 1988-2019, Gaussian, Inc.  All Rights Reserved.
  
 This is part of the Gaussian(R) 16 program.  It is based on
 the Gaussian(R) 09 system (copyright 2009, Gaussian, Inc.),
 the Gaussian(R) 03 system (copyright 2003, Gaussian, Inc.),
 the Gaussian(R) 98 system (copyright 1998, Gaussian, Inc.),
 the Gaussian(R) 94 system (copyright 1995, Gaussian, Inc.),
 the Gaussian 92(TM) system (copyright 1992, Gaussian, Inc.),
 the Gaussian 90(TM) system (copyright 1990, Gaussian, Inc.),
 the Gaussian 88(TM) system (copyright 1988, Gaussian, Inc.),
 the Gaussian 86(TM) system (copyright 1986, Carnegie Mellon
 University), and the Gaussian 82(TM) system (copyright 1983,
 Carnegie Mellon University). Gaussian is a federally registered
 trademark of Gaussian, Inc.
  
 This software contains proprietary and confidential information,
 including trade secrets, belonging to Gaussian, Inc.
  
 This software is provided under written license and may be
 used, copied, transmitted, or stored only in accord with that
 written license.
  
 The following legend is applicable only to US Government
 contracts under FAR:
  
                    RESTRICTED RIGHTS LEGEND
  
 Use, reproduction and disclosure by the US Government is
 subject to restrictions as set forth in subparagraphs (a)
 and (c) of the Commercial Computer Software - Restricted
 Rights clause in FAR 52.227-19.
  
 Gaussian, Inc.
 340 Quinnipiac St., Bldg. 40, Wallingford CT 06492
  
  
 ---------------------------------------------------------------
 Warning -- This program may not be used in any manner that
 competes with the business of Gaussian, Inc. or will provide
 assistance to any competitor of Gaussian, Inc.  The licensee
 of this program is prohibited from giving any competitor of
 Gaussian, Inc. access to this program.  By using this program,
 the user acknowledges that Gaussian, Inc. is engaged in the
 business of creating and licensing software in the field of
 computational chemistry and represents and warrants to the
 licensee that it is not a competitor of Gaussian, Inc. and that
 it will not use this program in any manner prohibited above.
 ---------------------------------------------------------------
  

 Cite this work as:
 Gaussian 16, Revision C.01,
 M. J. Frisch, G. W. Trucks, H. B. Schlegel, G. E. Scuseria, 
 M. A. Robb, J. R. Cheeseman, G. Scalmani, V. Barone, 
 G. A. Petersson, H. Nakatsuji, X. Li, M. Caricato, A. V. Marenich, 
 J. Bloino, B. G. Janesko, R. Gomperts, B. Mennucci, H. P. Hratchian, 
 J. V. Ortiz, A. F. Izmaylov, J. L. Sonnenberg, D. Williams-Young, 
 F. Ding, F. Lipparini, F. Egidi, J. Goings, B. Peng, A. Petrone, 
 T. Henderson, D. Ranasinghe, V. G. Zakrzewski, J. Gao, N. Rega, 
 G. Zheng, W. Liang, M. Hada, M. Ehara, K. Toyota, R. Fukuda, 
 J. Hasegawa, M. Ishida, T. Nakajima, Y. Honda, O. Kitao, H. Nakai, 
 T. Vreven, K. Throssell, J. A. Montgomery, Jr., J. E. Peralta, 
 F. Ogliaro, M. J. Bearpark, J. J. Heyd, E. N. Brothers, K. N. Kudin, 
 V. N. Staroverov, T. A. Keith, R. Kobayashi, J. Normand, 
 K. Raghavachari, A. P. Rendell, J. C. Burant, S. S. Iyengar, 
 J. Tomasi, M. Cossi, J. M. Millam, M. Klene, C. Adamo, R. Cammi, 
 J. W. Ochterski, R. L. Martin, K. Morokuma, O. Farkas, 
 J. B. Foresman, and D. J. Fox, Gaussian, Inc., Wallingford CT, 2019.
 
 ******************************************
 Gaussian 16:  ES64L-G16RevC.01  3-Jul-2019
                 4-Jun-2022 
 ******************************************
 %mem=8gb
 %nproc=4
 Will use up to    4 processors via shared memory.
 %chk=conf-84.chk
 ----------------------------------------------------------------------
 # B3LYP/6-31G* empiricaldispersion=gd3 guess=read geom=check nosymm in
 tegral(ultrafinegrid)
 ----------------------------------------------------------------------
 1/29=2,38=1,172=1/1;
 2/12=2,15=1,40=1/2;
 3/5=1,6=6,7=1,11=2,14=-4,25=1,30=1,74=-5,75=-5,116=-2,124=31/1,2,3;
 4/5=1/1;
 5/5=2,38=6/2;
 6/7=2,8=2,9=2,10=2,28=1/1;
 99/5=1,9=1/99;
 -----------------------------------------------------
 Candidate Structure: Conf:84 Charge calc in gas phase
 -----------------------------------------------------
 Structure from the checkpoint file:  "conf-84.chk"
 Charge =  1 Multiplicity = 1
 Redundant internal coordinates found in file.  (old form).
 N,0,3.3578901109,-4.1006792152,-1.9954006998
 C,0,2.4910892892,-3.3736061001,-0.9978607672
 C,0,1.1734772292,-3.1348740473,-1.7659839641
 O,0,1.2248014991,-3.0129925092,-2.9870231695
 C,0,3.12613626,-2.0387953647,-0.6024692977
 H,0,3.0352781529,-3.7869153603,-2.9308843777
 H,0,2.3544852217,-4.0375483991,-0.1439627394
 H,0,4.0888998518,-2.1951252623,-0.1044386309
 H,0,3.2686951464,-1.3988629438,-1.479499522
 H,0,2.4746234882,-1.5081159927,0.0977311722
 H,0,3.20384364,-5.1421699762,-1.9039199428
 H,0,4.3528078717,-3.896721784,-1.8741250529
 N,0,0.0229084297,-3.0056632806,-1.062837334
 C,0,-0.2228598646,-3.2318262122,0.3685292605
 C,0,-0.1846090684,-4.7488793138,0.6788824896
 O,0,0.9036199685,-5.3020102764,0.8562522179
 C,0,-1.498537083,-2.4972391122,0.7832062352
 H,0,-0.7843845572,-2.8185092685,-1.6488952932
 H,0,0.6168228474,-2.8214449131,0.9365586004
 H,0,-2.3645288879,-2.8076646286,0.1844053996
 H,0,-1.3729309997,-1.4202090069,0.6424363786
 H,0,-1.7234148512,-2.6829836874,1.8370422337
 N,0,-1.3569826948,-5.4242409147,0.6987947036
 C,0,-1.4561061419,-6.8427779393,1.0788224378
 C,0,-1.7061978822,-7.677851231,-0.1961959565
 O,0,-2.8306850584,-7.9978343153,-0.5283240389
 C,0,-2.5885881374,-7.0513363177,2.0815521552
 H,0,-2.2305559441,-4.9254854027,0.5900410424
 H,0,-0.4986778901,-7.0980543212,1.5356564707
 H,0,-2.6357078017,-8.1013805131,2.3826720906
 H,0,-2.4178334623,-6.4382474386,2.9709095287
 H,0,-3.5542009982,-6.7979001617,1.6351001173
 N,0,-0.6245508649,-7.9765118254,-1.0283857617
 C,0,0.8088967044,-8.0099537039,-0.7124602974
 C,0,1.5346320833,-6.8633702284,-1.4271050396
 O,0,2.7428000748,-6.6983053032,-1.3590693624
 C,0,1.4433657213,-9.3599685773,-1.0691191147
 O,0,0.7777195641,-6.0281744701,-2.1385900846
 H,0,-0.1520145833,-6.3411118011,-2.0526222955
 H,0,-0.9175488486,-8.6118157433,-1.7677871615
 H,0,0.9610651016,-7.8038767197,0.3484714019
 H,0,1.3002900188,-9.5947757939,-2.1300057543
 H,0,2.5165870896,-9.3276827903,-0.8684439511
 H,0,0.9908950455,-10.1544439239,-0.4700354068
 Recover connectivity data from disk.
                           ----------------------------
                           !    Current Parameters    !
                           ! (Angstroms and Degrees)  !
 --------------------------                            --------------------------
 ! Name  Definition              Value                                          !
 --------------------------------------------------------------------------------
 ! R1    R(1,2)                  1.5083                                         !
 ! R2    R(1,6)                  1.0381                                         !
 ! R3    R(1,11)                 1.0568                                         !
 ! R4    R(1,12)                 1.0228                                         !
 ! R5    R(2,3)                  1.5437                                         !
 ! R6    R(2,5)                  1.5301                                         !
 ! R7    R(2,7)                  1.0902                                         !
 ! R8    R(3,4)                  1.2282                                         !
 ! R9    R(3,13)                 1.3546                                         !
 ! R10   R(5,8)                  1.0952                                         !
 ! R11   R(5,9)                  1.095                                          !
 ! R12   R(5,10)                 1.0938                                         !
 ! R13   R(13,14)                1.4698                                         !
 ! R14   R(13,18)                1.015                                          !
 ! R15   R(14,15)                1.5489                                         !
 ! R16   R(14,17)                1.5294                                         !
 ! R17   R(14,19)                1.0937                                         !
 ! R18   R(15,16)                1.2336                                         !
 ! R19   R(15,23)                1.3531                                         !
 ! R20   R(17,20)                1.0977                                         !
 ! R21   R(17,21)                1.0934                                         !
 ! R22   R(17,22)                1.0935                                         !
 ! R23   R(23,24)                1.4719                                         !
 ! R24   R(23,28)                1.0118                                         !
 ! R25   R(24,25)                1.5445                                         !
 ! R26   R(24,27)                1.5269                                         !
 ! R27   R(24,29)                1.0911                                         !
 ! R28   R(25,26)                1.2154                                         !
 ! R29   R(25,33)                1.397                                          !
 ! R30   R(27,30)                1.0934                                         !
 ! R31   R(27,31)                1.0936                                         !
 ! R32   R(27,32)                1.0936                                         !
 ! R33   R(33,34)                1.4682                                         !
 ! R34   R(33,40)                1.0179                                         !
 ! R35   R(34,35)                1.5336                                         !
 ! R36   R(34,37)                1.5337                                         !
 ! R37   R(34,41)                1.0914                                         !
 ! R38   R(35,36)                1.2213                                         !
 ! R39   R(35,38)                1.3329                                         !
 ! R40   R(37,42)                1.0959                                         !
 ! R41   R(37,43)                1.0923                                         !
 ! R42   R(37,44)                1.0931                                         !
 ! R43   R(38,39)                0.9847                                         !
 ! A1    A(2,1,6)              105.7649                                         !
 ! A2    A(2,1,11)             109.5142                                         !
 ! A3    A(2,1,12)             112.6101                                         !
 ! A4    A(6,1,11)             109.304                                          !
 ! A5    A(6,1,12)             110.4183                                         !
 ! A6    A(11,1,12)            109.1503                                         !
 ! A7    A(1,2,3)              103.6489                                         !
 ! A8    A(1,2,5)              110.6644                                         !
 ! A9    A(1,2,7)              107.2436                                         !
 ! A10   A(3,2,5)              110.3591                                         !
 ! A11   A(3,2,7)              112.1446                                         !
 ! A12   A(5,2,7)              112.3871                                         !
 ! A13   A(2,3,4)              118.3178                                         !
 ! A14   A(2,3,13)             118.7793                                         !
 ! A15   A(4,3,13)             122.8263                                         !
 ! A16   A(2,5,8)              110.9673                                         !
 ! A17   A(2,5,9)              110.9086                                         !
 ! A18   A(2,5,10)             109.9653                                         !
 ! A19   A(8,5,9)              109.4633                                         !
 ! A20   A(8,5,10)             107.5644                                         !
 ! A21   A(9,5,10)             107.8627                                         !
 ! A22   A(3,13,14)            129.2609                                         !
 ! A23   A(3,13,18)            113.1688                                         !
 ! A24   A(14,13,18)           117.2371                                         !
 ! A25   A(13,14,15)           109.9803                                         !
 ! A26   A(13,14,17)           109.2456                                         !
 ! A27   A(13,14,19)           108.6432                                         !
 ! A28   A(15,14,17)           115.8939                                         !
 ! A29   A(15,14,19)           104.1511                                         !
 ! A30   A(17,14,19)           108.6237                                         !
 ! A31   A(14,15,16)           119.3253                                         !
 ! A32   A(14,15,23)           118.0593                                         !
 ! A33   A(16,15,23)           122.5763                                         !
 ! A34   A(14,17,20)           111.9824                                         !
 ! A35   A(14,17,21)           110.0228                                         !
 ! A36   A(14,17,22)           110.5652                                         !
 ! A37   A(20,17,21)           107.3952                                         !
 ! A38   A(20,17,22)           108.3889                                         !
 ! A39   A(21,17,22)           108.3622                                         !
 ! A40   A(15,23,24)           122.8991                                         !
 ! A41   A(15,23,28)           120.0293                                         !
 ! A42   A(24,23,28)           116.4029                                         !
 ! A43   A(23,24,25)           108.5923                                         !
 ! A44   A(23,24,27)           110.5568                                         !
 ! A45   A(23,24,29)           105.9313                                         !
 ! A46   A(25,24,27)           110.3754                                         !
 ! A47   A(25,24,29)           111.1749                                         !
 ! A48   A(27,24,29)           110.1145                                         !
 ! A49   A(24,25,26)           121.1808                                         !
 ! A50   A(24,25,33)           118.8134                                         !
 ! A51   A(26,25,33)           119.8198                                         !
 ! A52   A(24,27,30)           110.1204                                         !
 ! A53   A(24,27,31)           109.9788                                         !
 ! A54   A(24,27,32)           110.8015                                         !
 ! A55   A(30,27,31)           108.7326                                         !
 ! A56   A(30,27,32)           107.2738                                         !
 ! A57   A(31,27,32)           109.8732                                         !
 ! A58   A(25,33,34)           129.2421                                         !
 ! A59   A(25,33,40)           110.0756                                         !
 ! A60   A(34,33,40)           115.0306                                         !
 ! A61   A(33,34,35)           110.1638                                         !
 ! A62   A(33,34,37)           111.9558                                         !
 ! A63   A(33,34,41)           109.9367                                         !
 ! A64   A(35,34,37)           110.7294                                         !
 ! A65   A(35,34,41)           104.2305                                         !
 ! A66   A(37,34,41)           109.5465                                         !
 ! A67   A(34,35,36)           122.9026                                         !
 ! A68   A(34,35,38)           116.6452                                         !
 ! A69   A(36,35,38)           120.4514                                         !
 ! A70   A(34,37,42)           111.0812                                         !
 ! A71   A(34,37,43)           109.7377                                         !
 ! A72   A(34,37,44)           109.9425                                         !
 ! A73   A(42,37,43)           108.2066                                         !
 ! A74   A(42,37,44)           108.7099                                         !
 ! A75   A(43,37,44)           109.1174                                         !
 ! A76   A(35,38,39)           106.8829                                         !
 ! D1    D(6,1,2,3)             28.1623                                         !
 ! D2    D(6,1,2,5)            -90.146                                          !
 ! D3    D(6,1,2,7)            146.9473                                         !
 ! D4    D(11,1,2,3)           -89.5145                                         !
 ! D5    D(11,1,2,5)           152.1772                                         !
 ! D6    D(11,1,2,7)            29.2705                                         !
 ! D7    D(12,1,2,3)           148.8434                                         !
 ! D8    D(12,1,2,5)            30.5352                                         !
 ! D9    D(12,1,2,7)           -92.3715                                         !
 ! D10   D(1,2,3,4)            -29.3556                                         !
 ! D11   D(1,2,3,13)           153.7348                                         !
 ! D12   D(5,2,3,4)             89.1638                                         !
 ! D13   D(5,2,3,13)           -87.7458                                         !
 ! D14   D(7,2,3,4)           -144.7068                                         !
 ! D15   D(7,2,3,13)            38.3836                                         !
 ! D16   D(1,2,5,8)            -62.788                                          !
 ! D17   D(1,2,5,9)             59.1082                                         !
 ! D18   D(1,2,5,10)           178.3268                                         !
 ! D19   D(3,2,5,8)           -176.9275                                         !
 ! D20   D(3,2,5,9)            -55.0312                                         !
 ! D21   D(3,2,5,10)            64.1874                                         !
 ! D22   D(7,2,5,8)             57.0795                                         !
 ! D23   D(7,2,5,9)            178.9758                                         !
 ! D24   D(7,2,5,10)           -61.8056                                         !
 ! D25   D(2,3,13,14)           -8.9802                                         !
 ! D26   D(2,3,13,18)          177.924                                          !
 ! D27   D(4,3,13,14)          174.2575                                         !
 ! D28   D(4,3,13,18)            1.1617                                         !
 ! D29   D(3,13,14,15)         -71.853                                          !
 ! D30   D(3,13,14,17)         159.8953                                         !
 ! D31   D(3,13,14,19)          41.5507                                         !
 ! D32   D(18,13,14,15)        101.0068                                         !
 ! D33   D(18,13,14,17)        -27.2448                                         !
 ! D34   D(18,13,14,19)       -145.5895                                         !
 ! D35   D(13,14,15,16)         82.5783                                         !
 ! D36   D(13,14,15,23)        -95.2075                                         !
 ! D37   D(17,14,15,16)       -152.9245                                         !
 ! D38   D(17,14,15,23)         29.2898                                         !
 ! D39   D(19,14,15,16)        -33.6828                                         !
 ! D40   D(19,14,15,23)        148.5315                                         !
 ! D41   D(13,14,17,20)         56.8139                                         !
 ! D42   D(13,14,17,21)        -62.5429                                         !
 ! D43   D(13,14,17,22)        177.7982                                         !
 ! D44   D(15,14,17,20)        -68.0616                                         !
 ! D45   D(15,14,17,21)        172.5816                                         !
 ! D46   D(15,14,17,22)         52.9227                                         !
 ! D47   D(19,14,17,20)        175.1707                                         !
 ! D48   D(19,14,17,21)         55.814                                          !
 ! D49   D(19,14,17,22)        -63.845                                          !
 ! D50   D(14,15,23,24)       -175.3254                                         !
 ! D51   D(14,15,23,28)         -5.0399                                         !
 ! D52   D(16,15,23,24)          6.9655                                         !
 ! D53   D(16,15,23,28)        177.2511                                         !
 ! D54   D(15,23,24,25)       -106.4096                                         !
 ! D55   D(15,23,24,27)        132.3606                                         !
 ! D56   D(15,23,24,29)         13.0855                                         !
 ! D57   D(28,23,24,25)         82.9774                                         !
 ! D58   D(28,23,24,27)        -38.2525                                         !
 ! D59   D(28,23,24,29)       -157.5275                                         !
 ! D60   D(23,24,25,26)        -95.691                                          !
 ! D61   D(23,24,25,33)         79.3434                                         !
 ! D62   D(27,24,25,26)         25.6502                                         !
 ! D63   D(27,24,25,33)       -159.3153                                         !
 ! D64   D(29,24,25,26)        148.1494                                         !
 ! D65   D(29,24,25,33)        -36.8162                                         !
 ! D66   D(23,24,27,30)       -178.2313                                         !
 ! D67   D(23,24,27,31)        -58.4221                                         !
 ! D68   D(23,24,27,32)         63.2488                                         !
 ! D69   D(25,24,27,30)         61.6014                                         !
 ! D70   D(25,24,27,31)       -178.5894                                         !
 ! D71   D(25,24,27,32)        -56.9184                                         !
 ! D72   D(29,24,27,30)        -61.5174                                         !
 ! D73   D(29,24,27,31)         58.2918                                         !
 ! D74   D(29,24,27,32)        179.9627                                         !
 ! D75   D(24,25,33,34)         22.2013                                         !
 ! D76   D(24,25,33,40)        173.8629                                         !
 ! D77   D(26,25,33,34)       -162.6951                                         !
 ! D78   D(26,25,33,40)        -11.0335                                         !
 ! D79   D(25,33,34,35)       -111.4677                                         !
 ! D80   D(25,33,34,37)        124.8503                                         !
 ! D81   D(25,33,34,41)          2.8479                                         !
 ! D82   D(40,33,34,35)         98.0077                                         !
 ! D83   D(40,33,34,37)        -25.6743                                         !
 ! D84   D(40,33,34,41)       -147.6767                                         !
 ! D85   D(33,34,35,36)       -177.6637                                         !
 ! D86   D(33,34,35,38)          2.6521                                         !
 ! D87   D(37,34,35,36)        -53.2722                                         !
 ! D88   D(37,34,35,38)        127.0436                                         !
 ! D89   D(41,34,35,36)         64.4402                                         !
 ! D90   D(41,34,35,38)       -115.2441                                         !
 ! D91   D(33,34,37,42)         57.4705                                         !
 ! D92   D(33,34,37,43)        177.0789                                         !
 ! D93   D(33,34,37,44)        -62.8997                                         !
 ! D94   D(35,34,37,42)        -65.8932                                         !
 ! D95   D(35,34,37,43)         53.7152                                         !
 ! D96   D(35,34,37,44)        173.7367                                         !
 ! D97   D(41,34,37,42)        179.696                                          !
 ! D98   D(41,34,37,43)        -60.6956                                         !
 ! D99   D(41,34,37,44)         59.3259                                         !
 ! D100  D(34,35,38,39)         -0.0205                                         !
 ! D101  D(36,35,38,39)       -179.713                                          !
 --------------------------------------------------------------------------------
                          Input orientation:                          
 ---------------------------------------------------------------------
 Center     Atomic      Atomic             Coordinates (Angstroms)
 Number     Number       Type             X           Y           Z
 ---------------------------------------------------------------------
      1          7           0        3.357890   -4.100679   -1.995401
      2          6           0        2.491089   -3.373606   -0.997861
      3          6           0        1.173477   -3.134874   -1.765984
      4          8           0        1.224801   -3.012993   -2.987023
      5          6           0        3.126136   -2.038795   -0.602469
      6          1           0        3.035278   -3.786915   -2.930884
      7          1           0        2.354485   -4.037548   -0.143963
      8          1           0        4.088900   -2.195125   -0.104439
      9          1           0        3.268695   -1.398863   -1.479500
     10          1           0        2.474623   -1.508116    0.097731
     11          1           0        3.203844   -5.142170   -1.903920
     12          1           0        4.352808   -3.896722   -1.874125
     13          7           0        0.022908   -3.005663   -1.062837
     14          6           0       -0.222860   -3.231826    0.368529
     15          6           0       -0.184609   -4.748879    0.678882
     16          8           0        0.903620   -5.302010    0.856252
     17          6           0       -1.498537   -2.497239    0.783206
     18          1           0       -0.784385   -2.818509   -1.648895
     19          1           0        0.616823   -2.821445    0.936559
     20          1           0       -2.364529   -2.807665    0.184405
     21          1           0       -1.372931   -1.420209    0.642436
     22          1           0       -1.723415   -2.682984    1.837042
     23          7           0       -1.356983   -5.424241    0.698795
     24          6           0       -1.456106   -6.842778    1.078822
     25          6           0       -1.706198   -7.677851   -0.196196
     26          8           0       -2.830685   -7.997834   -0.528324
     27          6           0       -2.588588   -7.051336    2.081552
     28          1           0       -2.230556   -4.925485    0.590041
     29          1           0       -0.498678   -7.098054    1.535656
     30          1           0       -2.635708   -8.101381    2.382672
     31          1           0       -2.417833   -6.438247    2.970910
     32          1           0       -3.554201   -6.797900    1.635100
     33          7           0       -0.624551   -7.976512   -1.028386
     34          6           0        0.808897   -8.009954   -0.712460
     35          6           0        1.534632   -6.863370   -1.427105
     36          8           0        2.742800   -6.698305   -1.359069
     37          6           0        1.443366   -9.359969   -1.069119
     38          8           0        0.777720   -6.028174   -2.138590
     39          1           0       -0.152015   -6.341112   -2.052622
     40          1           0       -0.917549   -8.611816   -1.767787
     41          1           0        0.961065   -7.803877    0.348471
     42          1           0        1.300290   -9.594776   -2.130006
     43          1           0        2.516587   -9.327683   -0.868444
     44          1           0        0.990895  -10.154444   -0.470035
 ---------------------------------------------------------------------
                    Distance matrix (angstroms):
                    1          2          3          4          5
     1  N    0.000000
     2  C    1.508332   0.000000
     3  C    2.399390   1.543732   0.000000
     4  O    2.591610   2.385434   1.228180   0.000000
     5  C    2.499066   1.530143   2.523496   3.201598   0.000000
     6  H    1.038102   2.050255   2.290950   1.969755   2.913022
     7  H    2.106805   1.090239   2.200126   3.226282   2.191047
     8  H    2.782310   2.177158   3.484760   4.145028   1.095165
     9  H    2.752076   2.176294   2.736009   3.009243   1.094997
    10  H    3.447136   2.163480   2.795131   3.652727   1.093787
    11  H    1.056789   2.111109   2.858435   3.102115   3.366117
    12  H    1.022823   2.123084   3.271124   3.435687   2.563927
    13  N    3.631919   2.496301   1.354592   2.268720   3.282803
    14  C    4.377767   3.041816   2.552509   3.661058   3.685368
    15  C    4.485672   3.444155   3.229053   4.294020   4.466257
    16  O    3.949502   3.110713   3.412539   4.484811   4.209040
    17  C    5.820358   4.456157   3.747614   4.679445   4.849523
    18  H    4.349996   3.385367   1.986711   2.421825   4.122516
    19  H    4.212633   2.749497   2.777020   3.975025   3.045948
    20  H    6.258556   5.029421   4.053217   4.794102   5.599798
    21  H    6.043490   4.630009   3.901892   4.739003   4.708933
    22  H    6.520517   5.125981   4.645211   5.663258   5.466657
    23  N    5.589323   4.678825   4.209461   5.105388   5.766531
    24  C    6.335970   5.650497   5.362479   6.195613   6.848499
    25  C    6.455872   6.065180   5.603160   6.175790   7.437437
    26  O    7.459128   7.065779   6.419774   6.880467   8.426112
    27  C    7.790284   6.986530   6.655475   7.519350   8.061489
    28  H    6.212531   5.217633   4.510497   5.328462   6.200743
    29  H    6.027084   5.406379   5.422521   6.333462   6.580802
    30  H    8.431865   7.750090   7.509156   8.344390   8.880589
    31  H    7.967901   7.017171   6.800584   7.778054   7.928418
    32  H    8.260299   7.429926   6.880122   7.650387   8.501923
    33  N    5.640659   5.558317   5.217127   5.647379   7.036017
    34  C    4.840013   4.940338   5.000923   5.506018   6.405968
    35  C    3.358525   3.643832   3.761244   4.165903   5.146789
    36  O    2.744251   3.353723   3.914894   4.305355   4.736077
    37  C    5.673053   6.077774   6.269790   6.634021   7.526557
    38  O    3.223821   3.359112   2.943917   3.164023   4.877486
    39  H    4.164402   4.111522   3.481243   3.720901   5.599924
    40  H    6.219448   6.296860   5.862532   6.117436   7.804739
    41  H    4.995216   4.876565   5.129876   5.843599   6.231211
    42  H    5.868299   6.434494   6.471393   6.637774   7.922116
    43  H    5.412891   5.955538   6.400031   6.784718   7.319165
    44  H    6.676636   6.964836   7.140531   7.575636   8.392887
                    6          7          8          9         10
     6  H    0.000000
     7  H    2.879797   0.000000
     8  H    3.410676   2.530668   0.000000
     9  H    2.804246   3.095497   1.788173   0.000000
    10  H    3.831419   2.543792   1.765996   1.769221   0.000000
    11  H    1.708738   2.244782   3.564622   3.767849   4.212448
    12  H    1.692537   2.646996   2.469184   2.751423   3.622324
    13  N    3.629645   2.710234   4.255324   3.645620   3.098463
    14  C    4.670088   2.748553   4.459789   4.354988   3.212620
    15  C    4.931883   2.762257   5.039656   5.273190   4.232234
    16  O    4.602378   2.168941   4.552106   5.126780   4.175768
    17  C    6.001101   4.251820   5.665566   5.390062   4.151415
    18  H    4.143806   3.688276   5.150034   4.297854   3.922878
    19  H    4.662422   2.380316   3.678487   3.859210   2.424848
    20  H    6.310458   4.887692   6.488866   6.040407   5.011361
    21  H    6.148352   4.621961   5.566859   5.103701   3.886915
    22  H    6.826196   4.731648   6.147386   6.129403   4.693511
    23  N    5.928521   4.050698   6.382007   6.507344   5.511671
    24  C    6.751931   4.887241   7.331294   7.648854   6.698641
    25  C    6.715616   5.453777   7.978212   8.113083   7.458639
    26  O    7.610102   6.535869   9.040562   9.036238   8.405634
    27  C    8.210288   6.202403   8.541088   8.884780   7.765240
    28  H    6.436013   4.727557   6.919009   6.852870   5.836051
    29  H    6.588055   4.508698   6.911910   7.467600   6.492731
    30  H    8.888677   6.913801   9.289237   9.731500   8.649137
    31  H    8.461510   6.183915   8.354605   8.805575   7.516481
    32  H    8.563614   6.759969   9.090023   9.241334   8.166520
    33  N    5.879334   5.017200   7.516297   7.656783   7.260383
    34  C    5.264241   4.300237   6.703756   7.095455   6.760544
    35  C    3.738698   3.209966   5.483269   5.733285   5.646898
    36  O    3.321496   2.950746   4.864639   5.326834   5.397430
    37  C    6.087633   5.478523   7.698340   8.177985   8.004787
    38  O    3.278345   3.229136   5.458384   5.298102   5.320859
    39  H    4.177810   3.902810   6.242594   6.037843   5.906022
    40  H    6.344864   5.853797   8.306935   8.344725   8.090089
    41  H    5.585026   4.045904   6.437901   7.049173   6.479995
    42  H    6.114150   5.994870   8.162971   8.454038   8.469707
    43  H    5.934880   5.341973   7.343654   7.987818   7.879142
    44  H    7.126058   6.275517   8.548804   9.103164   8.791063
                   11         12         13         14         15
    11  H    0.000000
    12  H    1.694741   0.000000
    13  N    3.923064   4.494464   0.000000
    14  C    4.533843   5.138903   1.469817   0.000000
    15  C    4.278686   5.275621   2.472944   1.548946   0.000000
    16  O    3.596544   4.618083   3.119578   2.406760   1.233554
    17  C    6.027329   6.577097   2.445643   1.529355   2.609056
    18  H    4.622813   5.253952   1.014994   2.134512   3.082955
    19  H    4.488514   4.797265   2.093861   1.093681   2.103258
    20  H    6.388880   7.109586   2.700866   2.191018   2.960553
    21  H    6.425246   6.726833   2.714773   2.163249   3.534612
    22  H    6.657347   7.222631   3.400451   2.170121   2.824391
    23  N    5.258785   6.446312   3.294991   2.490380   1.353133
    24  C    5.788260   7.151407   4.636555   3.881287   2.482150
    25  C    5.783987   7.336480   5.056700   4.720842   3.414655
    26  O    6.816349   8.380506   5.774987   5.506354   4.360593
    27  C    7.285683   8.589642   5.751049   4.808303   3.612189
    28  H    5.983268   7.104305   3.390549   2.635980   2.055476
    29  H    5.418933   6.738847   4.875642   4.047960   2.520183
    30  H    7.825098   9.199936   6.701202   5.795789   4.488881
    31  H    7.552949   8.704901   5.831892   4.676690   3.618652
    32  H    7.806233   9.124269   5.869893   5.041718   4.057954
    33  N    4.843207   6.491076   5.012956   4.962335   3.677761
    34  C    3.921674   5.552247   5.077742   5.006352   3.682050
    35  C    2.444617   4.116181   4.159315   4.416015   3.444132
    36  O    1.712011   3.272045   4.595777   4.878136   4.064878
    37  C    4.646074   6.241791   6.511139   6.511319   5.193068
    38  O    2.593483   4.170646   3.295839   3.886691   3.240498
    39  H    3.566701   5.128385   3.483603   3.941402   3.161864
    40  H    5.389142   7.072487   5.728033   5.830157   4.630947
    41  H    4.145842   5.631138   5.088692   4.722894   3.279444
    42  H    4.847714   6.469247   6.796099   7.003556   5.794609
    43  H    4.366125   5.820519   6.798835   6.796627   5.536797
    44  H    5.663573   7.241064   7.238334   7.078067   5.649951
                   16         17         18         19         20
    16  O    0.000000
    17  C    3.693567   0.000000
    18  H    3.910614   2.555063   0.000000
    19  H    2.498381   2.145547   2.940742   0.000000
    20  H    4.165805   1.097665   2.420323   3.074798   0.000000
    21  H    4.505195   1.093429   2.748060   2.451345   1.765812
    22  H    3.836999   1.093454   3.612742   2.511325   1.777015
    23  N    2.269374   2.931638   3.553780   3.275208   2.850652
    24  C    2.826979   4.355789   4.907789   4.526411   4.231708
    25  C    3.682854   5.276466   5.154928   5.501294   4.929196
    26  O    4.809319   5.809585   5.680531   6.389538   5.259577
    27  C    4.093534   4.859394   5.923530   5.429332   4.653828
    28  H    3.167917   2.543530   3.397587   3.557334   2.160475
    29  H    2.377773   4.767956   5.342051   4.460118   4.869776
    30  H    4.763746   5.937832   6.898526   6.367725   5.738409
    31  H    4.098154   4.600293   6.092065   5.140913   4.576962
    32  H    4.766179   4.842227   5.855942   5.804963   4.409287
    33  N    3.611111   5.836793   5.197650   5.654797   5.587071
    34  C    3.130941   6.160462   5.510585   5.447640   6.159449
    35  C    2.837207   5.757490   4.667754   4.771419   5.852279
    36  O    3.199980   6.342495   5.251461   4.981941   6.603348
    37  C    4.523871   7.693046   6.934674   6.888992   7.681411
    38  O    3.084193   5.117201   3.603043   4.445845   5.063765
    39  H    3.264299   4.962903   3.601613   4.681279   4.731254
    40  H    4.599679   6.650802   5.796056   6.572380   6.292295
    41  H    2.553522   5.865069   5.647119   5.028815   6.004051
    42  H    5.244323   8.166717   7.105992   7.466522   8.053091
    43  H    4.667149   8.093462   7.339949   7.014148   8.212455
    44  H    5.031180   8.148661   7.639193   7.476049   8.103230
                   21         22         23         24         25
    21  H    0.000000
    22  H    1.773280   0.000000
    23  N    4.004460   2.990714   0.000000
    24  C    5.440736   4.236772   1.471901   0.000000
    25  C    6.322377   5.392871   2.449841   1.544527   0.000000
    26  O    6.838193   5.921878   3.209517   2.409677   1.215389
    27  C    5.937884   4.459912   2.465017   1.526918   2.521759
    28  H    3.609048   2.615534   1.011788   2.124780   2.910092
    29  H    5.813784   4.591695   2.058805   1.091115   2.189425
    30  H    7.018624   5.521686   3.411401   2.162305   2.773793
    31  H    5.629771   3.983702   2.704833   2.160685   3.474709
    32  H    5.887519   4.508336   2.755245   2.171051   2.746466
    33  N    6.807116   6.118792   3.167601   2.533212   1.397032
    34  C    7.072542   6.425665   3.656308   3.114680   2.588923
    35  C    6.508835   6.224561   3.866779   3.901873   3.561109
    36  O    6.985955   6.803309   4.760910   4.857469   4.701635
    37  C    8.596553   7.940806   5.143678   4.399641   3.675767
    38  O    5.795925   5.766422   3.601728   4.000662   3.558676
    39  H    5.741887   5.566030   3.140525   3.429033   2.765624
    40  H    7.598405   6.985361   4.054351   3.394514   1.991019
    41  H    6.803320   5.970412   3.340470   2.701822   2.725222
    42  H    9.036376   8.523681   5.697067   5.046562   4.056253
    43  H    8.940875   8.333625   5.718185   5.074336   4.583206
    44  H    9.116585   8.277246   5.408652   4.399308   3.671895
                   26         27         28         29         30
    26  O    0.000000
    27  C    2.786741   0.000000
    28  H    3.324188   2.621457   0.000000
    29  H    3.241586   2.160535   2.934901   0.000000
    30  H    2.919355   1.093383   3.669330   2.508186   0.000000
    31  H    3.853232   1.093614   2.827023   2.485650   1.777499
    32  H    2.577542   1.093598   2.519945   3.071840   1.761123
    33  N    2.262199   3.792770   3.808848   2.713272   3.961775
    34  C    3.644257   4.502039   4.522027   2.755965   4.631793
    35  C    4.599001   5.417283   4.690513   3.601025   5.782630
    36  O    5.782962   6.355014   5.628161   4.364220   6.700567
    37  C    4.518338   5.613659   5.992925   3.958869   5.489786
    38  O    4.415099   5.494405   4.208453   4.034095   6.032535
    39  H    3.499070   4.851052   3.648013   3.683596   5.379509
    40  H    2.360791   4.477151   4.568629   3.657823   4.520943
    41  H    3.896634   4.021184   4.304641   2.009588   4.142856
    42  H    4.709624   6.271338   6.455060   4.786124   6.171432
    43  H    5.520643   6.320367   6.636406   4.454522   6.214476
    44  H    4.388489   5.380760   6.232457   3.947549   5.050273
                   31         32         33         34         35
    31  H    0.000000
    32  H    1.790270   0.000000
    33  N    4.645049   4.131118   0.000000
    34  C    5.142885   5.100660   1.468230   0.000000
    35  C    5.928343   5.939496   2.461734   1.533644   0.000000
    36  O    6.741549   6.973320   3.616935   2.424563   1.221288
    37  C    6.306120   6.233191   2.488351   1.533720   2.523784
    38  O    6.040423   5.796443   2.644794   2.441775   1.332921
    39  H    5.511737   5.038137   1.986677   2.346150   1.873180
    40  H    5.424988   4.671388   1.017926   2.111058   3.030894
    41  H    4.489886   4.801565   2.107063   1.091421   2.089546
    42  H    7.057439   6.750157   2.745425   2.182330   2.830117
    43  H    6.887523   7.037187   3.423155   2.162625   2.710936
    44  H    6.104887   6.029584   2.768539   2.165810   3.470274
                   36         37         38         39         40
    36  O    0.000000
    37  C    2.976080   0.000000
    38  O    2.217717   3.561980   0.000000
    39  H    2.998092   3.553310   0.984747   0.000000
    40  H    4.150509   2.573283   3.112335   2.413145   0.000000
    41  H    2.704175   2.159537   3.061406   3.023885   2.942874
    42  H    3.326367   1.095940   3.604691   3.563917   2.452799
    43  H    2.684308   1.092299   3.940011   4.176520   3.621405
    44  H    3.975481   1.093079   4.455964   4.283961   2.775972
                   41         42         43         44
    41  H    0.000000
    42  H    3.076563   0.000000
    43  H    2.494497   1.772641   0.000000
    44  H    2.489178   1.778892   1.780449   0.000000
 Symmetry turned off by external request.
 Stoichiometry    C12H23N4O5(1+)
 Framework group  C1[X(C12H23N4O5)]
 Deg. of freedom   126
 Full point group                 C1      NOp   1
 Rotational constants (GHZ):           0.4196564           0.2548567           0.1874797
 Standard basis: 6-31G(d) (6D, 7F)
   361 basis functions,   680 primitive gaussians,   361 cartesian basis functions
    81 alpha electrons       81 beta electrons
       nuclear repulsion energy      1961.7174072537 Hartrees.
 NAtoms=   44 NActive=   44 NUniq=   44 SFac= 1.00D+00 NAtFMM=   60 NAOKFM=F Big=F
 Integral buffers will be    131072 words long.
 Raffenetti 2 integral format.
 Two-electron integral symmetry is turned off.
 Nuclear repulsion after empirical dispersion term =     1961.6595926711 Hartrees.
 One-electron integrals computed using PRISM.
 NBasis=   361 RedAO= T EigKep=  2.20D-03  NBF=   361
 NBsUse=   361 1.00D-06 EigRej= -1.00D+00 NBFU=   361
 Initial guess from the checkpoint file:  "conf-84.chk"
 B after Tr=     0.000000    0.000000    0.000000
         Rot=    1.000000    0.000000    0.000000    0.000000 Ang=   0.00 deg.
 Requested convergence on RMS density matrix=1.00D-08 within 128 cycles.
 Requested convergence on MAX density matrix=1.00D-06.
 Requested convergence on             energy=1.00D-06.
 No special actions if energy rises.
 SCF Done:  E(RB3LYP) =  -1066.17003511     A.U. after    1 cycles
            NFock=  1  Conv=0.65D-08     -V/T= 2.0093

 **********************************************************************

            Population analysis using the SCF Density.

 **********************************************************************

 Alpha  occ. eigenvalues --  -19.33320 -19.28162 -19.26196 -19.25701 -19.24510
 Alpha  occ. eigenvalues --  -14.57228 -14.50757 -14.50568 -14.49493 -10.45941
 Alpha  occ. eigenvalues --  -10.43636 -10.42913 -10.41808 -10.39071 -10.38297
 Alpha  occ. eigenvalues --  -10.37411 -10.36288 -10.33020 -10.32265 -10.30524
 Alpha  occ. eigenvalues --  -10.29160  -1.24644  -1.18731  -1.17675  -1.16601
 Alpha  occ. eigenvalues --   -1.15959  -1.11984  -1.07137  -1.06371  -1.05290
 Alpha  occ. eigenvalues --   -0.92541  -0.91259  -0.89795  -0.88369  -0.80824
 Alpha  occ. eigenvalues --   -0.79722  -0.78973  -0.77987  -0.74500  -0.73756
 Alpha  occ. eigenvalues --   -0.72964  -0.72126  -0.71117  -0.70544  -0.66957
 Alpha  occ. eigenvalues --   -0.66193  -0.64247  -0.62643  -0.61874  -0.61556
 Alpha  occ. eigenvalues --   -0.60484  -0.60216  -0.59213  -0.58446  -0.57184
 Alpha  occ. eigenvalues --   -0.55961  -0.55112  -0.54989  -0.54079  -0.53724
 Alpha  occ. eigenvalues --   -0.53351  -0.52862  -0.52447  -0.52304  -0.51710
 Alpha  occ. eigenvalues --   -0.51184  -0.50921  -0.50338  -0.50011  -0.49328
 Alpha  occ. eigenvalues --   -0.49134  -0.48998  -0.47461  -0.45416  -0.43305
 Alpha  occ. eigenvalues --   -0.41578  -0.40863  -0.40337  -0.38931  -0.38189
 Alpha  occ. eigenvalues --   -0.36887
 Alpha virt. eigenvalues --   -0.13880  -0.13002  -0.11574  -0.10481  -0.07820
 Alpha virt. eigenvalues --   -0.05857  -0.04096  -0.03332  -0.02772  -0.01762
 Alpha virt. eigenvalues --   -0.01636  -0.00100   0.00378   0.01528   0.01870
 Alpha virt. eigenvalues --    0.02150   0.02549   0.02770   0.03691   0.04191
 Alpha virt. eigenvalues --    0.04437   0.04912   0.05591   0.05739   0.05904
 Alpha virt. eigenvalues --    0.06499   0.06820   0.07398   0.08275   0.08725
 Alpha virt. eigenvalues --    0.09303   0.10066   0.10477   0.11481   0.12257
 Alpha virt. eigenvalues --    0.13081   0.13313   0.13898   0.14747   0.18056
 Alpha virt. eigenvalues --    0.21111   0.21730   0.22538   0.25983   0.26582
 Alpha virt. eigenvalues --    0.27294   0.29387   0.32744   0.35109   0.35607
 Alpha virt. eigenvalues --    0.37135   0.37879   0.38820   0.39513   0.39948
 Alpha virt. eigenvalues --    0.41085   0.42378   0.43159   0.43660   0.44636
 Alpha virt. eigenvalues --    0.45066   0.46684   0.47545   0.47929   0.49101
 Alpha virt. eigenvalues --    0.49644   0.49903   0.51155   0.51940   0.52466
 Alpha virt. eigenvalues --    0.52864   0.53813   0.54995   0.56122   0.58006
 Alpha virt. eigenvalues --    0.58709   0.59493   0.60401   0.60994   0.62910
 Alpha virt. eigenvalues --    0.62990   0.64164   0.65206   0.65820   0.66785
 Alpha virt. eigenvalues --    0.67586   0.68309   0.68615   0.69858   0.71625
 Alpha virt. eigenvalues --    0.72109   0.72709   0.73468   0.73769   0.74183
 Alpha virt. eigenvalues --    0.74573   0.75599   0.76148   0.76420   0.77091
 Alpha virt. eigenvalues --    0.77466   0.77878   0.78595   0.79001   0.79536
 Alpha virt. eigenvalues --    0.79979   0.80338   0.80861   0.82068   0.83019
 Alpha virt. eigenvalues --    0.83920   0.85117   0.85381   0.86272   0.86431
 Alpha virt. eigenvalues --    0.87062   0.88410   0.88450   0.89808   0.90267
 Alpha virt. eigenvalues --    0.90909   0.93494   0.94116   0.95269   0.97287
 Alpha virt. eigenvalues --    0.99845   1.00451   1.01400   1.04748   1.05791
 Alpha virt. eigenvalues --    1.06266   1.07894   1.08798   1.11574   1.12710
 Alpha virt. eigenvalues --    1.15129   1.15352   1.17411   1.18334   1.20356
 Alpha virt. eigenvalues --    1.22135   1.22956   1.23694   1.24777   1.26376
 Alpha virt. eigenvalues --    1.29035   1.30260   1.32458   1.34557   1.35448
 Alpha virt. eigenvalues --    1.36686   1.39425   1.41301   1.42197   1.43434
 Alpha virt. eigenvalues --    1.45297   1.46403   1.48380   1.49029   1.52883
 Alpha virt. eigenvalues --    1.53172   1.54059   1.56171   1.58067   1.58605
 Alpha virt. eigenvalues --    1.60173   1.60950   1.61354   1.64490   1.65872
 Alpha virt. eigenvalues --    1.66016   1.66964   1.67496   1.68216   1.69748
 Alpha virt. eigenvalues --    1.70470   1.71677   1.72489   1.73556   1.74779
 Alpha virt. eigenvalues --    1.75941   1.76610   1.77516   1.79170   1.79905
 Alpha virt. eigenvalues --    1.81113   1.82470   1.83158   1.84355   1.85519
 Alpha virt. eigenvalues --    1.85808   1.86532   1.88413   1.88864   1.89240
 Alpha virt. eigenvalues --    1.90686   1.91357   1.92481   1.93221   1.93732
 Alpha virt. eigenvalues --    1.95009   1.95479   1.97442   1.97908   2.00193
 Alpha virt. eigenvalues --    2.02405   2.03889   2.05783   2.07252   2.07699
 Alpha virt. eigenvalues --    2.10610   2.12310   2.13145   2.14170   2.15420
 Alpha virt. eigenvalues --    2.15766   2.16957   2.18194   2.19295   2.20148
 Alpha virt. eigenvalues --    2.20913   2.25929   2.26526   2.28585   2.29888
 Alpha virt. eigenvalues --    2.31103   2.32200   2.33932   2.35860   2.38563
 Alpha virt. eigenvalues --    2.39565   2.42278   2.44365   2.45104   2.46412
 Alpha virt. eigenvalues --    2.49480   2.49568   2.49903   2.52202   2.53743
 Alpha virt. eigenvalues --    2.54521   2.56993   2.57452   2.59906   2.61781
 Alpha virt. eigenvalues --    2.66226   2.67972   2.76620   2.79721   2.81813
 Alpha virt. eigenvalues --    2.83846   2.87223   2.88452   2.89226   2.91027
 Alpha virt. eigenvalues --    2.94805   2.99173   3.02556   3.03153   3.71461
 Alpha virt. eigenvalues --    3.77879   3.84624   3.87527   3.93145   3.96972
 Alpha virt. eigenvalues --    4.03924   4.06070   4.09516   4.12923   4.14655
 Alpha virt. eigenvalues --    4.15567   4.20561   4.22638   4.25945   4.29554
 Alpha virt. eigenvalues --    4.30874   4.50462   4.52777   4.55240   4.57582
          Condensed to atoms (all electrons):
               1          2          3          4          5          6
     1  N    7.019399   0.216713  -0.045025  -0.030001  -0.047431   0.249337
     2  C    0.216713   5.309228   0.295605  -0.088229   0.346643  -0.042243
     3  C   -0.045025   0.295605   4.345274   0.541942  -0.040100  -0.006797
     4  O   -0.030001  -0.088229   0.541942   8.092644  -0.003184   0.062603
     5  C   -0.047431   0.346643  -0.040100  -0.003184   5.120770   0.001371
     6  H    0.249337  -0.042243  -0.006797   0.062603   0.001371   0.326634
     7  H   -0.031532   0.329314  -0.023641   0.002527  -0.025098   0.004111
     8  H   -0.003484  -0.029094   0.003704  -0.000043   0.372640  -0.000393
     9  H   -0.003614  -0.035028  -0.004059   0.003613   0.374101   0.002449
    10  H    0.003884  -0.031708  -0.002728  -0.000007   0.377283  -0.000075
    11  H    0.186544  -0.015693  -0.000305   0.000364   0.002694  -0.003216
    12  H    0.300950  -0.023654   0.004321   0.000381  -0.001275  -0.011580
    13  N    0.001427  -0.110539   0.309973  -0.081511   0.000990   0.002287
    14  C   -0.000059   0.010819  -0.024373   0.002687  -0.002050  -0.000079
    15  C    0.000083  -0.002216  -0.001052  -0.000036   0.000108  -0.000003
    16  O    0.000126  -0.018224   0.002456   0.000008   0.000388  -0.000010
    17  C   -0.000003  -0.000266   0.003571  -0.000075   0.000034   0.000001
    18  H   -0.000082   0.007718  -0.013515   0.006271  -0.000252  -0.000123
    19  H    0.000043   0.000915  -0.006464   0.000035   0.001046  -0.000008
    20  H    0.000000  -0.000003  -0.000174  -0.000003  -0.000002   0.000000
    21  H    0.000000  -0.000007  -0.000087  -0.000006   0.000014   0.000000
    22  H   -0.000000   0.000015  -0.000067   0.000000  -0.000002  -0.000000
    23  N    0.000001  -0.000233  -0.000006  -0.000001  -0.000001  -0.000000
    24  C   -0.000000   0.000006  -0.000007   0.000000  -0.000000   0.000000
    25  C    0.000000  -0.000000   0.000003  -0.000000   0.000000  -0.000000
    26  O    0.000000  -0.000000   0.000000  -0.000000   0.000000  -0.000000
    27  C    0.000000   0.000000  -0.000000   0.000000  -0.000000   0.000000
    28  H   -0.000000   0.000007  -0.000020  -0.000000  -0.000000   0.000000
    29  H    0.000000   0.000004  -0.000002   0.000000  -0.000000   0.000000
    30  H   -0.000000   0.000000   0.000000   0.000000   0.000000  -0.000000
    31  H   -0.000000   0.000000  -0.000000  -0.000000   0.000000  -0.000000
    32  H   -0.000000  -0.000000   0.000000  -0.000000   0.000000   0.000000
    33  N    0.000003  -0.000001  -0.000002   0.000000   0.000000  -0.000000
    34  C   -0.000196   0.000037   0.000015  -0.000004  -0.000000   0.000004
    35  C    0.002093   0.000837  -0.000062   0.000055   0.000035  -0.000080
    36  O   -0.048065   0.001141  -0.000377  -0.000003   0.000013   0.000417
    37  C    0.000001   0.000002  -0.000000   0.000000   0.000000  -0.000000
    38  O    0.001139   0.000772   0.006708  -0.001382   0.000037   0.000230
    39  H   -0.000005   0.000037  -0.000121   0.000047  -0.000000  -0.000007
    40  H   -0.000000  -0.000000   0.000000  -0.000000  -0.000000  -0.000000
    41  H    0.000008   0.000000  -0.000003   0.000000  -0.000000  -0.000000
    42  H    0.000000  -0.000000   0.000000  -0.000000  -0.000000  -0.000000
    43  H    0.000002  -0.000000   0.000000   0.000000  -0.000000  -0.000000
    44  H   -0.000000  -0.000000   0.000000  -0.000000  -0.000000  -0.000000
               7          8          9         10         11         12
     1  N   -0.031532  -0.003484  -0.003614   0.003884   0.186544   0.300950
     2  C    0.329314  -0.029094  -0.035028  -0.031708  -0.015693  -0.023654
     3  C   -0.023641   0.003704  -0.004059  -0.002728  -0.000305   0.004321
     4  O    0.002527  -0.000043   0.003613  -0.000007   0.000364   0.000381
     5  C   -0.025098   0.372640   0.374101   0.377283   0.002694  -0.001275
     6  H    0.004111  -0.000393   0.002449  -0.000075  -0.003216  -0.011580
     7  H    0.464620  -0.003657   0.003768  -0.001720  -0.001961   0.000039
     8  H   -0.003657   0.514103  -0.026917  -0.021501  -0.000093   0.004117
     9  H    0.003768  -0.026917   0.510514  -0.021783  -0.000002   0.000040
    10  H   -0.001720  -0.021501  -0.021783   0.494881  -0.000069  -0.000021
    11  H   -0.001961  -0.000093  -0.000002  -0.000069   0.295675  -0.007626
    12  H    0.000039   0.004117   0.000040  -0.000021  -0.007626   0.333555
    13  N    0.001139  -0.000055   0.000017   0.001668   0.000089  -0.000082
    14  C   -0.003812   0.000036   0.000003  -0.000032  -0.000027   0.000000
    15  C   -0.002234   0.000000  -0.000005   0.000073   0.000043  -0.000001
    16  O    0.038317  -0.000004  -0.000004   0.000002   0.000008  -0.000006
    17  C    0.000309  -0.000001   0.000003  -0.000075   0.000000  -0.000000
    18  H   -0.000308   0.000006  -0.000025  -0.000034  -0.000002   0.000004
    19  H    0.001495  -0.000099  -0.000023   0.003373   0.000004  -0.000002
    20  H   -0.000001  -0.000000   0.000000   0.000000   0.000000  -0.000000
    21  H   -0.000013   0.000000  -0.000001   0.000053  -0.000000   0.000000
    22  H    0.000000   0.000000  -0.000000  -0.000001  -0.000000   0.000000
    23  N    0.000704  -0.000000   0.000000  -0.000000   0.000001   0.000000
    24  C   -0.000017   0.000000  -0.000000   0.000000  -0.000000   0.000000
    25  C    0.000004  -0.000000  -0.000000  -0.000000  -0.000001  -0.000000
    26  O    0.000000   0.000000  -0.000000   0.000000  -0.000000  -0.000000
    27  C   -0.000000   0.000000   0.000000   0.000000  -0.000000   0.000000
    28  H   -0.000023  -0.000000   0.000000  -0.000000   0.000000  -0.000000
    29  H   -0.000021   0.000000   0.000000  -0.000000  -0.000000   0.000000
    30  H   -0.000000   0.000000  -0.000000  -0.000000  -0.000000  -0.000000
    31  H   -0.000000  -0.000000   0.000000   0.000000   0.000000  -0.000000
    32  H    0.000000   0.000000  -0.000000   0.000000   0.000000   0.000000
    33  N   -0.000000  -0.000000  -0.000000  -0.000000  -0.000056  -0.000000
    34  C   -0.000072   0.000000  -0.000000   0.000000   0.001847   0.000003
    35  C    0.000700   0.000001  -0.000000   0.000001  -0.004023   0.000057
    36  O    0.002584   0.000001  -0.000000   0.000001   0.101132   0.000645
    37  C   -0.000002   0.000000   0.000000  -0.000000  -0.000031  -0.000000
    38  O   -0.000842  -0.000000  -0.000000   0.000000  -0.002352   0.000027
    39  H   -0.000013  -0.000000   0.000000  -0.000000   0.000015   0.000000
    40  H    0.000000  -0.000000   0.000000   0.000000   0.000000  -0.000000
    41  H   -0.000024  -0.000000   0.000000  -0.000000  -0.000088  -0.000000
    42  H    0.000000  -0.000000  -0.000000  -0.000000  -0.000008  -0.000000
    43  H   -0.000000  -0.000000   0.000000  -0.000000  -0.000027  -0.000000
    44  H   -0.000000   0.000000   0.000000   0.000000   0.000001   0.000000
              13         14         15         16         17         18
     1  N    0.001427  -0.000059   0.000083   0.000126  -0.000003  -0.000082
     2  C   -0.110539   0.010819  -0.002216  -0.018224  -0.000266   0.007718
     3  C    0.309973  -0.024373  -0.001052   0.002456   0.003571  -0.013515
     4  O   -0.081511   0.002687  -0.000036   0.000008  -0.000075   0.006271
     5  C    0.000990  -0.002050   0.000108   0.000388   0.000034  -0.000252
     6  H    0.002287  -0.000079  -0.000003  -0.000010   0.000001  -0.000123
     7  H    0.001139  -0.003812  -0.002234   0.038317   0.000309  -0.000308
     8  H   -0.000055   0.000036   0.000000  -0.000004  -0.000001   0.000006
     9  H    0.000017   0.000003  -0.000005  -0.000004   0.000003  -0.000025
    10  H    0.001668  -0.000032   0.000073   0.000002  -0.000075  -0.000034
    11  H    0.000089  -0.000027   0.000043   0.000008   0.000000  -0.000002
    12  H   -0.000082   0.000000  -0.000001  -0.000006  -0.000000   0.000004
    13  N    7.092455   0.243141  -0.054042  -0.002141  -0.044089   0.290426
    14  C    0.243141   5.098673   0.321147  -0.074777   0.327231  -0.026814
    15  C   -0.054042   0.321147   4.443457   0.510599  -0.034051   0.000032
    16  O   -0.002141  -0.074777   0.510599   8.138059   0.002853  -0.000115
    17  C   -0.044089   0.327231  -0.034051   0.002853   5.162648  -0.005681
    18  H    0.290426  -0.026814   0.000032  -0.000115  -0.005681   0.376884
    19  H   -0.043547   0.369997  -0.045879   0.002504  -0.031590   0.003719
    20  H   -0.006053  -0.027381  -0.008987  -0.000042   0.365440   0.004779
    21  H    0.000508  -0.022601   0.003493  -0.000065   0.369906   0.000349
    22  H    0.003758  -0.031366   0.001297   0.000031   0.376792   0.000017
    23  N    0.002178  -0.098413   0.273551  -0.096137   0.001059   0.000400
    24  C   -0.000186   0.005778  -0.020401   0.002543  -0.000204   0.000004
    25  C    0.000035  -0.000235  -0.001078  -0.000475   0.000008  -0.000001
    26  O    0.000000   0.000000   0.000006  -0.000002  -0.000000  -0.000000
    27  C   -0.000002  -0.000176   0.003258   0.000500  -0.000043   0.000000
    28  H    0.000225  -0.003080  -0.021439   0.002779   0.005468   0.000060
    29  H   -0.000018   0.000761  -0.001248   0.009181  -0.000060   0.000001
    30  H    0.000000   0.000003  -0.000057  -0.000001   0.000000  -0.000000
    31  H    0.000000  -0.000034   0.000257  -0.000001   0.000014  -0.000000
    32  H   -0.000000   0.000004  -0.000113  -0.000011  -0.000013   0.000000
    33  N   -0.000002  -0.000018   0.000723  -0.000273   0.000000  -0.000001
    34  C   -0.000011  -0.000002   0.000548  -0.002780  -0.000001   0.000002
    35  C   -0.000200  -0.000137  -0.000200   0.010738   0.000002   0.000002
    36  O    0.000006  -0.000004  -0.000341  -0.001651  -0.000000  -0.000000
    37  C   -0.000000   0.000001   0.000052   0.000247  -0.000000   0.000000
    38  O   -0.000941  -0.001314   0.006626  -0.003219   0.000004   0.000060
    39  H    0.000662   0.000017  -0.000002  -0.000347  -0.000004   0.000063
    40  H    0.000000  -0.000002  -0.000045   0.000002   0.000000  -0.000000
    41  H   -0.000002   0.000091  -0.000640   0.008830  -0.000001   0.000000
    42  H    0.000000  -0.000000  -0.000000  -0.000001   0.000000  -0.000000
    43  H    0.000000   0.000000   0.000001   0.000002  -0.000000  -0.000000
    44  H   -0.000000  -0.000000  -0.000000  -0.000001   0.000000   0.000000
              19         20         21         22         23         24
     1  N    0.000043   0.000000   0.000000  -0.000000   0.000001  -0.000000
     2  C    0.000915  -0.000003  -0.000007   0.000015  -0.000233   0.000006
     3  C   -0.006464  -0.000174  -0.000087  -0.000067  -0.000006  -0.000007
     4  O    0.000035  -0.000003  -0.000006   0.000000  -0.000001   0.000000
     5  C    0.001046  -0.000002   0.000014  -0.000002  -0.000001  -0.000000
     6  H   -0.000008   0.000000   0.000000  -0.000000  -0.000000   0.000000
     7  H    0.001495  -0.000001  -0.000013   0.000000   0.000704  -0.000017
     8  H   -0.000099  -0.000000   0.000000   0.000000  -0.000000   0.000000
     9  H   -0.000023   0.000000  -0.000001  -0.000000   0.000000  -0.000000
    10  H    0.003373   0.000000   0.000053  -0.000001  -0.000000   0.000000
    11  H    0.000004   0.000000  -0.000000  -0.000000   0.000001  -0.000000
    12  H   -0.000002  -0.000000   0.000000   0.000000   0.000000   0.000000
    13  N   -0.043547  -0.006053   0.000508   0.003758   0.002178  -0.000186
    14  C    0.369997  -0.027381  -0.022601  -0.031366  -0.098413   0.005778
    15  C   -0.045879  -0.008987   0.003493   0.001297   0.273551  -0.020401
    16  O    0.002504  -0.000042  -0.000065   0.000031  -0.096137   0.002543
    17  C   -0.031590   0.365440   0.369906   0.376792   0.001059  -0.000204
    18  H    0.003719   0.004779   0.000349   0.000017   0.000400   0.000004
    19  H    0.551170   0.004914  -0.006050  -0.002874   0.004317  -0.000141
    20  H    0.004914   0.552259  -0.027375  -0.028257   0.001005   0.000044
    21  H   -0.006050  -0.027375   0.499388  -0.019453   0.000084   0.000002
    22  H   -0.002874  -0.028257  -0.019453   0.502552   0.000268  -0.000098
    23  N    0.004317   0.001005   0.000084   0.000268   7.123545   0.239924
    24  C   -0.000141   0.000044   0.000002  -0.000098   0.239924   5.115522
    25  C   -0.000001  -0.000008   0.000000   0.000003  -0.050366   0.299186
    26  O    0.000000  -0.000000  -0.000000  -0.000000  -0.001575  -0.084787
    27  C    0.000007   0.000001  -0.000000   0.000027  -0.049262   0.360394
    28  H    0.000218   0.006402  -0.000162  -0.000057   0.296917  -0.026776
    29  H    0.000000  -0.000000   0.000000  -0.000006  -0.048428   0.363553
    30  H   -0.000000  -0.000000   0.000000  -0.000000   0.003902  -0.027521
    31  H   -0.000001  -0.000003   0.000000   0.000061  -0.000560  -0.032446
    32  H    0.000000  -0.000007  -0.000000  -0.000000  -0.004978  -0.028171
    33  N    0.000000  -0.000000   0.000000  -0.000000   0.002738  -0.112746
    34  C   -0.000001   0.000000   0.000000  -0.000000  -0.000305   0.001723
    35  C   -0.000017  -0.000000   0.000000   0.000000  -0.000247  -0.000425
    36  O    0.000001   0.000000  -0.000000  -0.000000   0.000020  -0.000005
    37  C   -0.000000   0.000000   0.000000  -0.000000  -0.000020  -0.000157
    38  O   -0.000002  -0.000001   0.000000   0.000000  -0.000748  -0.000285
    39  H    0.000013   0.000004  -0.000000  -0.000000   0.002682  -0.000596
    40  H   -0.000000  -0.000000   0.000000   0.000000  -0.000217   0.007513
    41  H   -0.000001   0.000000   0.000000  -0.000000  -0.001091   0.003003
    42  H    0.000000  -0.000000  -0.000000   0.000000   0.000000  -0.000012
    43  H   -0.000000   0.000000  -0.000000  -0.000000  -0.000000   0.000012
    44  H    0.000000  -0.000000  -0.000000  -0.000000   0.000000   0.000028
              25         26         27         28         29         30
     1  N    0.000000   0.000000   0.000000  -0.000000   0.000000  -0.000000
     2  C   -0.000000  -0.000000   0.000000   0.000007   0.000004   0.000000
     3  C    0.000003   0.000000  -0.000000  -0.000020  -0.000002   0.000000
     4  O   -0.000000  -0.000000   0.000000  -0.000000   0.000000   0.000000
     5  C    0.000000   0.000000  -0.000000  -0.000000  -0.000000   0.000000
     6  H   -0.000000  -0.000000   0.000000   0.000000   0.000000  -0.000000
     7  H    0.000004   0.000000  -0.000000  -0.000023  -0.000021  -0.000000
     8  H   -0.000000   0.000000   0.000000  -0.000000   0.000000   0.000000
     9  H   -0.000000  -0.000000   0.000000   0.000000   0.000000  -0.000000
    10  H   -0.000000   0.000000   0.000000  -0.000000  -0.000000  -0.000000
    11  H   -0.000001  -0.000000  -0.000000   0.000000  -0.000000  -0.000000
    12  H   -0.000000  -0.000000   0.000000  -0.000000   0.000000  -0.000000
    13  N    0.000035   0.000000  -0.000002   0.000225  -0.000018   0.000000
    14  C   -0.000235   0.000000  -0.000176  -0.003080   0.000761   0.000003
    15  C   -0.001078   0.000006   0.003258  -0.021439  -0.001248  -0.000057
    16  O   -0.000475  -0.000002   0.000500   0.002779   0.009181  -0.000001
    17  C    0.000008  -0.000000  -0.000043   0.005468  -0.000060   0.000000
    18  H   -0.000001  -0.000000   0.000000   0.000060   0.000001  -0.000000
    19  H   -0.000001   0.000000   0.000007   0.000218   0.000000  -0.000000
    20  H   -0.000008  -0.000000   0.000001   0.006402  -0.000000  -0.000000
    21  H    0.000000  -0.000000  -0.000000  -0.000162   0.000000   0.000000
    22  H    0.000003  -0.000000   0.000027  -0.000057  -0.000006  -0.000000
    23  N   -0.050366  -0.001575  -0.049262   0.296917  -0.048428   0.003902
    24  C    0.299186  -0.084787   0.360394  -0.026776   0.363553  -0.027521
    25  C    4.407197   0.592880  -0.038455  -0.000104  -0.032251  -0.000991
    26  O    0.592880   8.012688  -0.000287   0.001011   0.002701   0.000072
    27  C   -0.038455  -0.000287   5.096885  -0.000816  -0.032733   0.376441
    28  H   -0.000104   0.001011  -0.000816   0.375498   0.004653  -0.000129
    29  H   -0.032251   0.002701  -0.032733   0.004653   0.532722  -0.002583
    30  H   -0.000991   0.000072   0.376441  -0.000129  -0.002583   0.507286
    31  H    0.005135   0.000484   0.366609   0.000115  -0.003388  -0.023273
    32  H   -0.008035   0.009074   0.372028   0.004588   0.004336  -0.022779
    33  N    0.250449  -0.093500   0.004006  -0.000121   0.000694   0.000004
    34  C   -0.015068   0.002566   0.000019   0.000001  -0.000213   0.000001
    35  C   -0.000221  -0.000055  -0.000004  -0.000002  -0.000216   0.000000
    36  O    0.000006   0.000000  -0.000000   0.000000  -0.000016  -0.000000
    37  C    0.001324  -0.000084   0.000004   0.000000   0.000091   0.000001
    38  O    0.001426   0.000015  -0.000002  -0.000001   0.000058   0.000000
    39  H    0.001010  -0.000589   0.000034   0.000028   0.000048  -0.000001
    40  H   -0.009342   0.010575  -0.000170  -0.000003  -0.000337  -0.000001
    41  H   -0.002260   0.000067   0.000031  -0.000003   0.005918   0.000001
    42  H   -0.000051   0.000002   0.000000  -0.000000  -0.000001  -0.000000
    43  H   -0.000059   0.000000  -0.000000  -0.000000  -0.000002  -0.000000
    44  H    0.000165  -0.000025  -0.000001   0.000000   0.000025   0.000000
              31         32         33         34         35         36
     1  N   -0.000000  -0.000000   0.000003  -0.000196   0.002093  -0.048065
     2  C    0.000000  -0.000000  -0.000001   0.000037   0.000837   0.001141
     3  C   -0.000000   0.000000  -0.000002   0.000015  -0.000062  -0.000377
     4  O   -0.000000  -0.000000   0.000000  -0.000004   0.000055  -0.000003
     5  C    0.000000   0.000000   0.000000  -0.000000   0.000035   0.000013
     6  H   -0.000000   0.000000  -0.000000   0.000004  -0.000080   0.000417
     7  H   -0.000000   0.000000  -0.000000  -0.000072   0.000700   0.002584
     8  H   -0.000000   0.000000  -0.000000   0.000000   0.000001   0.000001
     9  H    0.000000  -0.000000  -0.000000  -0.000000  -0.000000  -0.000000
    10  H    0.000000   0.000000  -0.000000   0.000000   0.000001   0.000001
    11  H    0.000000   0.000000  -0.000056   0.001847  -0.004023   0.101132
    12  H   -0.000000   0.000000  -0.000000   0.000003   0.000057   0.000645
    13  N    0.000000  -0.000000  -0.000002  -0.000011  -0.000200   0.000006
    14  C   -0.000034   0.000004  -0.000018  -0.000002  -0.000137  -0.000004
    15  C    0.000257  -0.000113   0.000723   0.000548  -0.000200  -0.000341
    16  O   -0.000001  -0.000011  -0.000273  -0.002780   0.010738  -0.001651
    17  C    0.000014  -0.000013   0.000000  -0.000001   0.000002  -0.000000
    18  H   -0.000000   0.000000  -0.000001   0.000002   0.000002  -0.000000
    19  H   -0.000001   0.000000   0.000000  -0.000001  -0.000017   0.000001
    20  H   -0.000003  -0.000007  -0.000000   0.000000  -0.000000   0.000000
    21  H    0.000000  -0.000000   0.000000   0.000000   0.000000  -0.000000
    22  H    0.000061  -0.000000  -0.000000  -0.000000   0.000000  -0.000000
    23  N   -0.000560  -0.004978   0.002738  -0.000305  -0.000247   0.000020
    24  C   -0.032446  -0.028171  -0.112746   0.001723  -0.000425  -0.000005
    25  C    0.005135  -0.008035   0.250449  -0.015068  -0.000221   0.000006
    26  O    0.000484   0.009074  -0.093500   0.002566  -0.000055   0.000000
    27  C    0.366609   0.372028   0.004006   0.000019  -0.000004  -0.000000
    28  H    0.000115   0.004588  -0.000121   0.000001  -0.000002   0.000000
    29  H   -0.003388   0.004336   0.000694  -0.000213  -0.000216  -0.000016
    30  H   -0.023273  -0.022779   0.000004   0.000001   0.000000  -0.000000
    31  H    0.545878  -0.027963  -0.000069  -0.000006  -0.000000  -0.000000
    32  H   -0.027963   0.515701   0.000242  -0.000009   0.000000  -0.000000
    33  N   -0.000069   0.000242   7.269295   0.179563  -0.047480   0.001951
    34  C   -0.000006  -0.000009   0.179563   5.146139   0.314095  -0.066985
    35  C   -0.000000   0.000000  -0.047480   0.314095   4.385010   0.469823
    36  O   -0.000000  -0.000000   0.001951  -0.066985   0.469823   8.114954
    37  C    0.000000   0.000000  -0.045657   0.345636  -0.040708  -0.000792
    38  O    0.000000   0.000000  -0.020214  -0.082091   0.305978  -0.072259
    39  H    0.000000  -0.000002   0.050540  -0.009326  -0.025963   0.004265
    40  H    0.000002  -0.000013   0.277473  -0.025849  -0.000190  -0.000026
    41  H    0.000014  -0.000001  -0.039962   0.368964  -0.039489  -0.000028
    42  H    0.000000  -0.000000  -0.005051  -0.032736  -0.005642   0.000116
    43  H   -0.000000  -0.000000   0.003875  -0.029697  -0.001886   0.006144
    44  H   -0.000000   0.000000   0.000383  -0.030235   0.004269   0.000093
              37         38         39         40         41         42
     1  N    0.000001   0.001139  -0.000005  -0.000000   0.000008   0.000000
     2  C    0.000002   0.000772   0.000037  -0.000000   0.000000  -0.000000
     3  C   -0.000000   0.006708  -0.000121   0.000000  -0.000003   0.000000
     4  O    0.000000  -0.001382   0.000047  -0.000000   0.000000  -0.000000
     5  C    0.000000   0.000037  -0.000000  -0.000000  -0.000000  -0.000000
     6  H   -0.000000   0.000230  -0.000007  -0.000000  -0.000000  -0.000000
     7  H   -0.000002  -0.000842  -0.000013   0.000000  -0.000024   0.000000
     8  H    0.000000  -0.000000  -0.000000  -0.000000  -0.000000  -0.000000
     9  H    0.000000  -0.000000   0.000000   0.000000   0.000000  -0.000000
    10  H   -0.000000   0.000000  -0.000000   0.000000  -0.000000  -0.000000
    11  H   -0.000031  -0.002352   0.000015   0.000000  -0.000088  -0.000008
    12  H   -0.000000   0.000027   0.000000  -0.000000  -0.000000  -0.000000
    13  N   -0.000000  -0.000941   0.000662   0.000000  -0.000002   0.000000
    14  C    0.000001  -0.001314   0.000017  -0.000002   0.000091  -0.000000
    15  C    0.000052   0.006626  -0.000002  -0.000045  -0.000640  -0.000000
    16  O    0.000247  -0.003219  -0.000347   0.000002   0.008830  -0.000001
    17  C   -0.000000   0.000004  -0.000004   0.000000  -0.000001   0.000000
    18  H    0.000000   0.000060   0.000063  -0.000000   0.000000  -0.000000
    19  H   -0.000000  -0.000002   0.000013  -0.000000  -0.000001   0.000000
    20  H    0.000000  -0.000001   0.000004  -0.000000   0.000000  -0.000000
    21  H    0.000000   0.000000  -0.000000   0.000000   0.000000  -0.000000
    22  H   -0.000000   0.000000  -0.000000   0.000000  -0.000000   0.000000
    23  N   -0.000020  -0.000748   0.002682  -0.000217  -0.001091   0.000000
    24  C   -0.000157  -0.000285  -0.000596   0.007513   0.003003  -0.000012
    25  C    0.001324   0.001426   0.001010  -0.009342  -0.002260  -0.000051
    26  O   -0.000084   0.000015  -0.000589   0.010575   0.000067   0.000002
    27  C    0.000004  -0.000002   0.000034  -0.000170   0.000031   0.000000
    28  H    0.000000  -0.000001   0.000028  -0.000003  -0.000003  -0.000000
    29  H    0.000091   0.000058   0.000048  -0.000337   0.005918  -0.000001
    30  H    0.000001   0.000000  -0.000001  -0.000001   0.000001  -0.000000
    31  H    0.000000   0.000000   0.000000   0.000002   0.000014   0.000000
    32  H    0.000000   0.000000  -0.000002  -0.000013  -0.000001  -0.000000
    33  N   -0.045657  -0.020214   0.050540   0.277473  -0.039962  -0.005051
    34  C    0.345636  -0.082091  -0.009326  -0.025849   0.368964  -0.032736
    35  C   -0.040708   0.305978  -0.025963  -0.000190  -0.039489  -0.005642
    36  O   -0.000792  -0.072259   0.004265  -0.000026  -0.000028   0.000116
    37  C    5.107786   0.000833   0.000892  -0.003321  -0.022051   0.376204
    38  O    0.000833   8.222950   0.214774   0.000349   0.001102   0.000407
    39  H    0.000892   0.214774   0.317525  -0.000328   0.001091   0.000080
    40  H   -0.003321   0.000349  -0.000328   0.376417   0.003555   0.004442
    41  H   -0.022051   0.001102   0.001091   0.003555   0.489412   0.004197
    42  H    0.376204   0.000407   0.000080   0.004442   0.004197   0.539021
    43  H    0.372012   0.000192  -0.000096   0.000010  -0.002134  -0.023803
    44  H    0.375066  -0.000058  -0.000036   0.000266  -0.005263  -0.028660
              43         44
     1  N    0.000002  -0.000000
     2  C   -0.000000  -0.000000
     3  C    0.000000   0.000000
     4  O    0.000000  -0.000000
     5  C   -0.000000  -0.000000
     6  H   -0.000000  -0.000000
     7  H   -0.000000  -0.000000
     8  H   -0.000000   0.000000
     9  H    0.000000   0.000000
    10  H   -0.000000   0.000000
    11  H   -0.000027   0.000001
    12  H   -0.000000   0.000000
    13  N    0.000000  -0.000000
    14  C    0.000000  -0.000000
    15  C    0.000001  -0.000000
    16  O    0.000002  -0.000001
    17  C   -0.000000   0.000000
    18  H   -0.000000   0.000000
    19  H   -0.000000   0.000000
    20  H    0.000000  -0.000000
    21  H   -0.000000  -0.000000
    22  H   -0.000000  -0.000000
    23  N   -0.000000   0.000000
    24  C    0.000012   0.000028
    25  C   -0.000059   0.000165
    26  O    0.000000  -0.000025
    27  C   -0.000000  -0.000001
    28  H   -0.000000   0.000000
    29  H   -0.000002   0.000025
    30  H   -0.000000   0.000000
    31  H   -0.000000  -0.000000
    32  H   -0.000000   0.000000
    33  N    0.003875   0.000383
    34  C   -0.029697  -0.030235
    35  C   -0.001886   0.004269
    36  O    0.006144   0.000093
    37  C    0.372012   0.375066
    38  O    0.000192  -0.000058
    39  H   -0.000096  -0.000036
    40  H    0.000010   0.000266
    41  H   -0.002134  -0.005263
    42  H   -0.023803  -0.028660
    43  H    0.490157  -0.020693
    44  H   -0.020693   0.514459
 Mulliken charges:
               1
     1  N   -0.772257
     2  C   -0.122674
     3  C    0.655413
     4  O   -0.508693
     5  C   -0.478772
     6  H    0.415169
     7  H    0.245361
     8  H    0.190731
     9  H    0.196953
    10  H    0.198535
    11  H    0.447165
    12  H    0.400107
    13  N   -0.607563
    14  C   -0.063607
    15  C    0.628718
    16  O   -0.529888
    17  C   -0.499189
    18  H    0.356158
    19  H    0.192927
    20  H    0.163450
    21  H    0.202021
    22  H    0.197358
    23  N   -0.600709
    24  C   -0.064253
    25  C    0.600171
    26  O   -0.451237
    27  C   -0.458292
    28  H    0.354766
    29  H    0.196778
    30  H    0.189623
    31  H    0.169173
    32  H    0.186123
    33  N   -0.676785
    34  C   -0.065578
    35  C    0.673550
    36  O   -0.512760
    37  C   -0.467328
    38  O   -0.577978
    39  H    0.443606
    40  H    0.359239
    41  H    0.226758
    42  H    0.171499
    43  H    0.205991
    44  H    0.190219
 Sum of Mulliken charges =   1.00000
 Mulliken charges with hydrogens summed into heavy atoms:
               1
     1  N    0.490184
     2  C    0.122687
     3  C    0.655413
     4  O   -0.508693
     5  C    0.107448
    13  N   -0.251405
    14  C    0.129320
    15  C    0.628718
    16  O   -0.529888
    17  C    0.063641
    23  N   -0.245943
    24  C    0.132524
    25  C    0.600171
    26  O   -0.451237
    27  C    0.086627
    33  N   -0.317546
    34  C    0.161180
    35  C    0.673550
    36  O   -0.512760
    37  C    0.100381
    38  O   -0.134372
 Electronic spatial extent (au):  <R**2>=          23428.2122
 Charge=              1.0000 electrons
 Dipole moment (field-independent basis, Debye):
    X=              5.4571    Y=            -22.4495    Z=             -2.0249  Tot=             23.1918
 Quadrupole moment (field-independent basis, Debye-Ang):
   XX=            -89.2850   YY=             15.4984   ZZ=           -114.0779
   XY=            -22.8601   XZ=            -18.8581   YZ=             13.4102
 Traceless Quadrupole moment (field-independent basis, Debye-Ang):
   XX=            -26.6635   YY=             78.1199   ZZ=            -51.4564
   XY=            -22.8601   XZ=            -18.8581   YZ=             13.4102
 Octapole moment (field-independent basis, Debye-Ang**2):
  XXX=             20.8845  YYY=            957.6560  ZZZ=            188.5551  XYY=             94.0263
  XXY=            587.3402  XXZ=             10.3210  XZZ=            -28.8790  YZZ=            595.2087
  YYZ=            -32.2719  XYZ=             90.7574
 Hexadecapole moment (field-independent basis, Debye-Ang**3):
 XXXX=          -2187.7729 YYYY=         -16732.1983 ZZZZ=          -1526.2085 XXXY=           -369.6042
 XXXZ=            301.3336 YYYX=           -856.6200 YYYZ=           -161.6873 ZZZX=            543.5372
 ZZZY=           -852.2356 XXYY=          -4718.6154 XXZZ=           -546.7642 YYZZ=          -3944.7275
 XXYZ=           -167.8679 YYXZ=           -280.9836 ZZXY=             46.1397
 N-N= 1.961659592671D+03 E-N=-6.388774301661D+03  KE= 1.056342230622D+03
 Unable to Open any file for archive entry.
 1\1\GINC-QML-003\SP\RB3LYP\6-31G(d)\C12H23N4O5(1+)\KENGMITH\04-Jun-202
 2\0\\# B3LYP/6-31G* empiricaldispersion=gd3 guess=read geom=check nosy
 mm integral(ultrafinegrid)\\Candidate Structure: Conf:84 Charge calc i
 n gas phase\\1,1\N,0,3.3578901109,-4.1006792152,-1.9954006998\C,0,2.49
 10892892,-3.3736061001,-0.9978607672\C,0,1.1734772292,-3.1348740473,-1
 .7659839641\O,0,1.2248014991,-3.0129925092,-2.9870231695\C,0,3.1261362
 6,-2.0387953647,-0.6024692977\H,0,3.0352781529,-3.7869153603,-2.930884
 3777\H,0,2.3544852217,-4.0375483991,-0.1439627394\H,0,4.0888998518,-2.
 1951252623,-0.1044386309\H,0,3.2686951464,-1.3988629438,-1.479499522\H
 ,0,2.4746234882,-1.5081159927,0.0977311722\H,0,3.20384364,-5.142169976
 2,-1.9039199428\H,0,4.3528078717,-3.896721784,-1.8741250529\N,0,0.0229
 084297,-3.0056632806,-1.062837334\C,0,-0.2228598646,-3.2318262122,0.36
 85292605\C,0,-0.1846090684,-4.7488793138,0.6788824896\O,0,0.9036199685
 ,-5.3020102764,0.8562522179\C,0,-1.498537083,-2.4972391122,0.783206235
 2\H,0,-0.7843845572,-2.8185092685,-1.6488952932\H,0,0.6168228474,-2.82
 14449131,0.9365586004\H,0,-2.3645288879,-2.8076646286,0.1844053996\H,0
 ,-1.3729309997,-1.4202090069,0.6424363786\H,0,-1.7234148512,-2.6829836
 874,1.8370422337\N,0,-1.3569826948,-5.4242409147,0.6987947036\C,0,-1.4
 561061419,-6.8427779393,1.0788224378\C,0,-1.7061978822,-7.677851231,-0
 .1961959565\O,0,-2.8306850584,-7.9978343153,-0.5283240389\C,0,-2.58858
 81374,-7.0513363177,2.0815521552\H,0,-2.2305559441,-4.9254854027,0.590
 0410424\H,0,-0.4986778901,-7.0980543212,1.5356564707\H,0,-2.6357078017
 ,-8.1013805131,2.3826720906\H,0,-2.4178334623,-6.4382474386,2.97090952
 87\H,0,-3.5542009982,-6.7979001617,1.6351001173\N,0,-0.6245508649,-7.9
 765118254,-1.0283857617\C,0,0.8088967044,-8.0099537039,-0.7124602974\C
 ,0,1.5346320833,-6.8633702284,-1.4271050396\O,0,2.7428000748,-6.698305
 3032,-1.3590693624\C,0,1.4433657213,-9.3599685773,-1.0691191147\O,0,0.
 7777195641,-6.0281744701,-2.1385900846\H,0,-0.1520145833,-6.3411118011
 ,-2.0526222955\H,0,-0.9175488486,-8.6118157433,-1.7677871615\H,0,0.961
 0651016,-7.8038767197,0.3484714019\H,0,1.3002900188,-9.5947757939,-2.1
 300057543\H,0,2.5165870896,-9.3276827903,-0.8684439511\H,0,0.990895045
 5,-10.1544439239,-0.4700354068\\Version=ES64L-G16RevC.01\HF=-1066.1700
 351\RMSD=6.530e-09\Dipole=1.4470116,1.4227372,0.2219929\Quadrupole=-19
 .8236728,58.0802402,-38.2565674,-16.995912,-14.0205697,9.9701834\PG=C0
 1 [X(C12H23N4O5)]\\@
 The archive entry for this job was punched.


 YOU CANNOT THROW TO THE GROUND THE LETTERS OF
 THE GREEK ALPHABET AND PICK UP THE ILIAD.
        - RUFUS CHOATE, 1799-1859
 Job cpu time:       0 days  0 hours  1 minutes  5.4 seconds.
 Elapsed time:       0 days  0 hours  0 minutes 17.0 seconds.
 File lengths (MBytes):  RWF=    184 Int=      0 D2E=      0 Chk=     24 Scr=     16
 Normal termination of Gaussian 16 at Sat Jun  4 17:08:24 2022.
