 Entering Gaussian System, Link 0=/opt/software/Gaussian/g16-AVX-C.01/g16/g16
 Input=charge-conf-472.com
 Output=charge-conf-472.log
 Initial command:
 /opt/software/Gaussian/g16-AVX-C.01/g16/l1.exe "/mnt/gs18/scratch/users/kengmith/Gau-13412.inp" -scrdir="/mnt/gs18/scratch/users/kengmith/"
 Entering Link 1 = /opt/software/Gaussian/g16-AVX-C.01/g16/l1.exe PID=     13426.
  
 Copyright (c) 1988-2019, Gaussian, Inc.  All Rights Reserved.
  
 This is part of the Gaussian(R) 16 program.  It is based on
 the Gaussian(R) 09 system (copyright 2009, Gaussian, Inc.),
 the Gaussian(R) 03 system (copyright 2003, Gaussian, Inc.),
 the Gaussian(R) 98 system (copyright 1998, Gaussian, Inc.),
 the Gaussian(R) 94 system (copyright 1995, Gaussian, Inc.),
 the Gaussian 92(TM) system (copyright 1992, Gaussian, Inc.),
 the Gaussian 90(TM) system (copyright 1990, Gaussian, Inc.),
 the Gaussian 88(TM) system (copyright 1988, Gaussian, Inc.),
 the Gaussian 86(TM) system (copyright 1986, Carnegie Mellon
 University), and the Gaussian 82(TM) system (copyright 1983,
 Carnegie Mellon University). Gaussian is a federally registered
 trademark of Gaussian, Inc.
  
 This software contains proprietary and confidential information,
 including trade secrets, belonging to Gaussian, Inc.
  
 This software is provided under written license and may be
 used, copied, transmitted, or stored only in accord with that
 written license.
  
 The following legend is applicable only to US Government
 contracts under FAR:
  
                    RESTRICTED RIGHTS LEGEND
  
 Use, reproduction and disclosure by the US Government is
 subject to restrictions as set forth in subparagraphs (a)
 and (c) of the Commercial Computer Software - Restricted
 Rights clause in FAR 52.227-19.
  
 Gaussian, Inc.
 340 Quinnipiac St., Bldg. 40, Wallingford CT 06492
  
  
 ---------------------------------------------------------------
 Warning -- This program may not be used in any manner that
 competes with the business of Gaussian, Inc. or will provide
 assistance to any competitor of Gaussian, Inc.  The licensee
 of this program is prohibited from giving any competitor of
 Gaussian, Inc. access to this program.  By using this program,
 the user acknowledges that Gaussian, Inc. is engaged in the
 business of creating and licensing software in the field of
 computational chemistry and represents and warrants to the
 licensee that it is not a competitor of Gaussian, Inc. and that
 it will not use this program in any manner prohibited above.
 ---------------------------------------------------------------
  

 Cite this work as:
 Gaussian 16, Revision C.01,
 M. J. Frisch, G. W. Trucks, H. B. Schlegel, G. E. Scuseria, 
 M. A. Robb, J. R. Cheeseman, G. Scalmani, V. Barone, 
 G. A. Petersson, H. Nakatsuji, X. Li, M. Caricato, A. V. Marenich, 
 J. Bloino, B. G. Janesko, R. Gomperts, B. Mennucci, H. P. Hratchian, 
 J. V. Ortiz, A. F. Izmaylov, J. L. Sonnenberg, D. Williams-Young, 
 F. Ding, F. Lipparini, F. Egidi, J. Goings, B. Peng, A. Petrone, 
 T. Henderson, D. Ranasinghe, V. G. Zakrzewski, J. Gao, N. Rega, 
 G. Zheng, W. Liang, M. Hada, M. Ehara, K. Toyota, R. Fukuda, 
 J. Hasegawa, M. Ishida, T. Nakajima, Y. Honda, O. Kitao, H. Nakai, 
 T. Vreven, K. Throssell, J. A. Montgomery, Jr., J. E. Peralta, 
 F. Ogliaro, M. J. Bearpark, J. J. Heyd, E. N. Brothers, K. N. Kudin, 
 V. N. Staroverov, T. A. Keith, R. Kobayashi, J. Normand, 
 K. Raghavachari, A. P. Rendell, J. C. Burant, S. S. Iyengar, 
 J. Tomasi, M. Cossi, J. M. Millam, M. Klene, C. Adamo, R. Cammi, 
 J. W. Ochterski, R. L. Martin, K. Morokuma, O. Farkas, 
 J. B. Foresman, and D. J. Fox, Gaussian, Inc., Wallingford CT, 2019.
 
 ******************************************
 Gaussian 16:  ES64L-G16RevC.01  3-Jul-2019
                 4-Jun-2022 
 ******************************************
 %mem=8gb
 %nproc=4
 Will use up to    4 processors via shared memory.
 %chk=conf-472.chk
 ----------------------------------------------------------------------
 # B3LYP/6-31G* empiricaldispersion=gd3 guess=read geom=check nosymm in
 tegral(ultrafinegrid)
 ----------------------------------------------------------------------
 1/29=2,38=1,172=1/1;
 2/12=2,15=1,40=1/2;
 3/5=1,6=6,7=1,11=2,14=-4,25=1,30=1,74=-5,75=-5,116=-2,124=31/1,2,3;
 4/5=1/1;
 5/5=2,38=6/2;
 6/7=2,8=2,9=2,10=2,28=1/1;
 99/5=1,9=1/99;
 ------------------------------------------------------
 Candidate Structure: Conf:472 Charge calc in gas phase
 ------------------------------------------------------
 Structure from the checkpoint file:  "conf-472.chk"
 Charge =  1 Multiplicity = 1
 Redundant internal coordinates found in file.  (old form).
 N,0,-1.1296580887,-5.8451146175,-3.7795163902
 C,0,-1.896441194,-5.5947101196,-2.5049602428
 C,0,-1.6707727788,-6.8830668093,-1.6849319158
 O,0,-1.4925025854,-7.935973481,-2.2915977319
 C,0,-3.386049186,-5.4057412964,-2.7994266878
 H,0,-1.1287524776,-6.8749942824,-3.9102004111
 H,0,-1.4533328332,-4.7204211683,-2.0275559795
 H,0,-3.9351844254,-5.2548827799,-1.8655940323
 H,0,-3.5526818168,-4.5238874115,-3.427079415
 H,0,-3.8015869361,-6.289690937,-3.2943914278
 H,0,-0.1350764837,-5.5063975554,-3.6658283652
 H,0,-1.5509554707,-5.3832396235,-4.5890510861
 N,0,-1.7408683166,-6.8169081328,-0.3337820246
 C,0,-1.8334171511,-5.6358105097,0.5362295004
 C,0,-0.479336063,-4.8838397241,0.5537863399
 O,0,-0.2142110394,-4.0951933115,-0.3568812294
 C,0,-2.3813809245,-6.0565744822,1.9006284007
 H,0,-1.6133586236,-7.7172206002,0.1172267477
 H,0,-2.5293331024,-4.9228701987,0.0850898891
 H,0,-3.3925348329,-6.4578286198,1.7903800077
 H,0,-2.4227593077,-5.1998296705,2.5787912876
 H,0,-1.7673194291,-6.8378723604,2.3668459076
 N,0,0.3881764794,-5.1588208363,1.5552481977
 C,0,1.658772937,-4.4374975563,1.7333533428
 C,0,2.8166973108,-5.3659805832,1.3055868612
 O,0,3.4267248189,-6.0282007155,2.1219460432
 C,0,1.8316864566,-4.0073930102,3.1881983764
 H,0,0.1151055626,-5.7807443197,2.3051515057
 H,0,1.5982428504,-3.5600966807,1.0875328331
 H,0,0.9957035426,-3.3708586677,3.491444017
 H,0,1.893191321,-4.8787388307,3.8461782072
 H,0,2.7619665846,-3.4451387737,3.3061900473
 N,0,3.0902142931,-5.5174591717,-0.0560687849
 C,0,2.7599212602,-4.6246550323,-1.1739242823
 C,0,1.7071227012,-5.2772081034,-2.0780686117
 O,0,1.2949324676,-4.7536149343,-3.1015320122
 C,0,4.0030403675,-4.2334225132,-1.9825317482
 O,0,1.2412851547,-6.4650581913,-1.6923373858
 H,0,1.7005482041,-6.6932702659,-0.8516363369
 H,0,3.9342559136,-6.0721352817,-0.1830680125
 H,0,2.270104154,-3.7244811131,-0.798610706
 H,0,4.5184756156,-5.1207892419,-2.3672303254
 H,0,3.7099505382,-3.6135283845,-2.8328010123
 H,0,4.6963964228,-3.671118141,-1.3517429448
 Recover connectivity data from disk.
                           ----------------------------
                           !    Current Parameters    !
                           ! (Angstroms and Degrees)  !
 --------------------------                            --------------------------
 ! Name  Definition              Value                                          !
 --------------------------------------------------------------------------------
 ! R1    R(1,2)                  1.5084                                         !
 ! R2    R(1,6)                  1.0381                                         !
 ! R3    R(1,11)                 1.0568                                         !
 ! R4    R(1,12)                 1.0228                                         !
 ! R5    R(2,3)                  1.5438                                         !
 ! R6    R(2,5)                  1.5301                                         !
 ! R7    R(2,7)                  1.0902                                         !
 ! R8    R(3,4)                  1.2282                                         !
 ! R9    R(3,13)                 1.3546                                         !
 ! R10   R(5,8)                  1.0938                                         !
 ! R11   R(5,9)                  1.0952                                         !
 ! R12   R(5,10)                 1.095                                          !
 ! R13   R(13,14)                1.4699                                         !
 ! R14   R(13,18)                1.015                                          !
 ! R15   R(14,15)                1.549                                          !
 ! R16   R(14,17)                1.5293                                         !
 ! R17   R(14,19)                1.0937                                         !
 ! R18   R(15,16)                1.2335                                         !
 ! R19   R(15,23)                1.3532                                         !
 ! R20   R(17,20)                1.0934                                         !
 ! R21   R(17,21)                1.0934                                         !
 ! R22   R(17,22)                1.0977                                         !
 ! R23   R(23,24)                1.4719                                         !
 ! R24   R(23,28)                1.0118                                         !
 ! R25   R(24,25)                1.5446                                         !
 ! R26   R(24,27)                1.5269                                         !
 ! R27   R(24,29)                1.0911                                         !
 ! R28   R(25,26)                1.2154                                         !
 ! R29   R(25,33)                1.3971                                         !
 ! R30   R(27,30)                1.0936                                         !
 ! R31   R(27,31)                1.0936                                         !
 ! R32   R(27,32)                1.0934                                         !
 ! R33   R(33,34)                1.4683                                         !
 ! R34   R(33,40)                1.0179                                         !
 ! R35   R(34,35)                1.5335                                         !
 ! R36   R(34,37)                1.5337                                         !
 ! R37   R(34,41)                1.0914                                         !
 ! R38   R(35,36)                1.2213                                         !
 ! R39   R(35,38)                1.333                                          !
 ! R40   R(37,42)                1.0959                                         !
 ! R41   R(37,43)                1.0923                                         !
 ! R42   R(37,44)                1.0931                                         !
 ! R43   R(38,39)                0.9848                                         !
 ! A1    A(2,1,6)              105.7538                                         !
 ! A2    A(2,1,11)             109.5307                                         !
 ! A3    A(2,1,12)             112.6086                                         !
 ! A4    A(6,1,11)             109.3101                                         !
 ! A5    A(6,1,12)             110.408                                          !
 ! A6    A(11,1,12)            109.1508                                         !
 ! A7    A(1,2,3)              103.6501                                         !
 ! A8    A(1,2,5)              110.6572                                         !
 ! A9    A(1,2,7)              107.2492                                         !
 ! A10   A(3,2,5)              110.3402                                         !
 ! A11   A(3,2,7)              112.1623                                         !
 ! A12   A(5,2,7)              112.3891                                         !
 ! A13   A(2,3,4)              118.3129                                         !
 ! A14   A(2,3,13)             118.7843                                         !
 ! A15   A(4,3,13)             122.8255                                         !
 ! A16   A(2,5,8)              109.9673                                         !
 ! A17   A(2,5,9)              110.9687                                         !
 ! A18   A(2,5,10)             110.8993                                         !
 ! A19   A(8,5,9)              107.5692                                         !
 ! A20   A(8,5,10)             107.8629                                         !
 ! A21   A(9,5,10)             109.4647                                         !
 ! A22   A(3,13,14)            129.2649                                         !
 ! A23   A(3,13,18)            113.1658                                         !
 ! A24   A(14,13,18)           117.2357                                         !
 ! A25   A(13,14,15)           109.9842                                         !
 ! A26   A(13,14,17)           109.2413                                         !
 ! A27   A(13,14,19)           108.646                                          !
 ! A28   A(15,14,17)           115.8918                                         !
 ! A29   A(15,14,19)           104.1502                                         !
 ! A30   A(17,14,19)           108.6249                                         !
 ! A31   A(14,15,16)           119.3343                                         !
 ! A32   A(14,15,23)           118.045                                          !
 ! A33   A(16,15,23)           122.5819                                         !
 ! A34   A(14,17,20)           110.02                                           !
 ! A35   A(14,17,21)           110.5671                                         !
 ! A36   A(14,17,22)           111.9821                                         !
 ! A37   A(20,17,21)           108.3649                                         !
 ! A38   A(20,17,22)           107.3949                                         !
 ! A39   A(21,17,22)           108.3878                                         !
 ! A40   A(15,23,24)           122.9142                                         !
 ! A41   A(15,23,28)           120.0269                                         !
 ! A42   A(24,23,28)           116.3933                                         !
 ! A43   A(23,24,25)           108.6047                                         !
 ! A44   A(23,24,27)           110.5543                                         !
 ! A45   A(23,24,29)           105.936                                          !
 ! A46   A(25,24,27)           110.3832                                         !
 ! A47   A(25,24,29)           111.1636                                         !
 ! A48   A(27,24,29)           110.1036                                         !
 ! A49   A(24,25,26)           121.1834                                         !
 ! A50   A(24,25,33)           118.8065                                         !
 ! A51   A(26,25,33)           119.8228                                         !
 ! A52   A(24,27,30)           109.9735                                         !
 ! A53   A(24,27,31)           110.8057                                         !
 ! A54   A(24,27,32)           110.1223                                         !
 ! A55   A(30,27,31)           109.8715                                         !
 ! A56   A(30,27,32)           108.7331                                         !
 ! A57   A(31,27,32)           107.2743                                         !
 ! A58   A(25,33,34)           129.2027                                         !
 ! A59   A(25,33,40)           110.0603                                         !
 ! A60   A(34,33,40)           115.0163                                         !
 ! A61   A(33,34,35)           110.1554                                         !
 ! A62   A(33,34,37)           111.9736                                         !
 ! A63   A(33,34,41)           109.9184                                         !
 ! A64   A(35,34,37)           110.7415                                         !
 ! A65   A(35,34,41)           104.2181                                         !
 ! A66   A(37,34,41)           109.5532                                         !
 ! A67   A(34,35,36)           122.9127                                         !
 ! A68   A(34,35,38)           116.6482                                         !
 ! A69   A(36,35,38)           120.4382                                         !
 ! A70   A(34,37,42)           111.0836                                         !
 ! A71   A(34,37,43)           109.7358                                         !
 ! A72   A(34,37,44)           109.9444                                         !
 ! A73   A(42,37,43)           108.2075                                         !
 ! A74   A(42,37,44)           108.7088                                         !
 ! A75   A(43,37,44)           109.1151                                         !
 ! A76   A(35,38,39)           106.8922                                         !
 ! D1    D(6,1,2,3)             28.0697                                         !
 ! D2    D(6,1,2,5)            -90.2137                                         !
 ! D3    D(6,1,2,7)            146.878                                          !
 ! D4    D(11,1,2,3)           -89.6165                                         !
 ! D5    D(11,1,2,5)           152.1001                                         !
 ! D6    D(11,1,2,7)            29.1917                                         !
 ! D7    D(12,1,2,3)           148.7302                                         !
 ! D8    D(12,1,2,5)            30.4468                                         !
 ! D9    D(12,1,2,7)           -92.4615                                         !
 ! D10   D(1,2,3,4)            -29.387                                          !
 ! D11   D(1,2,3,13)           153.7167                                         !
 ! D12   D(5,2,3,4)             89.1156                                         !
 ! D13   D(5,2,3,13)           -87.7807                                         !
 ! D14   D(7,2,3,4)           -144.7536                                         !
 ! D15   D(7,2,3,13)            38.3501                                         !
 ! D16   D(1,2,5,8)            178.315                                          !
 ! D17   D(1,2,5,9)            -62.7918                                         !
 ! D18   D(1,2,5,10)            59.1008                                         !
 ! D19   D(3,2,5,8)             64.1892                                         !
 ! D20   D(3,2,5,9)           -176.9176                                         !
 ! D21   D(3,2,5,10)           -55.0251                                         !
 ! D22   D(7,2,5,8)            -61.814                                          !
 ! D23   D(7,2,5,9)             57.0792                                         !
 ! D24   D(7,2,5,10)           178.9718                                         !
 ! D25   D(2,3,13,14)           -9.0333                                         !
 ! D26   D(2,3,13,18)          177.876                                          !
 ! D27   D(4,3,13,14)          174.2185                                         !
 ! D28   D(4,3,13,18)            1.1277                                         !
 ! D29   D(3,13,14,15)         -71.861                                          !
 ! D30   D(3,13,14,17)         159.8905                                         !
 ! D31   D(3,13,14,19)          41.5452                                         !
 ! D32   D(18,13,14,15)        100.9936                                         !
 ! D33   D(18,13,14,17)        -27.255                                          !
 ! D34   D(18,13,14,19)       -145.6002                                         !
 ! D35   D(13,14,15,16)         82.693                                          !
 ! D36   D(13,14,15,23)        -95.0988                                         !
 ! D37   D(17,14,15,16)       -152.814                                          !
 ! D38   D(17,14,15,23)         29.3942                                         !
 ! D39   D(19,14,15,16)        -33.5726                                         !
 ! D40   D(19,14,15,23)        148.6356                                         !
 ! D41   D(13,14,17,20)        -62.5337                                         !
 ! D42   D(13,14,17,21)        177.8047                                         !
 ! D43   D(13,14,17,22)         56.8207                                         !
 ! D44   D(15,14,17,20)        172.5908                                         !
 ! D45   D(15,14,17,21)         52.9291                                         !
 ! D46   D(15,14,17,22)        -68.0549                                         !
 ! D47   D(19,14,17,20)         55.8248                                         !
 ! D48   D(19,14,17,21)        -63.8369                                         !
 ! D49   D(19,14,17,22)        175.1791                                         !
 ! D50   D(14,15,23,24)       -175.3152                                         !
 ! D51   D(14,15,23,28)         -5.0088                                         !
 ! D52   D(16,15,23,24)          6.9694                                         !
 ! D53   D(16,15,23,28)        177.2759                                         !
 ! D54   D(15,23,24,25)       -106.3844                                         !
 ! D55   D(15,23,24,27)        132.3698                                         !
 ! D56   D(15,23,24,29)         13.1064                                         !
 ! D57   D(28,23,24,25)         82.9819                                         !
 ! D58   D(28,23,24,27)        -38.2639                                         !
 ! D59   D(28,23,24,29)       -157.5273                                         !
 ! D60   D(23,24,25,26)        -95.8294                                         !
 ! D61   D(23,24,25,33)         79.1871                                         !
 ! D62   D(27,24,25,26)         25.5214                                         !
 ! D63   D(27,24,25,33)       -159.4621                                         !
 ! D64   D(29,24,25,26)        148.0043                                         !
 ! D65   D(29,24,25,33)        -36.9793                                         !
 ! D66   D(23,24,27,30)        -58.4079                                         !
 ! D67   D(23,24,27,31)         63.2601                                         !
 ! D68   D(23,24,27,32)       -178.2156                                         !
 ! D69   D(25,24,27,30)       -178.5939                                         !
 ! D70   D(25,24,27,31)        -56.9259                                         !
 ! D71   D(25,24,27,32)         61.5983                                         !
 ! D72   D(29,24,27,30)         58.3037                                         !
 ! D73   D(29,24,27,31)        179.9717                                         !
 ! D74   D(29,24,27,32)        -61.504                                          !
 ! D75   D(24,25,33,34)         22.3819                                         !
 ! D76   D(24,25,33,40)        173.8796                                         !
 ! D77   D(26,25,33,34)       -162.5323                                         !
 ! D78   D(26,25,33,40)        -11.0346                                         !
 ! D79   D(25,33,34,35)       -111.6661                                         !
 ! D80   D(25,33,34,37)        124.6297                                         !
 ! D81   D(25,33,34,41)          2.6195                                         !
 ! D82   D(40,33,34,35)         97.9804                                         !
 ! D83   D(40,33,34,37)        -25.7238                                         !
 ! D84   D(40,33,34,41)       -147.7339                                         !
 ! D85   D(33,34,35,36)       -177.6373                                         !
 ! D86   D(33,34,35,38)          2.6932                                         !
 ! D87   D(37,34,35,36)        -53.2204                                         !
 ! D88   D(37,34,35,38)        127.1101                                         !
 ! D89   D(41,34,35,36)         64.4987                                         !
 ! D90   D(41,34,35,38)       -115.1708                                         !
 ! D91   D(33,34,37,42)         57.4541                                         !
 ! D92   D(33,34,37,43)        177.0638                                         !
 ! D93   D(33,34,37,44)        -62.9176                                         !
 ! D94   D(35,34,37,42)        -65.9205                                         !
 ! D95   D(35,34,37,43)         53.6892                                         !
 ! D96   D(35,34,37,44)        173.7079                                         !
 ! D97   D(41,34,37,42)        179.673                                          !
 ! D98   D(41,34,37,43)        -60.7173                                         !
 ! D99   D(41,34,37,44)         59.3013                                         !
 ! D100  D(34,35,38,39)         -0.0614                                         !
 ! D101  D(36,35,38,39)       -179.7396                                         !
 --------------------------------------------------------------------------------
                          Input orientation:                          
 ---------------------------------------------------------------------
 Center     Atomic      Atomic             Coordinates (Angstroms)
 Number     Number       Type             X           Y           Z
 ---------------------------------------------------------------------
      1          7           0       -1.129658   -5.845115   -3.779516
      2          6           0       -1.896441   -5.594710   -2.504960
      3          6           0       -1.670773   -6.883067   -1.684932
      4          8           0       -1.492503   -7.935973   -2.291598
      5          6           0       -3.386049   -5.405741   -2.799427
      6          1           0       -1.128752   -6.874994   -3.910200
      7          1           0       -1.453333   -4.720421   -2.027556
      8          1           0       -3.935184   -5.254883   -1.865594
      9          1           0       -3.552682   -4.523887   -3.427079
     10          1           0       -3.801587   -6.289691   -3.294391
     11          1           0       -0.135076   -5.506398   -3.665828
     12          1           0       -1.550955   -5.383240   -4.589051
     13          7           0       -1.740868   -6.816908   -0.333782
     14          6           0       -1.833417   -5.635811    0.536230
     15          6           0       -0.479336   -4.883840    0.553786
     16          8           0       -0.214211   -4.095193   -0.356881
     17          6           0       -2.381381   -6.056574    1.900628
     18          1           0       -1.613359   -7.717221    0.117227
     19          1           0       -2.529333   -4.922870    0.085090
     20          1           0       -3.392535   -6.457829    1.790380
     21          1           0       -2.422759   -5.199830    2.578791
     22          1           0       -1.767319   -6.837872    2.366846
     23          7           0        0.388176   -5.158821    1.555248
     24          6           0        1.658773   -4.437498    1.733353
     25          6           0        2.816697   -5.365981    1.305587
     26          8           0        3.426725   -6.028201    2.121946
     27          6           0        1.831686   -4.007393    3.188198
     28          1           0        0.115106   -5.780744    2.305152
     29          1           0        1.598243   -3.560097    1.087533
     30          1           0        0.995704   -3.370859    3.491444
     31          1           0        1.893191   -4.878739    3.846178
     32          1           0        2.761967   -3.445139    3.306190
     33          7           0        3.090214   -5.517459   -0.056069
     34          6           0        2.759921   -4.624655   -1.173924
     35          6           0        1.707123   -5.277208   -2.078069
     36          8           0        1.294932   -4.753615   -3.101532
     37          6           0        4.003040   -4.233423   -1.982532
     38          8           0        1.241285   -6.465058   -1.692337
     39          1           0        1.700548   -6.693270   -0.851636
     40          1           0        3.934256   -6.072135   -0.183068
     41          1           0        2.270104   -3.724481   -0.798611
     42          1           0        4.518476   -5.120789   -2.367230
     43          1           0        3.709951   -3.613528   -2.832801
     44          1           0        4.696396   -3.671118   -1.351743
 ---------------------------------------------------------------------
                    Distance matrix (angstroms):
                    1          2          3          4          5
     1  N    0.000000
     2  C    1.508361   0.000000
     3  C    2.399465   1.543773   0.000000
     4  O    2.591766   2.385415   1.228184   0.000000
     5  C    2.498985   1.530148   2.523244   3.200857   0.000000
     6  H    1.038138   2.050164   2.290343   1.969230   2.913402
     7  H    2.106909   1.090248   2.200388   3.226613   2.191082
     8  H    3.447093   2.163503   2.794849   3.651906   1.093778
     9  H    2.782247   2.177177   3.484593   4.144392   1.095162
    10  H    2.751763   2.176185   2.735475   3.007941   1.095002
    11  H    1.056810   2.111355   2.859638   3.103861   3.365948
    12  H    1.022823   2.123091   3.270741   3.434845   2.563363
    13  N    3.631948   2.496395   1.354583   2.268708   3.282897
    14  C    4.377756   3.042120   2.552579   3.661090   3.686489
    15  C    4.486032   3.445207   3.229286   4.293977   4.468266
    16  O    3.951544   3.113309   3.414312   4.486507   4.212377
    17  C    5.820272   4.456198   3.747572   4.679424   4.850099
    18  H    4.350098   3.385417   1.986677   2.421754   4.122164
    19  H    4.212458   2.749596   2.777134   3.975230   3.047550
    20  H    6.043159   4.629602   3.901677   4.738943   4.708849
    21  H    6.520474   5.126156   4.645224   5.663263   5.467683
    22  H    6.258590   5.029575   4.053180   4.794001   5.600148
    23  N    5.588786   4.679185   4.208451   5.103700   5.767924
    24  C    6.336282   5.651725   5.362029   6.194361   6.850826
    25  C    6.454577   6.065168   5.601977   6.173638   7.438197
    26  O    7.457976   7.066277   6.419314   6.878791   8.427411
    27  C    7.790753   6.987887   6.654631   7.517456   8.064229
    28  H    6.211020   5.217097   4.508352   5.325366   6.201244
    29  H    6.029172   5.409110   5.423574   6.333998   6.584681
    30  H    7.969063   7.019037   6.800042   7.776568   7.931933
    31  H    8.259705   7.430403   6.878397   7.647346   8.503657
    32  H    8.432785   7.751831   7.508650   8.342861   8.883728
    33  N    5.637264   5.556057   5.213931   5.643412   7.034236
    34  C    4.838126   4.939066   4.999260   5.504283   6.405100
    35  C    3.356303   3.642625   3.760787   4.165601   5.145608
    36  O    2.744025   3.353834   3.916214   4.307342   4.735834
    37  C    5.671975   6.076999   6.269078   6.633656   7.525975
    38  O    3.219009   3.356067   2.941916   3.161693   4.874425
    39  H    4.159557   4.108363   3.477961   3.716635   5.596882
    40  H    6.215240   6.294136   5.859143   6.113060   7.802325
    41  H    4.994123   4.875396   5.127645   5.841480   6.230728
    42  H    5.866908   6.433873   6.471317   6.637985   7.921458
    43  H    5.412768   5.955182   6.399974   6.785422   7.318904
    44  H    6.675572   6.963880   7.139221   7.574615   8.392296
                    6          7          8          9         10
     6  H    0.000000
     7  H    2.879564   0.000000
     8  H    3.831610   2.543908   0.000000
     9  H    3.411238   2.530723   1.766041   0.000000
    10  H    2.804611   3.095445   1.769220   1.788190   0.000000
    11  H    1.708850   2.244882   4.212472   3.564036   3.767600
    12  H    1.692461   2.647662   3.621911   2.468921   2.750116
    13  N    3.628888   2.710499   3.098612   4.255479   3.645508
    14  C    4.669354   2.748708   3.214232   4.460949   4.356020
    15  C    4.930884   2.763820   4.234851   5.042054   5.274679
    16  O    4.603233   2.171978   4.179323   4.555797   5.129722
    17  C    6.000385   4.251730   4.152282   5.666176   5.390692
    18  H    4.142989   3.688700   3.922443   5.149802   4.297130
    19  H    4.662055   2.379503   2.427307   3.679913   3.861052
    20  H    6.147793   4.621225   3.886862   5.566656   5.103969
    21  H    6.825514   4.731602   4.695000   6.148504   6.130517
    22  H    6.309553   4.888042   5.011890   6.489346   6.040559
    23  N    5.925998   4.052140   5.513877   6.384128   6.507841
    24  C    6.749918   4.889753   6.701709   7.334630   7.650122
    25  C    6.711791   5.455249   7.460338   7.979739   8.112628
    26  O    7.606328   6.537860   8.408103   9.042497   9.036237
    27  C    8.208203   6.205147   7.768774   8.545179   8.886317
    28  H    6.432353   4.728281   5.837508   6.920320   6.852327
    29  H    6.588049   4.512454   6.497082   6.916838   7.470616
    30  H    8.460297   6.186959   7.520709   8.359620   8.808016
    31  H    8.560291   6.762029   8.169198   9.093059   9.241700
    32  H    8.886951   6.916931   8.652997   9.293837   9.733416
    33  N    5.873407   5.016558   7.259446   7.515249   7.653757
    34  C    5.260515   4.299927   6.760180   6.703419   7.093808
    35  C    3.735213   3.209524   5.646350   5.482049   5.731531
    36  O    3.320910   2.950845   5.397493   4.863961   5.326465
    37  C    6.085155   5.478248   8.004528   7.698053   8.176883
    38  O    3.271703   3.227553   5.318870   5.455235   5.294137
    39  H    4.170465   3.901524   5.904113   6.239836   6.033525
    40  H    6.337993   5.852810   8.088689   8.305114   8.340919
    41  H    5.582110   4.045514   6.479675   6.438380   7.048025
    42  H    6.111397   5.994845   8.469592   8.162301   8.452775
    43  H    5.933885   5.341641   7.878935   7.343552   7.987372
    44  H    7.123404   6.275104   8.790708   8.548774   9.102007
                   11         12         13         14         15
    11  H    0.000000
    12  H    1.694763   0.000000
    13  N    3.924097   4.494306   0.000000
    14  C    4.534137   5.139268   1.469856   0.000000
    15  C    4.279164   5.276983   2.473054   1.548969   0.000000
    16  O    3.598179   4.621386   3.120729   2.406860   1.233519
    17  C    6.027771   6.577152   2.445599   1.529343   2.609035
    18  H    4.624345   5.253609   1.015003   2.134539   3.082959
    19  H    4.488024   4.797578   2.093922   1.093668   2.103256
    20  H    6.425455   6.726314   2.714591   2.163205   3.534591
    21  H    6.657533   7.222994   3.400441   2.170130   2.824427
    22  H    6.389851   7.109661   2.700839   2.190999   2.960461
    23  N    5.258730   6.446938   3.294013   2.490260   1.353188
    24  C    5.788921   7.153292   4.635969   3.881295   2.482360
    25  C    5.783395   7.336446   5.056098   4.721047   3.414894
    26  O    6.815940   8.380379   5.775524   5.507954   4.361880
    27  C    7.286484   8.591905   5.749858   4.808083   3.612355
    28  H    5.982513   7.103788   3.388546   2.635684   2.055500
    29  H    5.420971   6.742767   4.876128   4.048310   2.520618
    30  H    7.554187   8.708016   5.830646   4.676240   3.618658
    31  H    7.806284   9.125227   5.868131   5.041481   4.058172
    32  H    7.826282   9.202845   6.700280   5.795626   4.489057
    33  N    4.840763   6.488944   5.010494   4.960541   3.676287
    34  C    3.920213   5.551774   5.076310   5.004580   3.680346
    35  C    2.442787   4.114772   4.159550   4.415719   3.444126
    36  O    1.711735   3.272341   4.597141   4.878335   4.065260
    37  C    4.645209   6.242026   6.510396   6.509615   5.191113
    38  O    2.589994   4.166280   3.295863   3.886895   3.241275
    39  H    3.563406   5.124132   3.482357   3.941231   3.162459
    40  H    5.386014   7.069286   5.725769   5.828707   4.629773
    41  H    4.145004   5.631999   5.085968   4.719520   3.276051
    42  H    4.846710   6.468644   6.796405   7.002990   5.793669
    43  H    4.365904   5.821806   6.798394   6.794771   5.534689
    44  H    5.662718   7.241611   7.236755   7.075516   5.647118
                   16         17         18         19         20
    16  O    0.000000
    17  C    3.693236   0.000000
    18  H    3.911710   2.555020   0.000000
    19  H    2.498035   2.145543   2.940822   0.000000
    20  H    4.504944   1.093431   2.747904   2.451373   0.000000
    21  H    3.836154   1.093448   3.612712   2.511297   1.773307
    22  H    4.165708   1.097660   2.420278   3.074786   1.765806
    23  N    2.269452   2.931842   3.552388   3.275500   4.004558
    24  C    2.827423   4.355713   4.906658   4.526874   5.440653
    25  C    3.683084   5.277406   5.154214   5.501454   6.323110
    26  O    4.810147   5.812390   5.681032   6.391022   6.840820
    27  C    4.094019   4.858695   5.921319   5.430090   5.937257
    28  H    3.167957   2.544045   3.394782   3.557763   3.609290
    29  H    2.378581   4.767697   5.342056   4.460821   5.813665
    30  H    4.098556   4.598746   6.089615   5.141777   5.628467
    31  H    4.766634   4.841945   5.853029   5.805726   5.887167
    32  H    4.764273   5.937106   6.896640   6.368440   7.017968
    33  N    3.610063   5.835894   5.195438   5.652679   6.805858
    34  C    3.129433   6.159241   5.509683   5.445205   7.071092
    35  C    2.837458   5.757891   4.668895   4.769944   6.508861
    36  O    3.200647   6.343074   5.253715   4.980784   6.986236
    37  C    4.521842   7.691791   6.934679   6.886385   8.595195
    38  O    3.085153   5.118591   3.604362   4.444677   5.796694
    39  H    3.265132   4.964120   3.601270   4.680135   5.742402
    40  H    4.598727   6.650511   5.794179   6.570442   7.597705
    41  H    2.550368   5.861814   5.644644   5.025103   6.799966
    42  H    5.243250   8.166905   7.107276   7.464895   9.036453
    43  H    4.664893   8.091857   7.340339   7.011214   8.939192
    44  H    5.028286   8.146364   7.638182   7.472787   9.114247
                   21         22         23         24         25
    21  H    0.000000
    22  H    1.776994   0.000000
    23  N    2.991769   2.850275   0.000000
    24  C    4.237313   4.230983   1.471885   0.000000
    25  C    5.394494   4.930106   2.450094   1.544621   0.000000
    26  O    5.925485   5.262475   3.210879   2.409771   1.215365
    27  C    4.460223   4.651782   2.464961   1.526913   2.521950
    28  H    2.617842   2.159826   1.011786   2.124659   2.910285
    29  H    4.591409   4.869031   2.058868   1.091137   2.189382
    30  H    3.982958   4.573751   2.704580   2.160616   3.474838
    31  H    4.509634   4.407490   2.755336   2.171100   2.746793
    32  H    5.521724   5.736501   3.411361   2.162320   2.773994
    33  N    6.118517   5.586559   3.166382   2.533253   1.397091
    34  C    6.424475   6.158839   3.654981   3.114453   2.588583
    35  C    6.224810   5.853605   3.867121   3.903126   3.562044
    36  O    6.803412   6.604898   4.761512   4.858850   4.702495
    37  C    7.939176   7.680970   5.141934   4.398299   3.674482
    38  O    5.767891   5.066326   3.602896   4.002581   3.560540
    39  H    5.567752   4.733460   3.141647   3.431097   2.767869
    40  H    6.985730   6.292565   4.053463   3.394486   1.990901
    41  H    5.967115   6.001176   3.337609   2.700548   2.724139
    42  H    8.523504   8.054258   5.696197   5.045748   4.055337
    43  H    8.331375   8.211773   5.716388   5.073068   4.582057
    44  H    8.274566   8.101596   5.405980   4.396853   3.669772
                   26         27         28         29         30
    26  O    0.000000
    27  C    2.786522   0.000000
    28  H    3.325902   2.621297   0.000000
    29  H    3.241126   2.160409   2.934888   0.000000
    30  H    3.853162   1.093618   2.826710   2.485489   0.000000
    31  H    2.577977   1.093601   2.519914   3.071797   1.790258
    32  H    2.918312   1.093377   3.669197   2.507969   1.777504
    33  N    2.262265   3.793344   3.807355   2.713866   4.645397
    34  C    3.643807   4.502305   4.520571   2.756260   5.142969
    35  C    4.600124   5.418627   4.690489   3.602965   5.929566
    36  O    5.783929   6.356545   5.628429   4.366320   6.743062
    37  C    4.516648   5.612693   5.991199   3.957489   6.304959
    38  O    4.417663   5.496210   4.209095   4.036570   6.042017
    39  H    3.502027   4.852978   3.648512   3.686139   5.513399
    40  H    2.360637   4.477655   4.567500   3.658104   5.425313
    41  H    3.895452   4.020808   4.301811   2.008969   4.489289
    42  H    4.708293   6.270668   6.454174   4.785280   7.056645
    43  H    5.519092   6.319449   6.634628   4.453222   6.886371
    44  H    4.385706   5.378728   6.229898   3.944737   6.102601
                   31         32         33         34         35
    31  H    0.000000
    32  H    1.761127   0.000000
    33  N    4.131387   3.963211   0.000000
    34  C    5.100707   4.632784   1.468262   0.000000
    35  C    5.940547   5.784411   2.461533   1.533521   0.000000
    36  O    6.974543   6.702477   3.616814   2.424561   1.221281
    37  C    6.232315   5.489284   2.488626   1.533706   2.523857
    38  O    5.797978   6.034705   2.644590   2.441739   1.332960
    39  H    5.039752   5.381867   1.986613   2.346340   1.873342
    40  H    4.671720   4.522200   1.017939   2.110937   3.030356
    41  H    4.800879   4.143591   2.106827   1.091373   2.089240
    42  H    6.749604   6.170966   2.745678   2.182348   2.830510
    43  H    7.036344   6.214036   3.423342   2.162592   2.710862
    44  H    6.027826   5.048705   2.769037   2.165823   3.470278
                   36         37         38         39         40
    36  O    0.000000
    37  C    2.976006   0.000000
    38  O    2.217599   3.562542   0.000000
    39  H    2.998136   3.554046   0.984775   0.000000
    40  H    4.149934   2.573648   3.111973   2.412932   0.000000
    41  H    2.704353   2.159574   3.060715   3.023395   2.942749
    42  H    3.326447   1.095941   3.605900   3.565170   2.452945
    43  H    2.684088   1.092304   3.940328   4.177023   3.621622
    44  H    3.975364   1.093080   4.456445   4.284696   2.776966
                   41         42         43         44
    41  H    0.000000
    42  H    3.076592   0.000000
    43  H    2.494674   1.772655   0.000000
    44  H    2.489116   1.778881   1.780428   0.000000
 Symmetry turned off by external request.
 Stoichiometry    C12H23N4O5(1+)
 Framework group  C1[X(C12H23N4O5)]
 Deg. of freedom   126
 Full point group                 C1      NOp   1
 Rotational constants (GHZ):           0.4196622           0.2548765           0.1874954
 Standard basis: 6-31G(d) (6D, 7F)
   361 basis functions,   680 primitive gaussians,   361 cartesian basis functions
    81 alpha electrons       81 beta electrons
       nuclear repulsion energy      1961.7540784561 Hartrees.
 NAtoms=   44 NActive=   44 NUniq=   44 SFac= 1.00D+00 NAtFMM=   60 NAOKFM=F Big=F
 Integral buffers will be    131072 words long.
 Raffenetti 2 integral format.
 Two-electron integral symmetry is turned off.
 Nuclear repulsion after empirical dispersion term =     1961.6962548808 Hartrees.
 One-electron integrals computed using PRISM.
 NBasis=   361 RedAO= T EigKep=  2.20D-03  NBF=   361
 NBsUse=   361 1.00D-06 EigRej= -1.00D+00 NBFU=   361
 Initial guess from the checkpoint file:  "conf-472.chk"
 B after Tr=     0.000000    0.000000    0.000000
         Rot=    1.000000    0.000000    0.000000    0.000000 Ang=   0.00 deg.
 Requested convergence on RMS density matrix=1.00D-08 within 128 cycles.
 Requested convergence on MAX density matrix=1.00D-06.
 Requested convergence on             energy=1.00D-06.
 No special actions if energy rises.
 SCF Done:  E(RB3LYP) =  -1066.17003754     A.U. after    1 cycles
            NFock=  1  Conv=0.84D-08     -V/T= 2.0093

 **********************************************************************

            Population analysis using the SCF Density.

 **********************************************************************

 Alpha  occ. eigenvalues --  -19.33325 -19.28166 -19.26199 -19.25702 -19.24514
 Alpha  occ. eigenvalues --  -14.57226 -14.50763 -14.50567 -14.49492 -10.45945
 Alpha  occ. eigenvalues --  -10.43641 -10.42913 -10.41809 -10.39079 -10.38298
 Alpha  occ. eigenvalues --  -10.37408 -10.36290 -10.33022 -10.32266 -10.30523
 Alpha  occ. eigenvalues --  -10.29159  -1.24649  -1.18735  -1.17675  -1.16604
 Alpha  occ. eigenvalues --   -1.15963  -1.11984  -1.07140  -1.06370  -1.05291
 Alpha  occ. eigenvalues --   -0.92543  -0.91261  -0.89795  -0.88370  -0.80826
 Alpha  occ. eigenvalues --   -0.79723  -0.78976  -0.77987  -0.74504  -0.73757
 Alpha  occ. eigenvalues --   -0.72966  -0.72126  -0.71117  -0.70544  -0.66953
 Alpha  occ. eigenvalues --   -0.66196  -0.64248  -0.62643  -0.61877  -0.61559
 Alpha  occ. eigenvalues --   -0.60484  -0.60216  -0.59215  -0.58446  -0.57185
 Alpha  occ. eigenvalues --   -0.55963  -0.55115  -0.54991  -0.54081  -0.53726
 Alpha  occ. eigenvalues --   -0.53352  -0.52861  -0.52450  -0.52303  -0.51710
 Alpha  occ. eigenvalues --   -0.51187  -0.50922  -0.50342  -0.50013  -0.49328
 Alpha  occ. eigenvalues --   -0.49135  -0.49000  -0.47460  -0.45420  -0.43308
 Alpha  occ. eigenvalues --   -0.41582  -0.40865  -0.40341  -0.38938  -0.38191
 Alpha  occ. eigenvalues --   -0.36886
 Alpha virt. eigenvalues --   -0.13880  -0.13008  -0.11580  -0.10483  -0.07819
 Alpha virt. eigenvalues --   -0.05863  -0.04096  -0.03336  -0.02773  -0.01762
 Alpha virt. eigenvalues --   -0.01635  -0.00098   0.00377   0.01526   0.01868
 Alpha virt. eigenvalues --    0.02149   0.02549   0.02765   0.03691   0.04192
 Alpha virt. eigenvalues --    0.04437   0.04909   0.05591   0.05739   0.05899
 Alpha virt. eigenvalues --    0.06499   0.06817   0.07400   0.08273   0.08726
 Alpha virt. eigenvalues --    0.09293   0.10069   0.10470   0.11478   0.12257
 Alpha virt. eigenvalues --    0.13083   0.13313   0.13903   0.14742   0.18053
 Alpha virt. eigenvalues --    0.21111   0.21728   0.22537   0.25973   0.26574
 Alpha virt. eigenvalues --    0.27294   0.29380   0.32738   0.35107   0.35610
 Alpha virt. eigenvalues --    0.37135   0.37884   0.38815   0.39511   0.39944
 Alpha virt. eigenvalues --    0.41085   0.42375   0.43155   0.43661   0.44633
 Alpha virt. eigenvalues --    0.45063   0.46680   0.47546   0.47924   0.49095
 Alpha virt. eigenvalues --    0.49642   0.49901   0.51154   0.51934   0.52459
 Alpha virt. eigenvalues --    0.52852   0.53813   0.54994   0.56121   0.58013
 Alpha virt. eigenvalues --    0.58696   0.59489   0.60400   0.60989   0.62906
 Alpha virt. eigenvalues --    0.63001   0.64164   0.65212   0.65814   0.66792
 Alpha virt. eigenvalues --    0.67584   0.68315   0.68627   0.69849   0.71625
 Alpha virt. eigenvalues --    0.72105   0.72711   0.73468   0.73769   0.74177
 Alpha virt. eigenvalues --    0.74569   0.75601   0.76145   0.76414   0.77086
 Alpha virt. eigenvalues --    0.77473   0.77881   0.78593   0.79007   0.79545
 Alpha virt. eigenvalues --    0.79975   0.80336   0.80853   0.82066   0.83017
 Alpha virt. eigenvalues --    0.83912   0.85116   0.85384   0.86263   0.86426
 Alpha virt. eigenvalues --    0.87050   0.88394   0.88456   0.89795   0.90263
 Alpha virt. eigenvalues --    0.90901   0.93462   0.94130   0.95268   0.97288
 Alpha virt. eigenvalues --    0.99837   1.00471   1.01408   1.04740   1.05779
 Alpha virt. eigenvalues --    1.06256   1.07898   1.08810   1.11583   1.12693
 Alpha virt. eigenvalues --    1.15137   1.15365   1.17396   1.18320   1.20342
 Alpha virt. eigenvalues --    1.22110   1.22946   1.23687   1.24766   1.26382
 Alpha virt. eigenvalues --    1.29029   1.30252   1.32464   1.34551   1.35445
 Alpha virt. eigenvalues --    1.36680   1.39428   1.41308   1.42207   1.43452
 Alpha virt. eigenvalues --    1.45304   1.46411   1.48367   1.49026   1.52886
 Alpha virt. eigenvalues --    1.53175   1.54046   1.56162   1.58074   1.58605
 Alpha virt. eigenvalues --    1.60154   1.60947   1.61355   1.64489   1.65863
 Alpha virt. eigenvalues --    1.66007   1.66963   1.67500   1.68205   1.69740
 Alpha virt. eigenvalues --    1.70464   1.71677   1.72478   1.73549   1.74782
 Alpha virt. eigenvalues --    1.75934   1.76612   1.77523   1.79164   1.79887
 Alpha virt. eigenvalues --    1.81108   1.82482   1.83149   1.84345   1.85506
 Alpha virt. eigenvalues --    1.85802   1.86526   1.88427   1.88852   1.89243
 Alpha virt. eigenvalues --    1.90680   1.91350   1.92490   1.93219   1.93742
 Alpha virt. eigenvalues --    1.95006   1.95487   1.97445   1.97908   2.00195
 Alpha virt. eigenvalues --    2.02403   2.03893   2.05780   2.07241   2.07702
 Alpha virt. eigenvalues --    2.10640   2.12311   2.13139   2.14165   2.15415
 Alpha virt. eigenvalues --    2.15770   2.16965   2.18199   2.19297   2.20163
 Alpha virt. eigenvalues --    2.20914   2.25932   2.26537   2.28584   2.29893
 Alpha virt. eigenvalues --    2.31121   2.32200   2.33929   2.35869   2.38550
 Alpha virt. eigenvalues --    2.39553   2.42267   2.44349   2.45101   2.46402
 Alpha virt. eigenvalues --    2.49478   2.49567   2.49898   2.52201   2.53733
 Alpha virt. eigenvalues --    2.54516   2.56983   2.57457   2.59908   2.61775
 Alpha virt. eigenvalues --    2.66230   2.67977   2.76623   2.79718   2.81786
 Alpha virt. eigenvalues --    2.83839   2.87218   2.88451   2.89213   2.91021
 Alpha virt. eigenvalues --    2.94795   2.99167   3.02552   3.03142   3.71467
 Alpha virt. eigenvalues --    3.77905   3.84607   3.87487   3.93160   3.96920
 Alpha virt. eigenvalues --    4.03934   4.06083   4.09520   4.12925   4.14663
 Alpha virt. eigenvalues --    4.15560   4.20564   4.22617   4.25958   4.29536
 Alpha virt. eigenvalues --    4.30886   4.50450   4.52758   4.55240   4.57615
          Condensed to atoms (all electrons):
               1          2          3          4          5          6
     1  N    7.019682   0.216762  -0.044994  -0.030048  -0.047432   0.249299
     2  C    0.216762   5.308472   0.295628  -0.088196   0.346683  -0.042280
     3  C   -0.044994   0.295628   4.345512   0.541805  -0.040132  -0.006805
     4  O   -0.030048  -0.088196   0.541805   8.092789  -0.003191   0.062661
     5  C   -0.047432   0.346683  -0.040132  -0.003191   5.120822   0.001381
     6  H    0.249299  -0.042280  -0.006805   0.062661   0.001381   0.326595
     7  H   -0.031567   0.329461  -0.023620   0.002528  -0.025107   0.004110
     8  H    0.003885  -0.031704  -0.002726  -0.000008   0.377288  -0.000075
     9  H   -0.003487  -0.029094   0.003707  -0.000043   0.372638  -0.000392
    10  H   -0.003616  -0.035036  -0.004064   0.003627   0.374101   0.002443
    11  H    0.186432  -0.015659  -0.000309   0.000362   0.002689  -0.003194
    12  H    0.300955  -0.023657   0.004314   0.000378  -0.001275  -0.011584
    13  N    0.001424  -0.110514   0.309952  -0.081520   0.000985   0.002290
    14  C   -0.000058   0.010811  -0.024397   0.002686  -0.002041  -0.000079
    15  C    0.000082  -0.002222  -0.001034  -0.000036   0.000108  -0.000003
    16  O    0.000124  -0.018086   0.002453   0.000008   0.000385  -0.000010
    17  C   -0.000003  -0.000266   0.003574  -0.000075   0.000033   0.000001
    18  H   -0.000082   0.007717  -0.013528   0.006272  -0.000253  -0.000123
    19  H    0.000043   0.000915  -0.006460   0.000035   0.001045  -0.000008
    20  H    0.000000  -0.000007  -0.000087  -0.000006   0.000014   0.000000
    21  H   -0.000000   0.000015  -0.000067   0.000000  -0.000002  -0.000000
    22  H    0.000000  -0.000003  -0.000175  -0.000003  -0.000002   0.000000
    23  N    0.000001  -0.000232  -0.000004  -0.000001  -0.000001  -0.000000
    24  C   -0.000000   0.000006  -0.000007   0.000000  -0.000000   0.000000
    25  C    0.000000  -0.000000   0.000003  -0.000000   0.000000  -0.000000
    26  O    0.000000  -0.000000   0.000000  -0.000000   0.000000  -0.000000
    27  C    0.000000   0.000000  -0.000000   0.000000  -0.000000   0.000000
    28  H   -0.000000   0.000007  -0.000020  -0.000000  -0.000000   0.000000
    29  H    0.000000   0.000004  -0.000002   0.000000  -0.000000   0.000000
    30  H   -0.000000   0.000000  -0.000000  -0.000000   0.000000  -0.000000
    31  H   -0.000000  -0.000000   0.000000  -0.000000   0.000000   0.000000
    32  H   -0.000000   0.000000   0.000000   0.000000   0.000000  -0.000000
    33  N    0.000003  -0.000001  -0.000002   0.000000   0.000000  -0.000000
    34  C   -0.000197   0.000037   0.000015  -0.000004  -0.000000   0.000004
    35  C    0.002089   0.000840  -0.000067   0.000055   0.000035  -0.000081
    36  O   -0.048117   0.001136  -0.000377  -0.000003   0.000013   0.000416
    37  C    0.000001   0.000002  -0.000000   0.000000   0.000000  -0.000000
    38  O    0.001152   0.000781   0.006708  -0.001388   0.000038   0.000237
    39  H   -0.000005   0.000037  -0.000121   0.000049  -0.000000  -0.000007
    40  H   -0.000000  -0.000000   0.000000  -0.000000  -0.000000  -0.000000
    41  H    0.000008   0.000000  -0.000003   0.000000  -0.000000  -0.000000
    42  H    0.000000  -0.000000   0.000000  -0.000000  -0.000000  -0.000000
    43  H    0.000002  -0.000000   0.000000   0.000000  -0.000000  -0.000000
    44  H   -0.000000  -0.000000   0.000000  -0.000000  -0.000000  -0.000000
               7          8          9         10         11         12
     1  N   -0.031567   0.003885  -0.003487  -0.003616   0.186432   0.300955
     2  C    0.329461  -0.031704  -0.029094  -0.035036  -0.015659  -0.023657
     3  C   -0.023620  -0.002726   0.003707  -0.004064  -0.000309   0.004314
     4  O    0.002528  -0.000008  -0.000043   0.003627   0.000362   0.000378
     5  C   -0.025107   0.377288   0.372638   0.374101   0.002689  -0.001275
     6  H    0.004110  -0.000075  -0.000392   0.002443  -0.003194  -0.011584
     7  H    0.464814  -0.001721  -0.003655   0.003770  -0.001954   0.000047
     8  H   -0.001721   0.494860  -0.021496  -0.021781  -0.000069  -0.000021
     9  H   -0.003655  -0.021496   0.514065  -0.026912  -0.000093   0.004117
    10  H    0.003770  -0.021781  -0.026912   0.510478  -0.000001   0.000043
    11  H   -0.001954  -0.000069  -0.000093  -0.000001   0.295678  -0.007631
    12  H    0.000047  -0.000021   0.004117   0.000043  -0.007631   0.333569
    13  N    0.001134   0.001672  -0.000055   0.000017   0.000089  -0.000083
    14  C   -0.003807  -0.000028   0.000036   0.000003  -0.000027   0.000000
    15  C   -0.002210   0.000073   0.000000  -0.000004   0.000043  -0.000001
    16  O    0.038154   0.000002  -0.000004  -0.000004   0.000006  -0.000006
    17  C    0.000310  -0.000075  -0.000001   0.000003   0.000000  -0.000000
    18  H   -0.000308  -0.000034   0.000006  -0.000025  -0.000002   0.000004
    19  H    0.001502   0.003350  -0.000099  -0.000023   0.000004  -0.000002
    20  H   -0.000013   0.000053   0.000000  -0.000001  -0.000000   0.000000
    21  H    0.000000  -0.000001   0.000000  -0.000000  -0.000000   0.000000
    22  H   -0.000001   0.000000  -0.000000   0.000000   0.000000  -0.000000
    23  N    0.000701  -0.000000  -0.000000   0.000000   0.000001   0.000000
    24  C   -0.000017   0.000000   0.000000  -0.000000  -0.000000   0.000000
    25  C    0.000004  -0.000000  -0.000000  -0.000000  -0.000001  -0.000000
    26  O    0.000000   0.000000   0.000000  -0.000000  -0.000000  -0.000000
    27  C   -0.000000   0.000000   0.000000   0.000000  -0.000000   0.000000
    28  H   -0.000023  -0.000000  -0.000000   0.000000   0.000000  -0.000000
    29  H   -0.000021  -0.000000   0.000000   0.000000  -0.000000   0.000000
    30  H   -0.000000   0.000000  -0.000000   0.000000   0.000000  -0.000000
    31  H    0.000000   0.000000   0.000000  -0.000000   0.000000   0.000000
    32  H   -0.000000  -0.000000   0.000000  -0.000000  -0.000000  -0.000000
    33  N   -0.000000  -0.000000  -0.000000  -0.000000  -0.000056  -0.000000
    34  C   -0.000071   0.000000   0.000000  -0.000000   0.001853   0.000003
    35  C    0.000707   0.000001   0.000001  -0.000000  -0.004031   0.000058
    36  O    0.002583   0.000001   0.000001  -0.000000   0.101213   0.000646
    37  C   -0.000002  -0.000000   0.000000   0.000000  -0.000031  -0.000000
    38  O   -0.000845   0.000000  -0.000000  -0.000000  -0.002388   0.000028
    39  H   -0.000013  -0.000000  -0.000000   0.000000   0.000016   0.000000
    40  H    0.000000   0.000000  -0.000000   0.000000   0.000000  -0.000000
    41  H   -0.000025  -0.000000  -0.000000   0.000000  -0.000088  -0.000000
    42  H    0.000000  -0.000000  -0.000000  -0.000000  -0.000008  -0.000000
    43  H   -0.000000  -0.000000  -0.000000   0.000000  -0.000027  -0.000000
    44  H   -0.000000   0.000000   0.000000   0.000000   0.000001   0.000000
              13         14         15         16         17         18
     1  N    0.001424  -0.000058   0.000082   0.000124  -0.000003  -0.000082
     2  C   -0.110514   0.010811  -0.002222  -0.018086  -0.000266   0.007717
     3  C    0.309952  -0.024397  -0.001034   0.002453   0.003574  -0.013528
     4  O   -0.081520   0.002686  -0.000036   0.000008  -0.000075   0.006272
     5  C    0.000985  -0.002041   0.000108   0.000385   0.000033  -0.000253
     6  H    0.002290  -0.000079  -0.000003  -0.000010   0.000001  -0.000123
     7  H    0.001134  -0.003807  -0.002210   0.038154   0.000310  -0.000308
     8  H    0.001672  -0.000028   0.000073   0.000002  -0.000075  -0.000034
     9  H   -0.000055   0.000036   0.000000  -0.000004  -0.000001   0.000006
    10  H    0.000017   0.000003  -0.000004  -0.000004   0.000003  -0.000025
    11  H    0.000089  -0.000027   0.000043   0.000006   0.000000  -0.000002
    12  H   -0.000083   0.000000  -0.000001  -0.000006  -0.000000   0.000004
    13  N    7.092515   0.243066  -0.054037  -0.002139  -0.044102   0.290410
    14  C    0.243066   5.098783   0.321148  -0.074732   0.327274  -0.026794
    15  C   -0.054037   0.321148   4.443455   0.510710  -0.034071   0.000025
    16  O   -0.002139  -0.074732   0.510710   8.137864   0.002849  -0.000115
    17  C   -0.044102   0.327274  -0.034071   0.002849   5.162520  -0.005681
    18  H    0.290410  -0.026794   0.000025  -0.000115  -0.005681   0.376906
    19  H   -0.043515   0.369983  -0.045861   0.002513  -0.031584   0.003719
    20  H    0.000506  -0.022624   0.003495  -0.000065   0.369911   0.000349
    21  H    0.003757  -0.031360   0.001299   0.000032   0.376807   0.000017
    22  H   -0.006053  -0.027387  -0.008993  -0.000042   0.365429   0.004781
    23  N    0.002189  -0.098467   0.273434  -0.096154   0.001076   0.000402
    24  C   -0.000186   0.005778  -0.020365   0.002563  -0.000204   0.000004
    25  C    0.000035  -0.000235  -0.001092  -0.000479   0.000008  -0.000001
    26  O    0.000000   0.000000   0.000005  -0.000002  -0.000000  -0.000000
    27  C   -0.000002  -0.000176   0.003258   0.000499  -0.000043   0.000000
    28  H    0.000226  -0.003063  -0.021463   0.002779   0.005449   0.000061
    29  H   -0.000018   0.000759  -0.001250   0.009148  -0.000060   0.000001
    30  H    0.000000  -0.000034   0.000256  -0.000001   0.000014  -0.000000
    31  H   -0.000000   0.000004  -0.000113  -0.000011  -0.000013   0.000000
    32  H    0.000000   0.000003  -0.000056  -0.000001   0.000000  -0.000000
    33  N   -0.000002  -0.000018   0.000728  -0.000270   0.000000  -0.000001
    34  C   -0.000011  -0.000002   0.000548  -0.002837  -0.000001   0.000002
    35  C   -0.000200  -0.000137  -0.000200   0.010730   0.000002   0.000001
    36  O    0.000006  -0.000004  -0.000341  -0.001647  -0.000000  -0.000000
    37  C   -0.000000   0.000001   0.000052   0.000248  -0.000000   0.000000
    38  O   -0.000950  -0.001315   0.006622  -0.003214   0.000004   0.000059
    39  H    0.000665   0.000016  -0.000001  -0.000347  -0.000004   0.000063
    40  H    0.000000  -0.000002  -0.000045   0.000002   0.000000  -0.000000
    41  H   -0.000002   0.000093  -0.000644   0.008919  -0.000001   0.000000
    42  H    0.000000  -0.000000  -0.000000  -0.000001   0.000000  -0.000000
    43  H    0.000000   0.000000   0.000001   0.000002  -0.000000  -0.000000
    44  H   -0.000000  -0.000000  -0.000000  -0.000001   0.000000   0.000000
              19         20         21         22         23         24
     1  N    0.000043   0.000000  -0.000000   0.000000   0.000001  -0.000000
     2  C    0.000915  -0.000007   0.000015  -0.000003  -0.000232   0.000006
     3  C   -0.006460  -0.000087  -0.000067  -0.000175  -0.000004  -0.000007
     4  O    0.000035  -0.000006   0.000000  -0.000003  -0.000001   0.000000
     5  C    0.001045   0.000014  -0.000002  -0.000002  -0.000001  -0.000000
     6  H   -0.000008   0.000000  -0.000000   0.000000  -0.000000   0.000000
     7  H    0.001502  -0.000013   0.000000  -0.000001   0.000701  -0.000017
     8  H    0.003350   0.000053  -0.000001   0.000000  -0.000000   0.000000
     9  H   -0.000099   0.000000   0.000000  -0.000000  -0.000000   0.000000
    10  H   -0.000023  -0.000001  -0.000000   0.000000   0.000000  -0.000000
    11  H    0.000004  -0.000000  -0.000000   0.000000   0.000001  -0.000000
    12  H   -0.000002   0.000000   0.000000  -0.000000   0.000000   0.000000
    13  N   -0.043515   0.000506   0.003757  -0.006053   0.002189  -0.000186
    14  C    0.369983  -0.022624  -0.031360  -0.027387  -0.098467   0.005778
    15  C   -0.045861   0.003495   0.001299  -0.008993   0.273434  -0.020365
    16  O    0.002513  -0.000065   0.000032  -0.000042  -0.096154   0.002563
    17  C   -0.031584   0.369911   0.376807   0.365429   0.001076  -0.000204
    18  H    0.003719   0.000349   0.000017   0.004781   0.000402   0.000004
    19  H    0.551104  -0.006051  -0.002871   0.004914   0.004325  -0.000141
    20  H   -0.006051   0.499440  -0.019456  -0.027380   0.000084   0.000002
    21  H   -0.002871  -0.019456   0.502471  -0.028242   0.000267  -0.000098
    22  H    0.004914  -0.027380  -0.028242   0.552312   0.001001   0.000044
    23  N    0.004325   0.000084   0.000267   0.001001   7.123682   0.239878
    24  C   -0.000141   0.000002  -0.000098   0.000044   0.239878   5.115611
    25  C   -0.000001   0.000000   0.000003  -0.000008  -0.050342   0.299186
    26  O    0.000000  -0.000000  -0.000000  -0.000000  -0.001572  -0.084783
    27  C    0.000007  -0.000000   0.000027   0.000001  -0.049266   0.360369
    28  H    0.000218  -0.000162  -0.000064   0.006424   0.296922  -0.026789
    29  H    0.000000   0.000000  -0.000006  -0.000000  -0.048420   0.363600
    30  H   -0.000001   0.000000   0.000061  -0.000003  -0.000559  -0.032442
    31  H    0.000000  -0.000000  -0.000000  -0.000007  -0.004980  -0.028168
    32  H   -0.000000   0.000000  -0.000000  -0.000000   0.003903  -0.027511
    33  N    0.000000   0.000000  -0.000000  -0.000000   0.002754  -0.112814
    34  C   -0.000001   0.000000  -0.000000   0.000000  -0.000304   0.001718
    35  C   -0.000017   0.000000   0.000000  -0.000000  -0.000247  -0.000421
    36  O    0.000001  -0.000000  -0.000000   0.000000   0.000020  -0.000005
    37  C   -0.000000   0.000000  -0.000000   0.000000  -0.000020  -0.000157
    38  O   -0.000002   0.000000   0.000000  -0.000001  -0.000745  -0.000282
    39  H    0.000013  -0.000000  -0.000000   0.000004   0.002677  -0.000595
    40  H   -0.000000   0.000000   0.000000  -0.000000  -0.000217   0.007515
    41  H   -0.000001   0.000000  -0.000000   0.000000  -0.001102   0.003027
    42  H    0.000000  -0.000000   0.000000  -0.000000   0.000000  -0.000012
    43  H   -0.000000  -0.000000  -0.000000   0.000000  -0.000000   0.000012
    44  H    0.000000  -0.000000  -0.000000  -0.000000   0.000000   0.000028
              25         26         27         28         29         30
     1  N    0.000000   0.000000   0.000000  -0.000000   0.000000  -0.000000
     2  C   -0.000000  -0.000000   0.000000   0.000007   0.000004   0.000000
     3  C    0.000003   0.000000  -0.000000  -0.000020  -0.000002  -0.000000
     4  O   -0.000000  -0.000000   0.000000  -0.000000   0.000000  -0.000000
     5  C    0.000000   0.000000  -0.000000  -0.000000  -0.000000   0.000000
     6  H   -0.000000  -0.000000   0.000000   0.000000   0.000000  -0.000000
     7  H    0.000004   0.000000  -0.000000  -0.000023  -0.000021  -0.000000
     8  H   -0.000000   0.000000   0.000000  -0.000000  -0.000000   0.000000
     9  H   -0.000000   0.000000   0.000000  -0.000000   0.000000  -0.000000
    10  H   -0.000000  -0.000000   0.000000   0.000000   0.000000   0.000000
    11  H   -0.000001  -0.000000  -0.000000   0.000000  -0.000000   0.000000
    12  H   -0.000000  -0.000000   0.000000  -0.000000   0.000000  -0.000000
    13  N    0.000035   0.000000  -0.000002   0.000226  -0.000018   0.000000
    14  C   -0.000235   0.000000  -0.000176  -0.003063   0.000759  -0.000034
    15  C   -0.001092   0.000005   0.003258  -0.021463  -0.001250   0.000256
    16  O   -0.000479  -0.000002   0.000499   0.002779   0.009148  -0.000001
    17  C    0.000008  -0.000000  -0.000043   0.005449  -0.000060   0.000014
    18  H   -0.000001  -0.000000   0.000000   0.000061   0.000001  -0.000000
    19  H   -0.000001   0.000000   0.000007   0.000218   0.000000  -0.000001
    20  H    0.000000  -0.000000  -0.000000  -0.000162   0.000000   0.000000
    21  H    0.000003  -0.000000   0.000027  -0.000064  -0.000006   0.000061
    22  H   -0.000008  -0.000000   0.000001   0.006424  -0.000000  -0.000003
    23  N   -0.050342  -0.001572  -0.049266   0.296922  -0.048420  -0.000559
    24  C    0.299186  -0.084783   0.360369  -0.026789   0.363600  -0.032442
    25  C    4.407187   0.592955  -0.038440  -0.000103  -0.032265   0.005134
    26  O    0.592955   8.012467  -0.000256   0.001004   0.002698   0.000485
    27  C   -0.038440  -0.000256   5.096823  -0.000814  -0.032734   0.366593
    28  H   -0.000103   0.001004  -0.000814   0.375583   0.004654   0.000115
    29  H   -0.032265   0.002698  -0.032734   0.004654   0.532717  -0.003389
    30  H    0.005134   0.000485   0.366593   0.000115  -0.003389   0.545901
    31  H   -0.008030   0.009050   0.372043   0.004589   0.004336  -0.027969
    32  H   -0.000989   0.000076   0.376446  -0.000129  -0.002587  -0.023272
    33  N    0.250435  -0.093491   0.004011  -0.000121   0.000693  -0.000069
    34  C   -0.015096   0.002560   0.000020   0.000001  -0.000232  -0.000006
    35  C   -0.000207  -0.000055  -0.000004  -0.000003  -0.000212  -0.000000
    36  O    0.000006   0.000000  -0.000000   0.000000  -0.000016  -0.000000
    37  C    0.001315  -0.000084   0.000004   0.000000   0.000091   0.000000
    38  O    0.001411   0.000015  -0.000002  -0.000001   0.000058   0.000000
    39  H    0.000988  -0.000585   0.000034   0.000028   0.000047   0.000000
    40  H   -0.009342   0.010579  -0.000170  -0.000003  -0.000337   0.000002
    41  H   -0.002275   0.000067   0.000031  -0.000003   0.005920   0.000014
    42  H   -0.000052   0.000002   0.000000  -0.000000  -0.000001   0.000000
    43  H   -0.000059   0.000000  -0.000000  -0.000000  -0.000002  -0.000000
    44  H    0.000169  -0.000025  -0.000002   0.000000   0.000025  -0.000000
              31         32         33         34         35         36
     1  N   -0.000000  -0.000000   0.000003  -0.000197   0.002089  -0.048117
     2  C   -0.000000   0.000000  -0.000001   0.000037   0.000840   0.001136
     3  C    0.000000   0.000000  -0.000002   0.000015  -0.000067  -0.000377
     4  O   -0.000000   0.000000   0.000000  -0.000004   0.000055  -0.000003
     5  C    0.000000   0.000000   0.000000  -0.000000   0.000035   0.000013
     6  H    0.000000  -0.000000  -0.000000   0.000004  -0.000081   0.000416
     7  H    0.000000  -0.000000  -0.000000  -0.000071   0.000707   0.002583
     8  H    0.000000  -0.000000  -0.000000   0.000000   0.000001   0.000001
     9  H    0.000000   0.000000  -0.000000   0.000000   0.000001   0.000001
    10  H   -0.000000  -0.000000  -0.000000  -0.000000  -0.000000  -0.000000
    11  H    0.000000  -0.000000  -0.000056   0.001853  -0.004031   0.101213
    12  H    0.000000  -0.000000  -0.000000   0.000003   0.000058   0.000646
    13  N   -0.000000   0.000000  -0.000002  -0.000011  -0.000200   0.000006
    14  C    0.000004   0.000003  -0.000018  -0.000002  -0.000137  -0.000004
    15  C   -0.000113  -0.000056   0.000728   0.000548  -0.000200  -0.000341
    16  O   -0.000011  -0.000001  -0.000270  -0.002837   0.010730  -0.001647
    17  C   -0.000013   0.000000   0.000000  -0.000001   0.000002  -0.000000
    18  H    0.000000  -0.000000  -0.000001   0.000002   0.000001  -0.000000
    19  H    0.000000  -0.000000   0.000000  -0.000001  -0.000017   0.000001
    20  H   -0.000000   0.000000   0.000000   0.000000   0.000000  -0.000000
    21  H   -0.000000  -0.000000  -0.000000  -0.000000   0.000000  -0.000000
    22  H   -0.000007  -0.000000  -0.000000   0.000000  -0.000000   0.000000
    23  N   -0.004980   0.003903   0.002754  -0.000304  -0.000247   0.000020
    24  C   -0.028168  -0.027511  -0.112814   0.001718  -0.000421  -0.000005
    25  C   -0.008030  -0.000989   0.250435  -0.015096  -0.000207   0.000006
    26  O    0.009050   0.000076  -0.093491   0.002560  -0.000055   0.000000
    27  C    0.372043   0.376446   0.004011   0.000020  -0.000004  -0.000000
    28  H    0.004589  -0.000129  -0.000121   0.000001  -0.000003   0.000000
    29  H    0.004336  -0.002587   0.000693  -0.000232  -0.000212  -0.000016
    30  H   -0.027969  -0.023272  -0.000069  -0.000006  -0.000000  -0.000000
    31  H    0.515760  -0.022778   0.000241  -0.000009   0.000000  -0.000000
    32  H   -0.022778   0.507233   0.000003   0.000001   0.000000  -0.000000
    33  N    0.000241   0.000003   7.269250   0.179674  -0.047473   0.001948
    34  C   -0.000009   0.000001   0.179674   5.146224   0.314090  -0.066963
    35  C    0.000000   0.000000  -0.047473   0.314090   4.385099   0.469817
    36  O   -0.000000  -0.000000   0.001948  -0.066963   0.469817   8.114921
    37  C    0.000000   0.000001  -0.045701   0.345668  -0.040736  -0.000790
    38  O    0.000000   0.000000  -0.020214  -0.082084   0.305917  -0.072314
    39  H   -0.000002  -0.000001   0.050585  -0.009322  -0.025963   0.004265
    40  H   -0.000013  -0.000001   0.277439  -0.025860  -0.000194  -0.000026
    41  H   -0.000001   0.000001  -0.039968   0.368924  -0.039481  -0.000036
    42  H   -0.000000  -0.000000  -0.005053  -0.032730  -0.005639   0.000117
    43  H   -0.000000  -0.000000   0.003876  -0.029700  -0.001885   0.006144
    44  H    0.000000   0.000000   0.000384  -0.030225   0.004270   0.000093
              37         38         39         40         41         42
     1  N    0.000001   0.001152  -0.000005  -0.000000   0.000008   0.000000
     2  C    0.000002   0.000781   0.000037  -0.000000   0.000000  -0.000000
     3  C   -0.000000   0.006708  -0.000121   0.000000  -0.000003   0.000000
     4  O    0.000000  -0.001388   0.000049  -0.000000   0.000000  -0.000000
     5  C    0.000000   0.000038  -0.000000  -0.000000  -0.000000  -0.000000
     6  H   -0.000000   0.000237  -0.000007  -0.000000  -0.000000  -0.000000
     7  H   -0.000002  -0.000845  -0.000013   0.000000  -0.000025   0.000000
     8  H   -0.000000   0.000000  -0.000000   0.000000  -0.000000  -0.000000
     9  H    0.000000  -0.000000  -0.000000  -0.000000  -0.000000  -0.000000
    10  H    0.000000  -0.000000   0.000000   0.000000   0.000000  -0.000000
    11  H   -0.000031  -0.002388   0.000016   0.000000  -0.000088  -0.000008
    12  H   -0.000000   0.000028   0.000000  -0.000000  -0.000000  -0.000000
    13  N   -0.000000  -0.000950   0.000665   0.000000  -0.000002   0.000000
    14  C    0.000001  -0.001315   0.000016  -0.000002   0.000093  -0.000000
    15  C    0.000052   0.006622  -0.000001  -0.000045  -0.000644  -0.000000
    16  O    0.000248  -0.003214  -0.000347   0.000002   0.008919  -0.000001
    17  C   -0.000000   0.000004  -0.000004   0.000000  -0.000001   0.000000
    18  H    0.000000   0.000059   0.000063  -0.000000   0.000000  -0.000000
    19  H   -0.000000  -0.000002   0.000013  -0.000000  -0.000001   0.000000
    20  H    0.000000   0.000000  -0.000000   0.000000   0.000000  -0.000000
    21  H   -0.000000   0.000000  -0.000000   0.000000  -0.000000   0.000000
    22  H    0.000000  -0.000001   0.000004  -0.000000   0.000000  -0.000000
    23  N   -0.000020  -0.000745   0.002677  -0.000217  -0.001102   0.000000
    24  C   -0.000157  -0.000282  -0.000595   0.007515   0.003027  -0.000012
    25  C    0.001315   0.001411   0.000988  -0.009342  -0.002275  -0.000052
    26  O   -0.000084   0.000015  -0.000585   0.010579   0.000067   0.000002
    27  C    0.000004  -0.000002   0.000034  -0.000170   0.000031   0.000000
    28  H    0.000000  -0.000001   0.000028  -0.000003  -0.000003  -0.000000
    29  H    0.000091   0.000058   0.000047  -0.000337   0.005920  -0.000001
    30  H    0.000000   0.000000   0.000000   0.000002   0.000014   0.000000
    31  H    0.000000   0.000000  -0.000002  -0.000013  -0.000001  -0.000000
    32  H    0.000001   0.000000  -0.000001  -0.000001   0.000001  -0.000000
    33  N   -0.045701  -0.020214   0.050585   0.277439  -0.039968  -0.005053
    34  C    0.345668  -0.082084  -0.009322  -0.025860   0.368924  -0.032730
    35  C   -0.040736   0.305917  -0.025963  -0.000194  -0.039481  -0.005639
    36  O   -0.000790  -0.072314   0.004265  -0.000026  -0.000036   0.000117
    37  C    5.107743   0.000838   0.000894  -0.003312  -0.022034   0.376209
    38  O    0.000838   8.223271   0.214781   0.000350   0.001100   0.000404
    39  H    0.000894   0.214781   0.317452  -0.000330   0.001090   0.000080
    40  H   -0.003312   0.000350  -0.000330   0.376490   0.003558   0.004445
    41  H   -0.022034   0.001100   0.001090   0.003558   0.489243   0.004194
    42  H    0.376209   0.000404   0.000080   0.004445   0.004194   0.539026
    43  H    0.371998   0.000192  -0.000096   0.000010  -0.002131  -0.023802
    44  H    0.375062  -0.000058  -0.000036   0.000263  -0.005263  -0.028658
              43         44
     1  N    0.000002  -0.000000
     2  C   -0.000000  -0.000000
     3  C    0.000000   0.000000
     4  O    0.000000  -0.000000
     5  C   -0.000000  -0.000000
     6  H   -0.000000  -0.000000
     7  H   -0.000000  -0.000000
     8  H   -0.000000   0.000000
     9  H   -0.000000   0.000000
    10  H    0.000000   0.000000
    11  H   -0.000027   0.000001
    12  H   -0.000000   0.000000
    13  N    0.000000  -0.000000
    14  C    0.000000  -0.000000
    15  C    0.000001  -0.000000
    16  O    0.000002  -0.000001
    17  C   -0.000000   0.000000
    18  H   -0.000000   0.000000
    19  H   -0.000000   0.000000
    20  H   -0.000000  -0.000000
    21  H   -0.000000  -0.000000
    22  H    0.000000  -0.000000
    23  N   -0.000000   0.000000
    24  C    0.000012   0.000028
    25  C   -0.000059   0.000169
    26  O    0.000000  -0.000025
    27  C   -0.000000  -0.000002
    28  H   -0.000000   0.000000
    29  H   -0.000002   0.000025
    30  H   -0.000000  -0.000000
    31  H   -0.000000   0.000000
    32  H   -0.000000   0.000000
    33  N    0.003876   0.000384
    34  C   -0.029700  -0.030225
    35  C   -0.001885   0.004270
    36  O    0.006144   0.000093
    37  C    0.371998   0.375062
    38  O    0.000192  -0.000058
    39  H   -0.000096  -0.000036
    40  H    0.000010   0.000263
    41  H   -0.002131  -0.005263
    42  H   -0.023802  -0.028658
    43  H    0.490167  -0.020699
    44  H   -0.020699   0.514484
 Mulliken charges:
               1
     1  N   -0.772339
     2  C   -0.122356
     3  C    0.655330
     4  O   -0.508734
     5  C   -0.478824
     6  H    0.415203
     7  H    0.245154
     8  H    0.198553
     9  H    0.190759
    10  H    0.196983
    11  H    0.447184
    12  H    0.400098
    13  N   -0.607555
    14  C   -0.063661
    15  C    0.628699
    16  O   -0.529824
    17  C   -0.499081
    18  H    0.356148
    19  H    0.192949
    20  H    0.201997
    21  H    0.197410
    22  H    0.163391
    23  N   -0.600684
    24  C   -0.064344
    25  C    0.600178
    26  O   -0.451112
    27  C   -0.458258
    28  H    0.354700
    29  H    0.196802
    30  H    0.169166
    31  H    0.186069
    32  H    0.189658
    33  N   -0.676772
    34  C   -0.065686
    35  C    0.673542
    36  O   -0.512706
    37  C   -0.467257
    38  O   -0.578164
    39  H    0.443645
    40  H    0.359200
    41  H    0.226872
    42  H    0.171481
    43  H    0.205998
    44  H    0.190189
 Sum of Mulliken charges =   1.00000
 Mulliken charges with hydrogens summed into heavy atoms:
               1
     1  N    0.490146
     2  C    0.122798
     3  C    0.655330
     4  O   -0.508734
     5  C    0.107471
    13  N   -0.251408
    14  C    0.129287
    15  C    0.628699
    16  O   -0.529824
    17  C    0.063717
    23  N   -0.245984
    24  C    0.132457
    25  C    0.600178
    26  O   -0.451112
    27  C    0.086636
    33  N   -0.317572
    34  C    0.161186
    35  C    0.673542
    36  O   -0.512706
    37  C    0.100411
    38  O   -0.134519
 Electronic spatial extent (au):  <R**2>=          23680.4521
 Charge=              1.0000 electrons
 Dipole moment (field-independent basis, Debye):
    X=             -2.5905    Y=            -25.3623    Z=             -5.3827  Tot=             26.0563
 Quadrupole moment (field-independent basis, Debye-Ang):
   XX=            -88.6530   YY=             10.2020   ZZ=            -80.0755
   XY=             20.3362   XZ=              3.0748   YZ=             30.1569
 Traceless Quadrupole moment (field-independent basis, Debye-Ang):
   XX=            -35.8108   YY=             63.0442   ZZ=            -27.2333
   XY=             20.3362   XZ=              3.0748   YZ=             30.1569
 Octapole moment (field-independent basis, Debye-Ang**2):
  XXX=           -118.7835  YYY=           1327.7952  ZZZ=             41.0350  XYY=           -170.2145
  XXY=            507.3409  XXZ=            -13.9798  XZZ=           -121.5751  YZZ=            444.5010
  YYZ=            -83.4127  XYZ=              5.0230
 Hexadecapole moment (field-independent basis, Debye-Ang**3):
 XXXX=          -3448.7804 YYYY=         -19490.3476 ZZZZ=          -2520.7325 XXXY=            350.4532
 XXXZ=           -455.8633 YYYX=           1018.0731 YYYZ=           -677.0852 ZZZX=            -60.4405
 ZZZY=           -333.9545 XXYY=          -3639.5175 XXZZ=          -1070.1778 YYZZ=          -3174.3031
 XXYZ=             33.0753 YYXZ=           -281.8400 ZZXY=            564.0977
 N-N= 1.961696254881D+03 E-N=-6.388844869720D+03  KE= 1.056342126334D+03
 Unable to Open any file for archive entry.
 1\1\GINC-QML-000\SP\RB3LYP\6-31G(d)\C12H23N4O5(1+)\KENGMITH\04-Jun-202
 2\0\\# B3LYP/6-31G* empiricaldispersion=gd3 guess=read geom=check nosy
 mm integral(ultrafinegrid)\\Candidate Structure: Conf:472 Charge calc 
 in gas phase\\1,1\N,0,-1.1296580887,-5.8451146175,-3.7795163902\C,0,-1
 .896441194,-5.5947101196,-2.5049602428\C,0,-1.6707727788,-6.8830668093
 ,-1.6849319158\O,0,-1.4925025854,-7.935973481,-2.2915977319\C,0,-3.386
 049186,-5.4057412964,-2.7994266878\H,0,-1.1287524776,-6.8749942824,-3.
 9102004111\H,0,-1.4533328332,-4.7204211683,-2.0275559795\H,0,-3.935184
 4254,-5.2548827799,-1.8655940323\H,0,-3.5526818168,-4.5238874115,-3.42
 7079415\H,0,-3.8015869361,-6.289690937,-3.2943914278\H,0,-0.1350764837
 ,-5.5063975554,-3.6658283652\H,0,-1.5509554707,-5.3832396235,-4.589051
 0861\N,0,-1.7408683166,-6.8169081328,-0.3337820246\C,0,-1.8334171511,-
 5.6358105097,0.5362295004\C,0,-0.479336063,-4.8838397241,0.5537863399\
 O,0,-0.2142110394,-4.0951933115,-0.3568812294\C,0,-2.3813809245,-6.056
 5744822,1.9006284007\H,0,-1.6133586236,-7.7172206002,0.1172267477\H,0,
 -2.5293331024,-4.9228701987,0.0850898891\H,0,-3.3925348329,-6.45782861
 98,1.7903800077\H,0,-2.4227593077,-5.1998296705,2.5787912876\H,0,-1.76
 73194291,-6.8378723604,2.3668459076\N,0,0.3881764794,-5.1588208363,1.5
 552481977\C,0,1.658772937,-4.4374975563,1.7333533428\C,0,2.8166973108,
 -5.3659805832,1.3055868612\O,0,3.4267248189,-6.0282007155,2.1219460432
 \C,0,1.8316864566,-4.0073930102,3.1881983764\H,0,0.1151055626,-5.78074
 43197,2.3051515057\H,0,1.5982428504,-3.5600966807,1.0875328331\H,0,0.9
 957035426,-3.3708586677,3.491444017\H,0,1.893191321,-4.8787388307,3.84
 61782072\H,0,2.7619665846,-3.4451387737,3.3061900473\N,0,3.0902142931,
 -5.5174591717,-0.0560687849\C,0,2.7599212602,-4.6246550323,-1.17392428
 23\C,0,1.7071227012,-5.2772081034,-2.0780686117\O,0,1.2949324676,-4.75
 36149343,-3.1015320122\C,0,4.0030403675,-4.2334225132,-1.9825317482\O,
 0,1.2412851547,-6.4650581913,-1.6923373858\H,0,1.7005482041,-6.6932702
 659,-0.8516363369\H,0,3.9342559136,-6.0721352817,-0.1830680125\H,0,2.2
 70104154,-3.7244811131,-0.798610706\H,0,4.5184756156,-5.1207892419,-2.
 3672303254\H,0,3.7099505382,-3.6135283845,-2.8328010123\H,0,4.69639642
 28,-3.671118141,-1.3517429448\\Version=ES64L-G16RevC.01\HF=-1066.17003
 75\RMSD=8.400e-09\Dipole=-1.6915592,0.3589511,-1.0848791\Quadrupole=-2
 6.624463,46.8717861,-20.2473231,15.1194516,2.2860427,22.4209117\PG=C01
  [X(C12H23N4O5)]\\@
 The archive entry for this job was punched.


 MYSTERY IS THE WISDOM OF BLOCKHEADS... HORACE WALPOLE 
 Job cpu time:       0 days  0 hours  1 minutes  5.6 seconds.
 Elapsed time:       0 days  0 hours  0 minutes 17.0 seconds.
 File lengths (MBytes):  RWF=    184 Int=      0 D2E=      0 Chk=     24 Scr=     16
 Normal termination of Gaussian 16 at Sat Jun  4 17:08:28 2022.
