 Entering Gaussian System, Link 0=/opt/software/Gaussian/g16-AVX2-C.01/g16/g16
 Input=charge-conf-879.com
 Output=charge-conf-879.log
 Initial command:
 /opt/software/Gaussian/g16-AVX2-C.01/g16/l1.exe "/mnt/gs18/scratch/users/kengmith/Gau-32636.inp" -scrdir="/mnt/gs18/scratch/users/kengmith/"
 Entering Link 1 = /opt/software/Gaussian/g16-AVX2-C.01/g16/l1.exe PID=     32646.
  
 Copyright (c) 1988-2019, Gaussian, Inc.  All Rights Reserved.
  
 This is part of the Gaussian(R) 16 program.  It is based on
 the Gaussian(R) 09 system (copyright 2009, Gaussian, Inc.),
 the Gaussian(R) 03 system (copyright 2003, Gaussian, Inc.),
 the Gaussian(R) 98 system (copyright 1998, Gaussian, Inc.),
 the Gaussian(R) 94 system (copyright 1995, Gaussian, Inc.),
 the Gaussian 92(TM) system (copyright 1992, Gaussian, Inc.),
 the Gaussian 90(TM) system (copyright 1990, Gaussian, Inc.),
 the Gaussian 88(TM) system (copyright 1988, Gaussian, Inc.),
 the Gaussian 86(TM) system (copyright 1986, Carnegie Mellon
 University), and the Gaussian 82(TM) system (copyright 1983,
 Carnegie Mellon University). Gaussian is a federally registered
 trademark of Gaussian, Inc.
  
 This software contains proprietary and confidential information,
 including trade secrets, belonging to Gaussian, Inc.
  
 This software is provided under written license and may be
 used, copied, transmitted, or stored only in accord with that
 written license.
  
 The following legend is applicable only to US Government
 contracts under FAR:
  
                    RESTRICTED RIGHTS LEGEND
  
 Use, reproduction and disclosure by the US Government is
 subject to restrictions as set forth in subparagraphs (a)
 and (c) of the Commercial Computer Software - Restricted
 Rights clause in FAR 52.227-19.
  
 Gaussian, Inc.
 340 Quinnipiac St., Bldg. 40, Wallingford CT 06492
  
  
 ---------------------------------------------------------------
 Warning -- This program may not be used in any manner that
 competes with the business of Gaussian, Inc. or will provide
 assistance to any competitor of Gaussian, Inc.  The licensee
 of this program is prohibited from giving any competitor of
 Gaussian, Inc. access to this program.  By using this program,
 the user acknowledges that Gaussian, Inc. is engaged in the
 business of creating and licensing software in the field of
 computational chemistry and represents and warrants to the
 licensee that it is not a competitor of Gaussian, Inc. and that
 it will not use this program in any manner prohibited above.
 ---------------------------------------------------------------
  

 Cite this work as:
 Gaussian 16, Revision C.01,
 M. J. Frisch, G. W. Trucks, H. B. Schlegel, G. E. Scuseria, 
 M. A. Robb, J. R. Cheeseman, G. Scalmani, V. Barone, 
 G. A. Petersson, H. Nakatsuji, X. Li, M. Caricato, A. V. Marenich, 
 J. Bloino, B. G. Janesko, R. Gomperts, B. Mennucci, H. P. Hratchian, 
 J. V. Ortiz, A. F. Izmaylov, J. L. Sonnenberg, D. Williams-Young, 
 F. Ding, F. Lipparini, F. Egidi, J. Goings, B. Peng, A. Petrone, 
 T. Henderson, D. Ranasinghe, V. G. Zakrzewski, J. Gao, N. Rega, 
 G. Zheng, W. Liang, M. Hada, M. Ehara, K. Toyota, R. Fukuda, 
 J. Hasegawa, M. Ishida, T. Nakajima, Y. Honda, O. Kitao, H. Nakai, 
 T. Vreven, K. Throssell, J. A. Montgomery, Jr., J. E. Peralta, 
 F. Ogliaro, M. J. Bearpark, J. J. Heyd, E. N. Brothers, K. N. Kudin, 
 V. N. Staroverov, T. A. Keith, R. Kobayashi, J. Normand, 
 K. Raghavachari, A. P. Rendell, J. C. Burant, S. S. Iyengar, 
 J. Tomasi, M. Cossi, J. M. Millam, M. Klene, C. Adamo, R. Cammi, 
 J. W. Ochterski, R. L. Martin, K. Morokuma, O. Farkas, 
 J. B. Foresman, and D. J. Fox, Gaussian, Inc., Wallingford CT, 2019.
 
 ******************************************
 Gaussian 16:  ES64L-G16RevC.01  3-Jul-2019
                 4-Jun-2022 
 ******************************************
 %mem=8gb
 %nproc=4
 Will use up to    4 processors via shared memory.
 %chk=conf-879.chk
 ----------------------------------------------------------------------
 # B3LYP/6-31G* empiricaldispersion=gd3 guess=read geom=check nosymm in
 tegral(ultrafinegrid)
 ----------------------------------------------------------------------
 1/29=2,38=1,172=1/1;
 2/12=2,15=1,40=1/2;
 3/5=1,6=6,7=1,11=2,14=-4,25=1,30=1,74=-5,75=-5,116=-2,124=31/1,2,3;
 4/5=1/1;
 5/5=2,38=6/2;
 6/7=2,8=2,9=2,10=2,28=1/1;
 99/5=1,9=1/99;
 ------------------------------------------------------
 Candidate Structure: Conf:879 Charge calc in gas phase
 ------------------------------------------------------
 Structure from the checkpoint file:  "conf-879.chk"
 Charge =  1 Multiplicity = 1
 Redundant internal coordinates found in file.  (old form).
 N,0,-0.1829703849,-2.1088646786,1.2054217579
 C,0,-0.5911449112,-3.4290770724,1.8100635123
 C,0,-1.7028072625,-3.9341967075,0.8654781032
 O,0,-2.3881988136,-3.1031548379,0.2755421938
 C,0,-1.1438540305,-3.2278599241,3.2226384362
 H,0,0.1333909346,-1.4358109403,1.9076174326
 H,0,0.2861370914,-4.076255863,1.795633929
 H,0,-1.463990835,-4.1874156317,3.6386875592
 H,0,-0.3772357309,-2.81803165,3.8887569534
 H,0,-2.0118773068,-2.5604510816,3.2111418511
 H,0,-1.0249523311,-1.7513215403,0.7145661657
 H,0,0.5905833704,-2.2662874158,0.5027808134
 N,0,-1.922532757,-5.2675209695,0.7713737409
 C,0,-1.132323168,-6.3809706476,1.3156024774
 C,0,0.1912186377,-6.5274011587,0.5242710192
 O,0,1.1511205522,-5.8088082761,0.8136765848
 C,0,-2.0084306972,-7.6324378354,1.3885298328
 H,0,-2.6929560804,-5.502703056,0.1538351996
 H,0,-0.8111685493,-6.1198933795,2.3279393141
 H,0,-2.8452197008,-7.4643475306,2.0719968962
 H,0,-1.4303210898,-8.4851972353,1.7549028454
 H,0,-2.4313954252,-7.8954996068,0.4103585943
 N,0,0.2277154848,-7.4166665667,-0.4950130612
 C,0,1.4541975798,-7.7155162143,-1.2519551046
 C,0,1.3447213793,-7.0597420514,-2.6461176635
 O,0,0.9580115267,-7.691104236,-3.6099321587
 C,0,1.6463027357,-9.2242219675,-1.3874984526
 H,0,-0.5674949408,-8.0167697864,-0.6716729593
 H,0,2.2742852977,-7.2832354509,-0.6764447636
 H,0,1.6984977245,-9.6846600115,-0.3969064106
 H,0,0.8292770339,-9.6697337658,-1.9619138413
 H,0,2.574737599,-9.4385192368,-1.9237310071
 N,0,1.5978203499,-5.6911850681,-2.7680929399
 C,0,2.3756618246,-4.8089715249,-1.8891516893
 C,0,1.446645275,-3.8132064957,-1.1839712534
 O,0,1.8555266472,-2.9428480567,-0.4310671111
 C,0,3.4839198396,-4.0719314361,-2.6512491332
 O,0,0.1416815439,-3.9404285791,-1.4239379932
 H,0,0.0378753719,-4.6967035409,-2.0461245626
 H,0,1.5870851529,-5.4203391107,-3.7492828833
 H,0,2.8152949086,-5.3882053278,-1.0752882757
 H,0,4.0044248177,-3.3889797675,-1.9761380011
 H,0,4.2007489341,-4.7915708822,-3.0550991802
 H,0,3.0699914423,-3.4855034842,-3.4794028969
 Recover connectivity data from disk.
                           ----------------------------
                           !    Current Parameters    !
                           ! (Angstroms and Degrees)  !
 --------------------------                            --------------------------
 ! Name  Definition              Value                                          !
 --------------------------------------------------------------------------------
 ! R1    R(1,2)                  1.5084                                         !
 ! R2    R(1,6)                  1.0228                                         !
 ! R3    R(1,11)                 1.0381                                         !
 ! R4    R(1,12)                 1.0568                                         !
 ! R5    R(2,3)                  1.5438                                         !
 ! R6    R(2,5)                  1.5301                                         !
 ! R7    R(2,7)                  1.0903                                         !
 ! R8    R(3,4)                  1.2282                                         !
 ! R9    R(3,13)                 1.3546                                         !
 ! R10   R(5,8)                  1.0938                                         !
 ! R11   R(5,9)                  1.0952                                         !
 ! R12   R(5,10)                 1.095                                          !
 ! R13   R(13,14)                1.4698                                         !
 ! R14   R(13,18)                1.015                                          !
 ! R15   R(14,15)                1.549                                          !
 ! R16   R(14,17)                1.5294                                         !
 ! R17   R(14,19)                1.0937                                         !
 ! R18   R(15,16)                1.2335                                         !
 ! R19   R(15,23)                1.3532                                         !
 ! R20   R(17,20)                1.0934                                         !
 ! R21   R(17,21)                1.0935                                         !
 ! R22   R(17,22)                1.0977                                         !
 ! R23   R(23,24)                1.4719                                         !
 ! R24   R(23,28)                1.0118                                         !
 ! R25   R(24,25)                1.5446                                         !
 ! R26   R(24,27)                1.5269                                         !
 ! R27   R(24,29)                1.0912                                         !
 ! R28   R(25,26)                1.2154                                         !
 ! R29   R(25,33)                1.3971                                         !
 ! R30   R(27,30)                1.0936                                         !
 ! R31   R(27,31)                1.0936                                         !
 ! R32   R(27,32)                1.0934                                         !
 ! R33   R(33,34)                1.4683                                         !
 ! R34   R(33,40)                1.0179                                         !
 ! R35   R(34,35)                1.5336                                         !
 ! R36   R(34,37)                1.5337                                         !
 ! R37   R(34,41)                1.0914                                         !
 ! R38   R(35,36)                1.2213                                         !
 ! R39   R(35,38)                1.3329                                         !
 ! R40   R(37,42)                1.0923                                         !
 ! R41   R(37,43)                1.0931                                         !
 ! R42   R(37,44)                1.0959                                         !
 ! R43   R(38,39)                0.9848                                         !
 ! A1    A(2,1,6)              112.6097                                         !
 ! A2    A(2,1,11)             105.7541                                         !
 ! A3    A(2,1,12)             109.5247                                         !
 ! A4    A(6,1,11)             110.4162                                         !
 ! A5    A(6,1,12)             109.1516                                         !
 ! A6    A(11,1,12)            109.3053                                         !
 ! A7    A(1,2,3)              103.6492                                         !
 ! A8    A(1,2,5)              110.653                                          !
 ! A9    A(1,2,7)              107.2478                                         !
 ! A10   A(3,2,5)              110.3515                                         !
 ! A11   A(3,2,7)              112.1546                                         !
 ! A12   A(5,2,7)              112.3912                                         !
 ! A13   A(2,3,4)              118.3179                                         !
 ! A14   A(2,3,13)             118.7757                                         !
 ! A15   A(4,3,13)             122.8293                                         !
 ! A16   A(2,5,8)              109.969                                          !
 ! A17   A(2,5,9)              110.969                                          !
 ! A18   A(2,5,10)             110.9036                                         !
 ! A19   A(8,5,9)              107.567                                          !
 ! A20   A(8,5,10)             107.8597                                         !
 ! A21   A(9,5,10)             109.4633                                         !
 ! A22   A(3,13,14)            129.2512                                         !
 ! A23   A(3,13,18)            113.1701                                         !
 ! A24   A(14,13,18)           117.2469                                         !
 ! A25   A(13,14,15)           109.9881                                         !
 ! A26   A(13,14,17)           109.2419                                         !
 ! A27   A(13,14,19)           108.6487                                         !
 ! A28   A(15,14,17)           115.8791                                         !
 ! A29   A(15,14,19)           104.1541                                         !
 ! A30   A(17,14,19)           108.6274                                         !
 ! A31   A(14,15,16)           119.34                                           !
 ! A32   A(14,15,23)           118.0332                                         !
 ! A33   A(16,15,23)           122.5872                                         !
 ! A34   A(14,17,20)           110.0234                                         !
 ! A35   A(14,17,21)           110.5649                                         !
 ! A36   A(14,17,22)           111.9835                                         !
 ! A37   A(20,17,21)           108.3645                                         !
 ! A38   A(20,17,22)           107.3955                                         !
 ! A39   A(21,17,22)           108.3851                                         !
 ! A40   A(15,23,24)           122.9066                                         !
 ! A41   A(15,23,28)           120.0069                                         !
 ! A42   A(24,23,28)           116.4033                                         !
 ! A43   A(23,24,25)           108.5974                                         !
 ! A44   A(23,24,27)           110.5545                                         !
 ! A45   A(23,24,29)           105.9373                                         !
 ! A46   A(25,24,27)           110.3831                                         !
 ! A47   A(25,24,29)           111.1702                                         !
 ! A48   A(27,24,29)           110.1028                                         !
 ! A49   A(24,25,26)           121.1847                                         !
 ! A50   A(24,25,33)           118.8067                                         !
 ! A51   A(26,25,33)           119.8202                                         !
 ! A52   A(24,27,30)           109.9744                                         !
 ! A53   A(24,27,31)           110.8029                                         !
 ! A54   A(24,27,32)           110.1225                                         !
 ! A55   A(30,27,31)           109.8713                                         !
 ! A56   A(30,27,32)           108.735                                          !
 ! A57   A(31,27,32)           107.2743                                         !
 ! A58   A(25,33,34)           129.2184                                         !
 ! A59   A(25,33,40)           110.0524                                         !
 ! A60   A(34,33,40)           115.0065                                         !
 ! A61   A(33,34,35)           110.1494                                         !
 ! A62   A(33,34,37)           111.9685                                         !
 ! A63   A(33,34,41)           109.9319                                         !
 ! A64   A(35,34,37)           110.7439                                         !
 ! A65   A(35,34,41)           104.2247                                         !
 ! A66   A(37,34,41)           109.5428                                         !
 ! A67   A(34,35,36)           122.9145                                         !
 ! A68   A(34,35,38)           116.6356                                         !
 ! A69   A(36,35,38)           120.449                                          !
 ! A70   A(34,37,42)           109.736                                          !
 ! A71   A(34,37,43)           109.9425                                         !
 ! A72   A(34,37,44)           111.0824                                         !
 ! A73   A(42,37,43)           109.1163                                         !
 ! A74   A(42,37,44)           108.2077                                         !
 ! A75   A(43,37,44)           108.7104                                         !
 ! A76   A(35,38,39)           106.8719                                         !
 ! D1    D(6,1,2,3)            148.8077                                         !
 ! D2    D(6,1,2,5)             30.5137                                         !
 ! D3    D(6,1,2,7)            -92.3938                                         !
 ! D4    D(11,1,2,3)            28.1364                                         !
 ! D5    D(11,1,2,5)           -90.1577                                         !
 ! D6    D(11,1,2,7)           146.9349                                         !
 ! D7    D(12,1,2,3)           -89.5414                                         !
 ! D8    D(12,1,2,5)           152.1645                                         !
 ! D9    D(12,1,2,7)            29.2571                                         !
 ! D10   D(1,2,3,4)            -29.3428                                         !
 ! D11   D(1,2,3,13)           153.7593                                         !
 ! D12   D(5,2,3,4)             89.1598                                         !
 ! D13   D(5,2,3,13)           -87.7381                                         !
 ! D14   D(7,2,3,4)           -144.7037                                         !
 ! D15   D(7,2,3,13)            38.3984                                         !
 ! D16   D(1,2,5,8)            178.3061                                         !
 ! D17   D(1,2,5,9)            -62.8021                                         !
 ! D18   D(1,2,5,10)            59.0919                                         !
 ! D19   D(3,2,5,8)             64.1772                                         !
 ! D20   D(3,2,5,9)           -176.9309                                         !
 ! D21   D(3,2,5,10)           -55.0369                                         !
 ! D22   D(7,2,5,8)            -61.8262                                         !
 ! D23   D(7,2,5,9)             57.0657                                         !
 ! D24   D(7,2,5,10)           178.9596                                         !
 ! D25   D(2,3,13,14)           -8.9906                                         !
 ! D26   D(2,3,13,18)          177.8994                                         !
 ! D27   D(4,3,13,14)          174.2595                                         !
 ! D28   D(4,3,13,18)            1.1495                                         !
 ! D29   D(3,13,14,15)         -71.8793                                         !
 ! D30   D(3,13,14,17)         159.8852                                         !
 ! D31   D(3,13,14,19)          41.5351                                         !
 ! D32   D(18,13,14,15)        100.9947                                         !
 ! D33   D(18,13,14,17)        -27.2408                                         !
 ! D34   D(18,13,14,19)       -145.5909                                         !
 ! D35   D(13,14,15,16)         82.7376                                         !
 ! D36   D(13,14,15,23)        -95.0333                                         !
 ! D37   D(17,14,15,16)       -152.7751                                         !
 ! D38   D(17,14,15,23)         29.454                                          !
 ! D39   D(19,14,15,16)        -33.535                                          !
 ! D40   D(19,14,15,23)        148.6941                                         !
 ! D41   D(13,14,17,20)        -62.5227                                         !
 ! D42   D(13,14,17,21)        177.8154                                         !
 ! D43   D(13,14,17,22)         56.8355                                         !
 ! D44   D(15,14,17,20)        172.6056                                         !
 ! D45   D(15,14,17,21)         52.9437                                         !
 ! D46   D(15,14,17,22)        -68.0361                                         !
 ! D47   D(19,14,17,20)         55.8408                                         !
 ! D48   D(19,14,17,21)        -63.8211                                         !
 ! D49   D(19,14,17,22)        175.199                                          !
 ! D50   D(14,15,23,24)       -175.2909                                         !
 ! D51   D(14,15,23,28)         -5.1093                                         !
 ! D52   D(16,15,23,24)          7.0153                                         !
 ! D53   D(16,15,23,28)        177.197                                          !
 ! D54   D(15,23,24,25)       -106.4793                                         !
 ! D55   D(15,23,24,27)        132.2795                                         !
 ! D56   D(15,23,24,29)         13.0162                                         !
 ! D57   D(28,23,24,25)         83.0101                                         !
 ! D58   D(28,23,24,27)        -38.231                                          !
 ! D59   D(28,23,24,29)       -157.4943                                         !
 ! D60   D(23,24,25,26)        -95.8774                                         !
 ! D61   D(23,24,25,33)         79.1235                                         !
 ! D62   D(27,24,25,26)         25.469                                          !
 ! D63   D(27,24,25,33)       -159.5301                                         !
 ! D64   D(29,24,25,26)        147.9553                                         !
 ! D65   D(29,24,25,33)        -37.0438                                         !
 ! D66   D(23,24,27,30)        -58.4474                                         !
 ! D67   D(23,24,27,31)         63.2192                                         !
 ! D68   D(23,24,27,32)       -178.2581                                         !
 ! D69   D(25,24,27,30)       -178.6245                                         !
 ! D70   D(25,24,27,31)        -56.958                                          !
 ! D71   D(25,24,27,32)         61.5648                                         !
 ! D72   D(29,24,27,30)         58.2654                                         !
 ! D73   D(29,24,27,31)        179.9319                                         !
 ! D74   D(29,24,27,32)        -61.5453                                         !
 ! D75   D(24,25,33,34)         22.4455                                         !
 ! D76   D(24,25,33,40)        173.9348                                         !
 ! D77   D(26,25,33,34)       -162.4838                                         !
 ! D78   D(26,25,33,40)        -10.9945                                         !
 ! D79   D(25,33,34,35)       -111.6511                                         !
 ! D80   D(25,33,34,37)        124.6495                                         !
 ! D81   D(25,33,34,41)          2.6467                                         !
 ! D82   D(40,33,34,35)         98.0033                                         !
 ! D83   D(40,33,34,37)        -25.696                                          !
 ! D84   D(40,33,34,41)       -147.6989                                         !
 ! D85   D(33,34,35,36)       -177.5842                                         !
 ! D86   D(33,34,35,38)          2.763                                          !
 ! D87   D(37,34,35,36)        -53.1764                                         !
 ! D88   D(37,34,35,38)        127.1708                                         !
 ! D89   D(41,34,35,36)         64.5354                                         !
 ! D90   D(41,34,35,38)       -115.1174                                         !
 ! D91   D(33,34,37,42)        177.0652                                         !
 ! D92   D(33,34,37,43)        -62.9157                                         !
 ! D93   D(33,34,37,44)         57.4559                                         !
 ! D94   D(35,34,37,42)         53.7003                                         !
 ! D95   D(35,34,37,43)        173.7194                                         !
 ! D96   D(35,34,37,44)        -65.909                                          !
 ! D97   D(41,34,37,42)        -60.7095                                         !
 ! D98   D(41,34,37,43)         59.3095                                         !
 ! D99   D(41,34,37,44)        179.6811                                         !
 ! D100  D(34,35,38,39)         -0.0662                                         !
 ! D101  D(36,35,38,39)       -179.7281                                         !
 --------------------------------------------------------------------------------
                          Input orientation:                          
 ---------------------------------------------------------------------
 Center     Atomic      Atomic             Coordinates (Angstroms)
 Number     Number       Type             X           Y           Z
 ---------------------------------------------------------------------
      1          7           0       -0.182970   -2.108865    1.205422
      2          6           0       -0.591145   -3.429077    1.810064
      3          6           0       -1.702807   -3.934197    0.865478
      4          8           0       -2.388199   -3.103155    0.275542
      5          6           0       -1.143854   -3.227860    3.222638
      6          1           0        0.133391   -1.435811    1.907617
      7          1           0        0.286137   -4.076256    1.795634
      8          1           0       -1.463991   -4.187416    3.638688
      9          1           0       -0.377236   -2.818032    3.888757
     10          1           0       -2.011877   -2.560451    3.211142
     11          1           0       -1.024952   -1.751322    0.714566
     12          1           0        0.590583   -2.266287    0.502781
     13          7           0       -1.922533   -5.267521    0.771374
     14          6           0       -1.132323   -6.380971    1.315602
     15          6           0        0.191219   -6.527401    0.524271
     16          8           0        1.151121   -5.808808    0.813677
     17          6           0       -2.008431   -7.632438    1.388530
     18          1           0       -2.692956   -5.502703    0.153835
     19          1           0       -0.811169   -6.119893    2.327939
     20          1           0       -2.845220   -7.464348    2.071997
     21          1           0       -1.430321   -8.485197    1.754903
     22          1           0       -2.431395   -7.895500    0.410359
     23          7           0        0.227715   -7.416667   -0.495013
     24          6           0        1.454198   -7.715516   -1.251955
     25          6           0        1.344721   -7.059742   -2.646118
     26          8           0        0.958012   -7.691104   -3.609932
     27          6           0        1.646303   -9.224222   -1.387498
     28          1           0       -0.567495   -8.016770   -0.671673
     29          1           0        2.274285   -7.283235   -0.676445
     30          1           0        1.698498   -9.684660   -0.396906
     31          1           0        0.829277   -9.669734   -1.961914
     32          1           0        2.574738   -9.438519   -1.923731
     33          7           0        1.597820   -5.691185   -2.768093
     34          6           0        2.375662   -4.808972   -1.889152
     35          6           0        1.446645   -3.813206   -1.183971
     36          8           0        1.855527   -2.942848   -0.431067
     37          6           0        3.483920   -4.071931   -2.651249
     38          8           0        0.141682   -3.940429   -1.423938
     39          1           0        0.037875   -4.696704   -2.046125
     40          1           0        1.587085   -5.420339   -3.749283
     41          1           0        2.815295   -5.388205   -1.075288
     42          1           0        4.004425   -3.388980   -1.976138
     43          1           0        4.200749   -4.791571   -3.055099
     44          1           0        3.069991   -3.485503   -3.479403
 ---------------------------------------------------------------------
                    Distance matrix (angstroms):
                    1          2          3          4          5
     1  N    0.000000
     2  C    1.508363   0.000000
     3  C    2.399438   1.543755   0.000000
     4  O    2.591587   2.385453   1.228176   0.000000
     5  C    2.498922   1.530145   2.523400   3.201456   0.000000
     6  H    1.022822   2.123106   3.271026   3.435421   2.563606
     7  H    2.106903   1.090262   2.200289   3.226403   2.191117
     8  H    3.447052   2.163516   2.794968   3.652469   1.093769
     9  H    2.782255   2.177177   3.484706   4.144947   1.095161
    10  H    2.751680   2.176238   2.735844   3.008968   1.095003
    11  H    1.038128   2.050163   2.290678   1.969425   2.912856
    12  H    1.056821   2.111291   2.858865   3.102439   3.366084
    13  N    3.632022   2.496266   1.354581   2.268739   3.282569
    14  C    4.377705   3.041552   2.552404   3.661014   3.684973
    15  C    4.486362   3.444556   3.229314   4.294266   4.466607
    16  O    3.952575   3.113101   3.414931   4.487419   4.210855
    17  C    5.820283   4.455854   3.747529   4.679463   4.848892
    18  H    4.350173   3.385355   1.986717   2.421884   4.122157
    19  H    4.212248   2.749018   2.776884   3.974930   3.045492
    20  H    6.043155   4.629565   3.901635   4.738789   4.708126
    21  H    6.520386   5.125584   4.645098   5.663252   5.465886
    22  H    6.258809   5.029376   4.053381   4.794435   5.599423
    23  N    5.588640   4.678117   4.207785   5.103249   5.766128
    24  C    6.336684   5.650924   5.361770   6.194444   6.849155
    25  C    6.455957   6.065217   5.602479   6.174575   7.437649
    26  O    7.459951   7.066903   6.420561   6.880648   8.427479
    27  C    7.790878   6.986722   6.654082   7.517338   8.061929
    28  H    6.210852   5.215985   4.507679   5.325016   6.199315
    29  H    6.029398   5.408137   5.423177   6.333886   6.582750
    30  H    7.968692   7.017514   6.799288   7.776213   7.929082
    31  H    8.259746   7.429079   6.877644   7.647112   8.501210
    32  H    8.433290   7.750963   7.508305   8.342924   8.881741
    33  N    5.638533   5.555917   5.213827   5.643577   7.033748
    34  C    4.838756   4.938648   4.998712   5.503642   6.404475
    35  C    3.357027   3.642031   3.759512   4.164178   5.145049
    36  O    2.743920   3.353399   3.914785   4.305137   4.735724
    37  C    5.672180   6.076407   6.268052   6.632225   7.525377
    38  O    3.220801   3.355187   2.940001   3.160626   4.873503
    39  H    4.161519   4.107643   3.476898   3.716903   5.595878
    40  H    6.216756   6.294136   5.859013   6.113219   7.802095
    41  H    4.994528   4.875169   5.127764   5.841451   6.230098
    42  H    5.412513   5.954510   6.398792   6.783612   7.318334
    43  H    6.675773   6.963364   7.138487   7.573517   8.391660
    44  H    5.867238   6.433161   6.469847   6.636086   7.920873
                    6          7          8          9         10
     6  H    0.000000
     7  H    2.647229   0.000000
     8  H    3.622093   2.544042   0.000000
     9  H    2.469046   2.530683   1.766008   0.000000
    10  H    2.750667   3.095512   1.769177   1.788173   0.000000
    11  H    1.692536   2.879754   3.831161   3.410703   2.803855
    12  H    1.694781   2.245026   4.212591   3.564538   3.767566
    13  N    4.494427   2.710432   3.098125   4.255117   3.645364
    14  C    5.138786   2.748485   3.212228   4.459351   4.354659
    15  C    5.276484   2.762876   4.232593   5.040072   5.273481
    16  O    4.621210   2.171215   4.177129   4.553761   5.128764
    17  C    6.576856   4.251730   4.150639   5.664842   5.389525
    18  H    5.253913   3.688530   3.922312   5.149724   4.297422
    19  H    4.796821   2.379891   2.424605   3.677872   3.858935
    20  H    6.726247   4.621789   3.885948   5.565951   5.102971
    21  H    7.222352   4.731453   4.692622   6.146470   6.128740
    22  H    7.109676   4.887800   5.010775   6.488413   6.040126
    23  N    6.446097   4.050780   5.511571   6.382072   6.506473
    24  C    7.152771   4.888392   6.699381   7.332559   7.649026
    25  C    7.337058   5.454443   7.459082   7.978836   8.112821
    26  O    8.381649   6.537483   8.407403   9.042127   9.037195
    27  C    8.591044   6.203542   7.765687   8.542415   8.884572
    28  H    7.103027   4.726938   5.834969   6.918135   6.850832
    29  H    6.741897   4.510945   6.494550   6.914454   7.469218
    30  H    8.706544   6.185159   7.517117   8.356205   8.805637
    31  H    9.124419   6.760263   8.165882   9.090206   9.239836
    32  H    9.202323   6.915579   8.650197   9.291395   9.731998
    33  N    6.489609   5.015587   7.258295   7.514620   7.653931
    34  C    5.551707   4.298910   6.759162   6.702724   7.093612
    35  C    4.115163   3.208430   5.645341   5.481741   5.731299
    36  O    3.272057   2.950558   5.397319   4.864328   5.326230
    37  C    6.241670   5.477281   8.003653   7.697562   8.176551
    38  O    4.168026   3.225672   5.316894   5.454702   5.293970
    39  H    5.125877   3.899448   5.901870   6.238954   6.033565
    40  H    7.070376   5.851934   8.087724   8.304831   8.341403
    41  H    5.631319   4.044755   6.478870   6.437374   7.047785
    42  H    5.820939   5.340812   7.878283   7.343155   7.986878
    43  H    7.241069   6.274191   8.789827   8.548096   9.101670
    44  H    6.468760   5.993734   8.468582   8.162026   8.452485
                   11         12         13         14         15
    11  H    0.000000
    12  H    1.708800   0.000000
    13  N    3.629399   3.923684   0.000000
    14  C    4.669735   4.534281   1.469825   0.000000
    15  C    4.932162   4.279842   2.473116   1.549003   0.000000
    16  O    4.605249   3.600043   3.121238   2.406951   1.233508
    17  C    6.000749   6.027852   2.445627   1.529396   2.608928
    18  H    4.143612   4.623611   1.014996   2.134627   3.083130
    19  H    4.661877   4.488473   2.093935   1.093676   2.103345
    20  H    6.147736   6.425497   2.714594   2.163297   3.534584
    21  H    6.825812   6.657830   3.400447   2.170151   2.824325
    22  H    6.310432   6.389752   2.701027   2.191085   2.960198
    23  N    5.926921   5.258676   3.293346   2.490120   1.353169
    24  C    6.751667   5.789561   4.635607   3.881166   2.482280
    25  C    6.714825   5.784591   5.056308   4.721409   3.415453
    26  O    7.610154   6.817481   5.776429   5.508797   4.362776
    27  C    8.209660   7.287013   5.749156   4.807452   3.611783
    28  H    6.433255   5.982352   3.387754   2.635172   2.055273
    29  H    6.589534   5.421733   4.875712   4.048125   2.520351
    30  H    8.461112   7.554413   5.829911   4.675532   3.617837
    31  H    8.561715   7.806581   5.867094   5.040432   4.057399
    32  H    8.888835   7.827243   6.699721   5.795186   4.488706
    33  N    5.876255   4.841804   5.010010   4.960449   3.676608
    34  C    5.262390   3.920853   5.075740   5.004757   3.680951
    35  C    3.736925   2.443549   4.158096   4.415015   3.443986
    36  O    3.321050   1.711691   4.596053   4.878400   4.065909
    37  C    6.086368   4.645390   6.509494   6.509783   5.191834
    38  O    3.275122   2.591622   3.292651   3.883866   3.238889
    39  H    4.174481   3.565014   3.479559   3.937935   3.159415
    40  H    6.341165   5.387124   5.725129   5.828470   4.630042
    41  H    5.583726   4.145602   5.086427   4.720766   3.277519
    42  H    5.934345   4.365752   6.797541   6.795127   5.535547
    43  H    7.124707   5.662938   7.236228   7.076078   5.648126
    44  H    6.112719   4.846828   6.794850   7.002518   5.793952
                   16         17         18         19         20
    16  O    0.000000
    17  C    3.693081   0.000000
    18  H    3.912290   2.555155   0.000000
    19  H    2.498068   2.145628   2.940880   0.000000
    20  H    4.504988   1.093434   2.747831   2.451617   0.000000
    21  H    3.835728   1.093453   3.612885   2.511251   1.773308
    22  H    4.165497   1.097688   2.420680   3.074903   1.765838
    23  N    2.269483   2.931662   3.551701   3.275662   4.004341
    24  C    2.827406   4.355325   4.906289   4.526979   5.440288
    25  C    3.684086   5.277309   5.154313   5.502038   6.322967
    26  O    4.811304   5.812731   5.681955   6.391950   6.841075
    27  C    4.093339   4.857694   5.920691   5.429595   5.936248
    28  H    3.167806   2.543313   3.394051   3.557413   3.608452
    29  H    2.378213   4.767360   5.341643   4.460910   5.813438
    30  H    4.097238   4.597904   6.089084   5.141086   5.627667
    31  H    4.765945   4.840313   5.852065   5.804763   5.885413
    32  H    4.763915   5.936197   6.896052   6.368229   7.017060
    33  N    3.611433   5.835325   5.194608   5.653014   6.805232
    34  C    3.131207   6.159174   5.508715   5.445940   7.071020
    35  C    2.839077   5.756895   4.666950   4.769910   6.507862
    36  O    3.203015   6.342977   5.252015   4.981666   6.986151
    37  C    4.523760   7.691745   6.933210   6.887253   8.595089
    38  O    3.084920   5.115065   3.600728   4.442361   5.793198
    39  H    3.264131   4.960116   3.598180   4.677476   5.738555
    40  H    4.600171   6.649679   5.793088   6.570664   7.596749
    41  H    2.552366   5.863046   5.644881   5.026785   6.801264
    42  H    4.666903   8.092117   7.338905   7.012340   8.939443
    43  H    5.030152   8.146795   7.637155   7.474012   9.114632
    44  H    5.245030   8.166040   7.105004   7.465162   9.035428
                   21         22         23         24         25
    21  H    0.000000
    22  H    1.776990   0.000000
    23  N    2.992151   2.849535   0.000000
    24  C    4.237222   4.230073   1.471914   0.000000
    25  C    5.394605   4.929462   2.449969   1.544576   0.000000
    26  O    5.925890   5.262375   3.211132   2.409741   1.215360
    27  C    4.459423   4.650313   2.464990   1.526915   2.521913
    28  H    2.617664   2.158616   1.011777   2.124787   2.910482
    29  H    4.591326   4.868207   2.058924   1.091157   2.189441
    30  H    3.982273   4.572613   2.704925   2.160629   3.474810
    31  H    4.508174   4.405402   2.754993   2.171067   2.746976
    32  H    5.521020   5.735002   3.411398   2.162321   2.773691
    33  N    6.118303   5.585350   3.165654   2.533223   1.397099
    34  C    6.424895   6.158101   3.654774   3.114983   2.588784
    35  C    6.224260   5.852026   3.865925   3.902909   3.562058
    36  O    6.803888   6.604124   4.761188   4.859350   4.702785
    37  C    7.939827   7.680109   5.141933   4.399262   3.674671
    38  O    5.764646   5.062406   3.599241   4.000445   3.559655
    39  H    5.563820   4.729049   3.136907   3.427813   2.766187
    40  H    6.985281   6.291043   4.052589   3.394428   1.990818
    41  H    5.968802   6.001786   3.338704   2.701883   2.724725
    42  H    8.332380   8.211204   5.716601   5.074152   4.582291
    43  H    8.275744   8.101180   5.406493   4.398219   3.669981
    44  H    8.523362   8.052550   5.695538   5.046318   4.055379
                   26         27         28         29         30
    26  O    0.000000
    27  C    2.786289   0.000000
    28  H    3.326649   2.621306   0.000000
    29  H    3.241031   2.160414   2.934929   0.000000
    30  H    3.853066   1.093618   2.827026   2.485259   0.000000
    31  H    2.578277   1.093602   2.519520   3.071783   1.790256
    32  H    2.917282   1.093371   3.669148   2.508235   1.777519
    33  N    2.262239   3.793513   3.806824   2.714263   4.645482
    34  C    3.643831   4.503116   4.520442   2.757339   5.143703
    35  C    4.600233   5.418521   4.689260   3.603286   5.929323
    36  O    5.784173   6.357216   5.627931   4.367440   6.743727
    37  C    4.516381   5.614268   5.991196   3.959235   6.306545
    38  O    4.417299   5.493968   4.205400   4.034985   6.039426
    39  H    3.501226   4.849665   3.643958   3.683436   5.509746
    40  H    2.360408   4.477841   4.566766   3.658546   5.425428
    41  H    3.895801   4.022318   4.302967   2.010698   4.490764
    42  H    5.518894   6.321178   6.634796   4.455088   6.888168
    43  H    4.385257   5.380937   6.230472   3.946853   6.104881
    44  H    4.707927   6.271829   6.453451   4.786699   7.057784
                   31         32         33         34         35
    31  H    0.000000
    32  H    1.761122   0.000000
    33  N    4.131517   3.963563   0.000000
    34  C    5.101334   4.633955   1.468290   0.000000
    35  C    5.940139   5.784806   2.461524   1.533590   0.000000
    36  O    6.974788   6.703660   3.616830   2.424658   1.221299
    37  C    6.233595   5.491462   2.488575   1.533707   2.523951
    38  O    5.795442   6.033122   2.644285   2.441610   1.332929
    39  H    5.036312   5.379170   1.985865   2.345739   1.873101
    40  H    4.671864   4.522595   1.017942   2.110856   3.030416
    41  H    4.802276   4.145210   2.107043   1.091404   2.089410
    42  H    7.037730   6.216404   3.423315   2.162594   2.711039
    43  H    6.029789   5.051538   2.768920   2.165798   3.470361
    44  H    6.750428   6.172827   2.745593   2.182329   2.830486
                   36         37         38         39         40
    36  O    0.000000
    37  C    2.975853   0.000000
    38  O    2.217707   3.562884   0.000000
    39  H    2.998045   3.554116   0.984806   0.000000
    40  H    4.149769   2.573298   3.112323   2.413389   0.000000
    41  H    2.704801   2.159465   3.060363   3.022376   2.942750
    42  H    2.684034   1.092302   3.940788   4.177147   3.621325
    43  H    3.975348   1.093078   4.456586   4.284454   2.776415
    44  H    3.325921   1.095935   3.606507   3.565813   2.452638
                   41         42         43         44
    41  H    0.000000
    42  H    2.494487   0.000000
    43  H    2.488997   1.780439   0.000000
    44  H    3.076510   1.772650   1.778892   0.000000
 Symmetry turned off by external request.
 Stoichiometry    C12H23N4O5(1+)
 Framework group  C1[X(C12H23N4O5)]
 Deg. of freedom   126
 Full point group                 C1      NOp   1
 Rotational constants (GHZ):           0.4197108           0.2548937           0.1875060
 Standard basis: 6-31G(d) (6D, 7F)
   361 basis functions,   680 primitive gaussians,   361 cartesian basis functions
    81 alpha electrons       81 beta electrons
       nuclear repulsion energy      1961.8171048348 Hartrees.
 NAtoms=   44 NActive=   44 NUniq=   44 SFac= 1.00D+00 NAtFMM=   60 NAOKFM=F Big=F
 Integral buffers will be    131072 words long.
 Raffenetti 2 integral format.
 Two-electron integral symmetry is turned off.
 Nuclear repulsion after empirical dispersion term =     1961.7592725534 Hartrees.
 One-electron integrals computed using PRISM.
 NBasis=   361 RedAO= T EigKep=  2.20D-03  NBF=   361
 NBsUse=   361 1.00D-06 EigRej= -1.00D+00 NBFU=   361
 Initial guess from the checkpoint file:  "conf-879.chk"
 B after Tr=     0.000000    0.000000    0.000000
         Rot=    1.000000    0.000000    0.000000    0.000000 Ang=   0.00 deg.
 Requested convergence on RMS density matrix=1.00D-08 within 128 cycles.
 Requested convergence on MAX density matrix=1.00D-06.
 Requested convergence on             energy=1.00D-06.
 No special actions if energy rises.
 SCF Done:  E(RB3LYP) =  -1066.17003469     A.U. after    1 cycles
            NFock=  1  Conv=0.56D-08     -V/T= 2.0093

 **********************************************************************

            Population analysis using the SCF Density.

 **********************************************************************

 Alpha  occ. eigenvalues --  -19.33324 -19.28170 -19.26198 -19.25703 -19.24516
 Alpha  occ. eigenvalues --  -14.57228 -14.50761 -14.50567 -14.49494 -10.45947
 Alpha  occ. eigenvalues --  -10.43639 -10.42912 -10.41810 -10.39078 -10.38298
 Alpha  occ. eigenvalues --  -10.37413 -10.36291 -10.33023 -10.32268 -10.30524
 Alpha  occ. eigenvalues --  -10.29160  -1.24650  -1.18734  -1.17676  -1.16606
 Alpha  occ. eigenvalues --   -1.15965  -1.11985  -1.07141  -1.06372  -1.05291
 Alpha  occ. eigenvalues --   -0.92543  -0.91261  -0.89796  -0.88370  -0.80827
 Alpha  occ. eigenvalues --   -0.79722  -0.78977  -0.77988  -0.74502  -0.73755
 Alpha  occ. eigenvalues --   -0.72966  -0.72127  -0.71119  -0.70545  -0.66954
 Alpha  occ. eigenvalues --   -0.66196  -0.64249  -0.62645  -0.61877  -0.61558
 Alpha  occ. eigenvalues --   -0.60483  -0.60218  -0.59214  -0.58451  -0.57186
 Alpha  occ. eigenvalues --   -0.55964  -0.55117  -0.54994  -0.54082  -0.53729
 Alpha  occ. eigenvalues --   -0.53353  -0.52862  -0.52450  -0.52301  -0.51709
 Alpha  occ. eigenvalues --   -0.51188  -0.50923  -0.50343  -0.50013  -0.49327
 Alpha  occ. eigenvalues --   -0.49136  -0.49002  -0.47462  -0.45422  -0.43310
 Alpha  occ. eigenvalues --   -0.41582  -0.40866  -0.40340  -0.38941  -0.38190
 Alpha  occ. eigenvalues --   -0.36887
 Alpha virt. eigenvalues --   -0.13879  -0.13009  -0.11581  -0.10485  -0.07821
 Alpha virt. eigenvalues --   -0.05864  -0.04091  -0.03336  -0.02774  -0.01764
 Alpha virt. eigenvalues --   -0.01637  -0.00098   0.00375   0.01524   0.01868
 Alpha virt. eigenvalues --    0.02148   0.02549   0.02765   0.03689   0.04192
 Alpha virt. eigenvalues --    0.04435   0.04910   0.05590   0.05740   0.05900
 Alpha virt. eigenvalues --    0.06500   0.06817   0.07398   0.08270   0.08730
 Alpha virt. eigenvalues --    0.09294   0.10069   0.10468   0.11477   0.12257
 Alpha virt. eigenvalues --    0.13081   0.13316   0.13901   0.14741   0.18057
 Alpha virt. eigenvalues --    0.21111   0.21728   0.22535   0.25970   0.26570
 Alpha virt. eigenvalues --    0.27290   0.29376   0.32744   0.35109   0.35611
 Alpha virt. eigenvalues --    0.37133   0.37884   0.38819   0.39510   0.39943
 Alpha virt. eigenvalues --    0.41083   0.42373   0.43155   0.43661   0.44636
 Alpha virt. eigenvalues --    0.45062   0.46683   0.47545   0.47926   0.49091
 Alpha virt. eigenvalues --    0.49639   0.49898   0.51152   0.51939   0.52461
 Alpha virt. eigenvalues --    0.52856   0.53812   0.54990   0.56121   0.58007
 Alpha virt. eigenvalues --    0.58698   0.59485   0.60396   0.60990   0.62905
 Alpha virt. eigenvalues --    0.62996   0.64167   0.65213   0.65818   0.66792
 Alpha virt. eigenvalues --    0.67583   0.68317   0.68620   0.69851   0.71630
 Alpha virt. eigenvalues --    0.72102   0.72710   0.73466   0.73771   0.74183
 Alpha virt. eigenvalues --    0.74571   0.75608   0.76143   0.76413   0.77084
 Alpha virt. eigenvalues --    0.77471   0.77878   0.78597   0.79003   0.79549
 Alpha virt. eigenvalues --    0.79979   0.80332   0.80855   0.82069   0.83024
 Alpha virt. eigenvalues --    0.83918   0.85117   0.85386   0.86258   0.86424
 Alpha virt. eigenvalues --    0.87057   0.88394   0.88452   0.89806   0.90263
 Alpha virt. eigenvalues --    0.90897   0.93469   0.94134   0.95277   0.97297
 Alpha virt. eigenvalues --    0.99845   1.00467   1.01407   1.04749   1.05780
 Alpha virt. eigenvalues --    1.06270   1.07908   1.08806   1.11586   1.12690
 Alpha virt. eigenvalues --    1.15136   1.15378   1.17397   1.18321   1.20339
 Alpha virt. eigenvalues --    1.22108   1.22947   1.23691   1.24759   1.26390
 Alpha virt. eigenvalues --    1.29036   1.30248   1.32472   1.34552   1.35449
 Alpha virt. eigenvalues --    1.36672   1.39435   1.41317   1.42198   1.43456
 Alpha virt. eigenvalues --    1.45312   1.46413   1.48357   1.49024   1.52879
 Alpha virt. eigenvalues --    1.53163   1.54034   1.56147   1.58075   1.58601
 Alpha virt. eigenvalues --    1.60148   1.60949   1.61363   1.64495   1.65874
 Alpha virt. eigenvalues --    1.66016   1.66964   1.67507   1.68199   1.69746
 Alpha virt. eigenvalues --    1.70467   1.71682   1.72484   1.73551   1.74779
 Alpha virt. eigenvalues --    1.75939   1.76621   1.77522   1.79167   1.79874
 Alpha virt. eigenvalues --    1.81122   1.82495   1.83153   1.84351   1.85497
 Alpha virt. eigenvalues --    1.85794   1.86519   1.88422   1.88838   1.89247
 Alpha virt. eigenvalues --    1.90695   1.91347   1.92493   1.93223   1.93733
 Alpha virt. eigenvalues --    1.95012   1.95484   1.97438   1.97911   2.00205
 Alpha virt. eigenvalues --    2.02398   2.03876   2.05776   2.07237   2.07698
 Alpha virt. eigenvalues --    2.10645   2.12310   2.13133   2.14162   2.15406
 Alpha virt. eigenvalues --    2.15768   2.16965   2.18199   2.19305   2.20158
 Alpha virt. eigenvalues --    2.20914   2.25931   2.26536   2.28588   2.29892
 Alpha virt. eigenvalues --    2.31127   2.32202   2.33927   2.35873   2.38555
 Alpha virt. eigenvalues --    2.39559   2.42266   2.44333   2.45100   2.46398
 Alpha virt. eigenvalues --    2.49474   2.49569   2.49900   2.52204   2.53735
 Alpha virt. eigenvalues --    2.54526   2.56985   2.57451   2.59909   2.61792
 Alpha virt. eigenvalues --    2.66235   2.67977   2.76612   2.79720   2.81793
 Alpha virt. eigenvalues --    2.83847   2.87223   2.88449   2.89215   2.91015
 Alpha virt. eigenvalues --    2.94796   2.99166   3.02541   3.03132   3.71461
 Alpha virt. eigenvalues --    3.77911   3.84622   3.87477   3.93163   3.96904
 Alpha virt. eigenvalues --    4.03943   4.06088   4.09528   4.12923   4.14669
 Alpha virt. eigenvalues --    4.15580   4.20564   4.22599   4.25969   4.29545
 Alpha virt. eigenvalues --    4.30902   4.50445   4.52739   4.55237   4.57590
          Condensed to atoms (all electrons):
               1          2          3          4          5          6
     1  N    7.019566   0.216730  -0.045009  -0.030028  -0.047451   0.300950
     2  C    0.216730   5.308907   0.295584  -0.088217   0.346682  -0.023659
     3  C   -0.045009   0.295584   4.345247   0.541863  -0.040103   0.004318
     4  O   -0.030028  -0.088217   0.541863   8.092761  -0.003184   0.000381
     5  C   -0.047451   0.346682  -0.040103  -0.003184   5.120800  -0.001272
     6  H    0.300950  -0.023659   0.004318   0.000381  -0.001272   0.333560
     7  H   -0.031551   0.329390  -0.023627   0.002526  -0.025109   0.000042
     8  H    0.003884  -0.031710  -0.002727  -0.000008   0.377283  -0.000021
     9  H   -0.003482  -0.029091   0.003705  -0.000043   0.372639   0.004117
    10  H   -0.003618  -0.035030  -0.004062   0.003615   0.374105   0.000041
    11  H    0.249298  -0.042260  -0.006802   0.062642   0.001375  -0.011579
    12  H    0.186517  -0.015677  -0.000307   0.000363   0.002693  -0.007627
    13  N    0.001427  -0.110559   0.309996  -0.081502   0.000992  -0.000082
    14  C   -0.000058   0.010825  -0.024388   0.002686  -0.002053   0.000000
    15  C    0.000082  -0.002218  -0.001048  -0.000036   0.000108  -0.000001
    16  O    0.000125  -0.018124   0.002443   0.000008   0.000385  -0.000006
    17  C   -0.000003  -0.000266   0.003572  -0.000075   0.000034  -0.000000
    18  H   -0.000082   0.007718  -0.013529   0.006271  -0.000253   0.000004
    19  H    0.000043   0.000921  -0.006468   0.000035   0.001046  -0.000002
    20  H    0.000000  -0.000007  -0.000086  -0.000006   0.000014   0.000000
    21  H   -0.000000   0.000015  -0.000067   0.000000  -0.000002   0.000000
    22  H    0.000000  -0.000003  -0.000175  -0.000003  -0.000002  -0.000000
    23  N    0.000001  -0.000233  -0.000005  -0.000001  -0.000001   0.000000
    24  C   -0.000000   0.000006  -0.000007   0.000000  -0.000000   0.000000
    25  C    0.000000  -0.000000   0.000003  -0.000000   0.000000  -0.000000
    26  O    0.000000  -0.000000   0.000000  -0.000000   0.000000  -0.000000
    27  C    0.000000   0.000000  -0.000000   0.000000  -0.000000   0.000000
    28  H   -0.000000   0.000007  -0.000020  -0.000000  -0.000000  -0.000000
    29  H    0.000000   0.000004  -0.000002   0.000000  -0.000000   0.000000
    30  H   -0.000000   0.000000  -0.000000  -0.000000   0.000000  -0.000000
    31  H   -0.000000  -0.000000   0.000000  -0.000000   0.000000   0.000000
    32  H   -0.000000   0.000000   0.000000   0.000000   0.000000  -0.000000
    33  N    0.000003  -0.000001  -0.000002   0.000000   0.000000  -0.000000
    34  C   -0.000197   0.000037   0.000015  -0.000004  -0.000000   0.000003
    35  C    0.002091   0.000840  -0.000064   0.000055   0.000035   0.000058
    36  O   -0.048117   0.001136  -0.000378  -0.000003   0.000013   0.000646
    37  C    0.000001   0.000002  -0.000000   0.000000   0.000000  -0.000000
    38  O    0.001145   0.000796   0.006682  -0.001394   0.000038   0.000027
    39  H   -0.000005   0.000037  -0.000121   0.000048  -0.000000   0.000000
    40  H   -0.000000  -0.000000   0.000000  -0.000000  -0.000000  -0.000000
    41  H    0.000008   0.000000  -0.000003   0.000000  -0.000000  -0.000000
    42  H    0.000002  -0.000000   0.000000   0.000000  -0.000000  -0.000000
    43  H   -0.000000  -0.000000   0.000000  -0.000000  -0.000000   0.000000
    44  H    0.000000  -0.000000   0.000000  -0.000000  -0.000000  -0.000000
               7          8          9         10         11         12
     1  N   -0.031551   0.003884  -0.003482  -0.003618   0.249298   0.186517
     2  C    0.329390  -0.031710  -0.029091  -0.035030  -0.042260  -0.015677
     3  C   -0.023627  -0.002727   0.003705  -0.004062  -0.006802  -0.000307
     4  O    0.002526  -0.000008  -0.000043   0.003615   0.062642   0.000363
     5  C   -0.025109   0.377283   0.372639   0.374105   0.001375   0.002693
     6  H    0.000042  -0.000021   0.004117   0.000041  -0.011579  -0.007627
     7  H    0.464770  -0.001719  -0.003657   0.003769   0.004112  -0.001959
     8  H   -0.001719   0.494844  -0.021495  -0.021782  -0.000075  -0.000069
     9  H   -0.003657  -0.021495   0.514061  -0.026916  -0.000393  -0.000093
    10  H    0.003769  -0.021782  -0.026916   0.510505   0.002450  -0.000002
    11  H    0.004112  -0.000075  -0.000393   0.002450   0.326630  -0.003206
    12  H   -0.001959  -0.000069  -0.000093  -0.000002  -0.003206   0.295668
    13  N    0.001136   0.001670  -0.000055   0.000017   0.002288   0.000089
    14  C   -0.003813  -0.000030   0.000036   0.000003  -0.000079  -0.000026
    15  C   -0.002219   0.000073   0.000000  -0.000005  -0.000003   0.000043
    16  O    0.038213   0.000002  -0.000004  -0.000004  -0.000010   0.000006
    17  C    0.000310  -0.000075  -0.000001   0.000003   0.000001   0.000000
    18  H   -0.000308  -0.000034   0.000006  -0.000025  -0.000123  -0.000002
    19  H    0.001493   0.003372  -0.000099  -0.000023  -0.000008   0.000004
    20  H   -0.000013   0.000054   0.000000  -0.000001   0.000000  -0.000000
    21  H    0.000000  -0.000001   0.000000  -0.000000  -0.000000  -0.000000
    22  H   -0.000001   0.000000  -0.000000   0.000000   0.000000   0.000000
    23  N    0.000702  -0.000000  -0.000000   0.000000  -0.000000   0.000001
    24  C   -0.000017   0.000000   0.000000  -0.000000   0.000000  -0.000000
    25  C    0.000004  -0.000000  -0.000000  -0.000000  -0.000000  -0.000001
    26  O    0.000000   0.000000   0.000000  -0.000000  -0.000000  -0.000000
    27  C   -0.000000   0.000000   0.000000   0.000000   0.000000  -0.000000
    28  H   -0.000023  -0.000000  -0.000000   0.000000   0.000000   0.000000
    29  H   -0.000021  -0.000000   0.000000   0.000000   0.000000  -0.000000
    30  H   -0.000000   0.000000  -0.000000   0.000000  -0.000000   0.000000
    31  H    0.000000   0.000000   0.000000  -0.000000   0.000000   0.000000
    32  H   -0.000000  -0.000000   0.000000  -0.000000  -0.000000  -0.000000
    33  N   -0.000000  -0.000000  -0.000000  -0.000000  -0.000000  -0.000056
    34  C   -0.000072   0.000000   0.000000  -0.000000   0.000004   0.001850
    35  C    0.000712   0.000001   0.000001  -0.000000  -0.000080  -0.004033
    36  O    0.002589   0.000001   0.000001  -0.000000   0.000418   0.101170
    37  C   -0.000002  -0.000000   0.000000   0.000000  -0.000000  -0.000031
    38  O   -0.000851   0.000000  -0.000000  -0.000000   0.000232  -0.002371
    39  H   -0.000013  -0.000000  -0.000000   0.000000  -0.000007   0.000016
    40  H    0.000000   0.000000  -0.000000   0.000000  -0.000000   0.000000
    41  H   -0.000025  -0.000000  -0.000000   0.000000  -0.000000  -0.000088
    42  H   -0.000000  -0.000000  -0.000000   0.000000  -0.000000  -0.000027
    43  H   -0.000000   0.000000   0.000000   0.000000  -0.000000   0.000001
    44  H    0.000000  -0.000000  -0.000000  -0.000000  -0.000000  -0.000008
              13         14         15         16         17         18
     1  N    0.001427  -0.000058   0.000082   0.000125  -0.000003  -0.000082
     2  C   -0.110559   0.010825  -0.002218  -0.018124  -0.000266   0.007718
     3  C    0.309996  -0.024388  -0.001048   0.002443   0.003572  -0.013529
     4  O   -0.081502   0.002686  -0.000036   0.000008  -0.000075   0.006271
     5  C    0.000992  -0.002053   0.000108   0.000385   0.000034  -0.000253
     6  H   -0.000082   0.000000  -0.000001  -0.000006  -0.000000   0.000004
     7  H    0.001136  -0.003813  -0.002219   0.038213   0.000310  -0.000308
     8  H    0.001670  -0.000030   0.000073   0.000002  -0.000075  -0.000034
     9  H   -0.000055   0.000036   0.000000  -0.000004  -0.000001   0.000006
    10  H    0.000017   0.000003  -0.000005  -0.000004   0.000003  -0.000025
    11  H    0.002288  -0.000079  -0.000003  -0.000010   0.000001  -0.000123
    12  H    0.000089  -0.000026   0.000043   0.000006   0.000000  -0.000002
    13  N    7.092508   0.243081  -0.054057  -0.002128  -0.044103   0.290424
    14  C    0.243081   5.098861   0.321132  -0.074724   0.327276  -0.026787
    15  C   -0.054057   0.321132   4.443617   0.510719  -0.034072   0.000026
    16  O   -0.002128  -0.074724   0.510719   8.137779   0.002847  -0.000115
    17  C   -0.044103   0.327276  -0.034072   0.002847   5.162555  -0.005682
    18  H    0.290424  -0.026787   0.000026  -0.000115  -0.005682   0.376897
    19  H   -0.043522   0.369936  -0.045868   0.002529  -0.031569   0.003718
    20  H    0.000506  -0.022626   0.003495  -0.000065   0.369907   0.000350
    21  H    0.003757  -0.031361   0.001305   0.000032   0.376806   0.000017
    22  H   -0.006050  -0.027383  -0.009004  -0.000042   0.365415   0.004776
    23  N    0.002193  -0.098461   0.273289  -0.096141   0.001064   0.000403
    24  C   -0.000186   0.005778  -0.020365   0.002543  -0.000204   0.000004
    25  C    0.000035  -0.000235  -0.001083  -0.000481   0.000008  -0.000001
    26  O    0.000000   0.000000   0.000006  -0.000002  -0.000000  -0.000000
    27  C   -0.000002  -0.000176   0.003252   0.000499  -0.000043   0.000000
    28  H    0.000226  -0.003074  -0.021478   0.002780   0.005468   0.000061
    29  H   -0.000018   0.000762  -0.001242   0.009181  -0.000060   0.000001
    30  H    0.000000  -0.000034   0.000258  -0.000001   0.000014  -0.000000
    31  H   -0.000000   0.000004  -0.000113  -0.000011  -0.000013   0.000000
    32  H    0.000000   0.000003  -0.000056  -0.000001   0.000000  -0.000000
    33  N   -0.000002  -0.000018   0.000716  -0.000267   0.000000  -0.000001
    34  C   -0.000011  -0.000003   0.000557  -0.002823  -0.000001   0.000002
    35  C   -0.000201  -0.000137  -0.000202   0.010718   0.000002   0.000001
    36  O    0.000006  -0.000004  -0.000342  -0.001637  -0.000000  -0.000000
    37  C   -0.000000   0.000001   0.000052   0.000247  -0.000000   0.000000
    38  O   -0.000946  -0.001327   0.006653  -0.003214   0.000004   0.000060
    39  H    0.000670   0.000017  -0.000008  -0.000352  -0.000004   0.000064
    40  H    0.000000  -0.000002  -0.000045   0.000002   0.000000  -0.000000
    41  H   -0.000002   0.000092  -0.000639   0.008893  -0.000001   0.000000
    42  H    0.000000   0.000000   0.000001   0.000002  -0.000000  -0.000000
    43  H   -0.000000  -0.000000  -0.000000  -0.000001   0.000000   0.000000
    44  H    0.000000  -0.000000  -0.000000  -0.000001   0.000000  -0.000000
              19         20         21         22         23         24
     1  N    0.000043   0.000000  -0.000000   0.000000   0.000001  -0.000000
     2  C    0.000921  -0.000007   0.000015  -0.000003  -0.000233   0.000006
     3  C   -0.006468  -0.000086  -0.000067  -0.000175  -0.000005  -0.000007
     4  O    0.000035  -0.000006   0.000000  -0.000003  -0.000001   0.000000
     5  C    0.001046   0.000014  -0.000002  -0.000002  -0.000001  -0.000000
     6  H   -0.000002   0.000000   0.000000  -0.000000   0.000000   0.000000
     7  H    0.001493  -0.000013   0.000000  -0.000001   0.000702  -0.000017
     8  H    0.003372   0.000054  -0.000001   0.000000  -0.000000   0.000000
     9  H   -0.000099   0.000000   0.000000  -0.000000  -0.000000   0.000000
    10  H   -0.000023  -0.000001  -0.000000   0.000000   0.000000  -0.000000
    11  H   -0.000008   0.000000  -0.000000   0.000000  -0.000000   0.000000
    12  H    0.000004  -0.000000  -0.000000   0.000000   0.000001  -0.000000
    13  N   -0.043522   0.000506   0.003757  -0.006050   0.002193  -0.000186
    14  C    0.369936  -0.022626  -0.031361  -0.027383  -0.098461   0.005778
    15  C   -0.045868   0.003495   0.001305  -0.009004   0.273289  -0.020365
    16  O    0.002529  -0.000065   0.000032  -0.000042  -0.096141   0.002543
    17  C   -0.031569   0.369907   0.376806   0.365415   0.001064  -0.000204
    18  H    0.003718   0.000350   0.000017   0.004776   0.000403   0.000004
    19  H    0.551137  -0.006048  -0.002872   0.004913   0.004331  -0.000140
    20  H   -0.006048   0.499429  -0.019456  -0.027376   0.000084   0.000002
    21  H   -0.002872  -0.019456   0.502476  -0.028249   0.000261  -0.000098
    22  H    0.004913  -0.027376  -0.028249   0.552329   0.001000   0.000045
    23  N    0.004331   0.000084   0.000261   0.001000   7.123937   0.239827
    24  C   -0.000140   0.000002  -0.000098   0.000045   0.239827   5.115771
    25  C   -0.000001   0.000000   0.000003  -0.000008  -0.050336   0.299163
    26  O    0.000000  -0.000000  -0.000000  -0.000000  -0.001571  -0.084800
    27  C    0.000007  -0.000000   0.000027   0.000001  -0.049276   0.360355
    28  H    0.000218  -0.000162  -0.000063   0.006442   0.296914  -0.026779
    29  H    0.000000   0.000000  -0.000006  -0.000000  -0.048435   0.363616
    30  H   -0.000001   0.000000   0.000062  -0.000003  -0.000556  -0.032438
    31  H    0.000000  -0.000000  -0.000000  -0.000008  -0.004986  -0.028159
    32  H   -0.000000   0.000000  -0.000000  -0.000000   0.003904  -0.027516
    33  N    0.000000   0.000000  -0.000000  -0.000000   0.002753  -0.112845
    34  C   -0.000001   0.000000  -0.000000   0.000000  -0.000305   0.001724
    35  C   -0.000017   0.000000   0.000000  -0.000000  -0.000251  -0.000420
    36  O    0.000001  -0.000000  -0.000000   0.000000   0.000020  -0.000005
    37  C   -0.000000   0.000000  -0.000000   0.000000  -0.000020  -0.000157
    38  O   -0.000002   0.000000   0.000000  -0.000001  -0.000754  -0.000285
    39  H    0.000013  -0.000000  -0.000000   0.000004   0.002723  -0.000605
    40  H   -0.000000   0.000000   0.000000  -0.000000  -0.000217   0.007516
    41  H   -0.000001   0.000000  -0.000000   0.000000  -0.001100   0.003024
    42  H   -0.000000  -0.000000  -0.000000   0.000000  -0.000000   0.000012
    43  H    0.000000  -0.000000  -0.000000  -0.000000   0.000000   0.000028
    44  H    0.000000  -0.000000   0.000000  -0.000000   0.000000  -0.000012
              25         26         27         28         29         30
     1  N    0.000000   0.000000   0.000000  -0.000000   0.000000  -0.000000
     2  C   -0.000000  -0.000000   0.000000   0.000007   0.000004   0.000000
     3  C    0.000003   0.000000  -0.000000  -0.000020  -0.000002  -0.000000
     4  O   -0.000000  -0.000000   0.000000  -0.000000   0.000000  -0.000000
     5  C    0.000000   0.000000  -0.000000  -0.000000  -0.000000   0.000000
     6  H   -0.000000  -0.000000   0.000000  -0.000000   0.000000  -0.000000
     7  H    0.000004   0.000000  -0.000000  -0.000023  -0.000021  -0.000000
     8  H   -0.000000   0.000000   0.000000  -0.000000  -0.000000   0.000000
     9  H   -0.000000   0.000000   0.000000  -0.000000   0.000000  -0.000000
    10  H   -0.000000  -0.000000   0.000000   0.000000   0.000000   0.000000
    11  H   -0.000000  -0.000000   0.000000   0.000000   0.000000  -0.000000
    12  H   -0.000001  -0.000000  -0.000000   0.000000  -0.000000   0.000000
    13  N    0.000035   0.000000  -0.000002   0.000226  -0.000018   0.000000
    14  C   -0.000235   0.000000  -0.000176  -0.003074   0.000762  -0.000034
    15  C   -0.001083   0.000006   0.003252  -0.021478  -0.001242   0.000258
    16  O   -0.000481  -0.000002   0.000499   0.002780   0.009181  -0.000001
    17  C    0.000008  -0.000000  -0.000043   0.005468  -0.000060   0.000014
    18  H   -0.000001  -0.000000   0.000000   0.000061   0.000001  -0.000000
    19  H   -0.000001   0.000000   0.000007   0.000218   0.000000  -0.000001
    20  H    0.000000  -0.000000  -0.000000  -0.000162   0.000000   0.000000
    21  H    0.000003  -0.000000   0.000027  -0.000063  -0.000006   0.000062
    22  H   -0.000008  -0.000000   0.000001   0.006442  -0.000000  -0.000003
    23  N   -0.050336  -0.001571  -0.049276   0.296914  -0.048435  -0.000556
    24  C    0.299163  -0.084800   0.360355  -0.026779   0.363616  -0.032438
    25  C    4.407211   0.592990  -0.038437  -0.000104  -0.032249   0.005136
    26  O    0.592990   8.012389  -0.000236   0.001000   0.002696   0.000485
    27  C   -0.038437  -0.000236   5.096750  -0.000811  -0.032729   0.366583
    28  H   -0.000104   0.001000  -0.000811   0.375567   0.004650   0.000115
    29  H   -0.032249   0.002696  -0.032729   0.004650   0.532606  -0.003390
    30  H    0.005136   0.000485   0.366583   0.000115  -0.003390   0.545929
    31  H   -0.008033   0.009034   0.372053   0.004593   0.004336  -0.027974
    32  H   -0.000991   0.000079   0.376454  -0.000129  -0.002583  -0.023272
    33  N    0.250368  -0.093498   0.004016  -0.000121   0.000685  -0.000069
    34  C   -0.015086   0.002560   0.000020   0.000001  -0.000214  -0.000006
    35  C   -0.000207  -0.000055  -0.000004  -0.000003  -0.000214  -0.000000
    36  O    0.000006   0.000000  -0.000000   0.000000  -0.000015  -0.000000
    37  C    0.001314  -0.000084   0.000004   0.000000   0.000091   0.000000
    38  O    0.001418   0.000015  -0.000002  -0.000001   0.000058   0.000000
    39  H    0.000981  -0.000587   0.000034   0.000029   0.000048   0.000000
    40  H   -0.009340   0.010586  -0.000170  -0.000003  -0.000337   0.000002
    41  H   -0.002270   0.000067   0.000030  -0.000003   0.005900   0.000013
    42  H   -0.000059   0.000000  -0.000000  -0.000000  -0.000002  -0.000000
    43  H    0.000168  -0.000025  -0.000001   0.000000   0.000025  -0.000000
    44  H   -0.000052   0.000002   0.000000  -0.000000  -0.000001   0.000000
              31         32         33         34         35         36
     1  N   -0.000000  -0.000000   0.000003  -0.000197   0.002091  -0.048117
     2  C   -0.000000   0.000000  -0.000001   0.000037   0.000840   0.001136
     3  C    0.000000   0.000000  -0.000002   0.000015  -0.000064  -0.000378
     4  O   -0.000000   0.000000   0.000000  -0.000004   0.000055  -0.000003
     5  C    0.000000   0.000000   0.000000  -0.000000   0.000035   0.000013
     6  H    0.000000  -0.000000  -0.000000   0.000003   0.000058   0.000646
     7  H    0.000000  -0.000000  -0.000000  -0.000072   0.000712   0.002589
     8  H    0.000000  -0.000000  -0.000000   0.000000   0.000001   0.000001
     9  H    0.000000   0.000000  -0.000000   0.000000   0.000001   0.000001
    10  H   -0.000000  -0.000000  -0.000000  -0.000000  -0.000000  -0.000000
    11  H    0.000000  -0.000000  -0.000000   0.000004  -0.000080   0.000418
    12  H    0.000000  -0.000000  -0.000056   0.001850  -0.004033   0.101170
    13  N   -0.000000   0.000000  -0.000002  -0.000011  -0.000201   0.000006
    14  C    0.000004   0.000003  -0.000018  -0.000003  -0.000137  -0.000004
    15  C   -0.000113  -0.000056   0.000716   0.000557  -0.000202  -0.000342
    16  O   -0.000011  -0.000001  -0.000267  -0.002823   0.010718  -0.001637
    17  C   -0.000013   0.000000   0.000000  -0.000001   0.000002  -0.000000
    18  H    0.000000  -0.000000  -0.000001   0.000002   0.000001  -0.000000
    19  H    0.000000  -0.000000   0.000000  -0.000001  -0.000017   0.000001
    20  H   -0.000000   0.000000   0.000000   0.000000   0.000000  -0.000000
    21  H   -0.000000  -0.000000  -0.000000  -0.000000   0.000000  -0.000000
    22  H   -0.000008  -0.000000  -0.000000   0.000000  -0.000000   0.000000
    23  N   -0.004986   0.003904   0.002753  -0.000305  -0.000251   0.000020
    24  C   -0.028159  -0.027516  -0.112845   0.001724  -0.000420  -0.000005
    25  C   -0.008033  -0.000991   0.250368  -0.015086  -0.000207   0.000006
    26  O    0.009034   0.000079  -0.093498   0.002560  -0.000055   0.000000
    27  C    0.372053   0.376454   0.004016   0.000020  -0.000004  -0.000000
    28  H    0.004593  -0.000129  -0.000121   0.000001  -0.000003   0.000000
    29  H    0.004336  -0.002583   0.000685  -0.000214  -0.000214  -0.000015
    30  H   -0.027974  -0.023272  -0.000069  -0.000006  -0.000000  -0.000000
    31  H    0.515815  -0.022776   0.000240  -0.000009   0.000000  -0.000000
    32  H   -0.022776   0.507194   0.000004   0.000001   0.000000  -0.000000
    33  N    0.000240   0.000004   7.269392   0.179640  -0.047465   0.001948
    34  C   -0.000009   0.000001   0.179640   5.146263   0.314074  -0.066983
    35  C    0.000000   0.000000  -0.047465   0.314074   4.385109   0.469901
    36  O   -0.000000  -0.000000   0.001948  -0.066983   0.469901   8.114859
    37  C    0.000000   0.000001  -0.045683   0.345684  -0.040721  -0.000783
    38  O    0.000000   0.000000  -0.020274  -0.082085   0.305916  -0.072285
    39  H   -0.000002  -0.000001   0.050665  -0.009337  -0.025989   0.004264
    40  H   -0.000013  -0.000001   0.277444  -0.025868  -0.000192  -0.000026
    41  H   -0.000001   0.000001  -0.039951   0.368940  -0.039474  -0.000038
    42  H   -0.000000  -0.000000   0.003876  -0.029695  -0.001889   0.006145
    43  H    0.000000   0.000000   0.000380  -0.030224   0.004269   0.000093
    44  H   -0.000000  -0.000000  -0.005052  -0.032741  -0.005638   0.000117
              37         38         39         40         41         42
     1  N    0.000001   0.001145  -0.000005  -0.000000   0.000008   0.000002
     2  C    0.000002   0.000796   0.000037  -0.000000   0.000000  -0.000000
     3  C   -0.000000   0.006682  -0.000121   0.000000  -0.000003   0.000000
     4  O    0.000000  -0.001394   0.000048  -0.000000   0.000000   0.000000
     5  C    0.000000   0.000038  -0.000000  -0.000000  -0.000000  -0.000000
     6  H   -0.000000   0.000027   0.000000  -0.000000  -0.000000  -0.000000
     7  H   -0.000002  -0.000851  -0.000013   0.000000  -0.000025  -0.000000
     8  H   -0.000000   0.000000  -0.000000   0.000000  -0.000000  -0.000000
     9  H    0.000000  -0.000000  -0.000000  -0.000000  -0.000000  -0.000000
    10  H    0.000000  -0.000000   0.000000   0.000000   0.000000   0.000000
    11  H   -0.000000   0.000232  -0.000007  -0.000000  -0.000000  -0.000000
    12  H   -0.000031  -0.002371   0.000016   0.000000  -0.000088  -0.000027
    13  N   -0.000000  -0.000946   0.000670   0.000000  -0.000002   0.000000
    14  C    0.000001  -0.001327   0.000017  -0.000002   0.000092   0.000000
    15  C    0.000052   0.006653  -0.000008  -0.000045  -0.000639   0.000001
    16  O    0.000247  -0.003214  -0.000352   0.000002   0.008893   0.000002
    17  C   -0.000000   0.000004  -0.000004   0.000000  -0.000001  -0.000000
    18  H    0.000000   0.000060   0.000064  -0.000000   0.000000  -0.000000
    19  H   -0.000000  -0.000002   0.000013  -0.000000  -0.000001  -0.000000
    20  H    0.000000   0.000000  -0.000000   0.000000   0.000000  -0.000000
    21  H   -0.000000   0.000000  -0.000000   0.000000  -0.000000  -0.000000
    22  H    0.000000  -0.000001   0.000004  -0.000000   0.000000   0.000000
    23  N   -0.000020  -0.000754   0.002723  -0.000217  -0.001100  -0.000000
    24  C   -0.000157  -0.000285  -0.000605   0.007516   0.003024   0.000012
    25  C    0.001314   0.001418   0.000981  -0.009340  -0.002270  -0.000059
    26  O   -0.000084   0.000015  -0.000587   0.010586   0.000067   0.000000
    27  C    0.000004  -0.000002   0.000034  -0.000170   0.000030  -0.000000
    28  H    0.000000  -0.000001   0.000029  -0.000003  -0.000003  -0.000000
    29  H    0.000091   0.000058   0.000048  -0.000337   0.005900  -0.000002
    30  H    0.000000   0.000000   0.000000   0.000002   0.000013  -0.000000
    31  H    0.000000   0.000000  -0.000002  -0.000013  -0.000001  -0.000000
    32  H    0.000001   0.000000  -0.000001  -0.000001   0.000001  -0.000000
    33  N   -0.045683  -0.020274   0.050665   0.277444  -0.039951   0.003876
    34  C    0.345684  -0.082085  -0.009337  -0.025868   0.368940  -0.029695
    35  C   -0.040721   0.305916  -0.025989  -0.000192  -0.039474  -0.001889
    36  O   -0.000783  -0.072285   0.004264  -0.000026  -0.000038   0.006145
    37  C    5.107690   0.000843   0.000894  -0.003314  -0.022049   0.372003
    38  O    0.000843   8.223318   0.214712   0.000351   0.001094   0.000192
    39  H    0.000894   0.214712   0.317456  -0.000336   0.001092  -0.000096
    40  H   -0.003314   0.000351  -0.000336   0.376460   0.003557   0.000010
    41  H   -0.022049   0.001094   0.001092   0.003557   0.489267  -0.002131
    42  H    0.372003   0.000192  -0.000096   0.000010  -0.002131   0.490160
    43  H    0.375059  -0.000058  -0.000036   0.000264  -0.005261  -0.020699
    44  H    0.376226   0.000403   0.000080   0.004445   0.004194  -0.023799
              43         44
     1  N   -0.000000   0.000000
     2  C   -0.000000  -0.000000
     3  C    0.000000   0.000000
     4  O   -0.000000  -0.000000
     5  C   -0.000000  -0.000000
     6  H    0.000000  -0.000000
     7  H   -0.000000   0.000000
     8  H    0.000000  -0.000000
     9  H    0.000000  -0.000000
    10  H    0.000000  -0.000000
    11  H   -0.000000  -0.000000
    12  H    0.000001  -0.000008
    13  N   -0.000000   0.000000
    14  C   -0.000000  -0.000000
    15  C   -0.000000  -0.000000
    16  O   -0.000001  -0.000001
    17  C    0.000000   0.000000
    18  H    0.000000  -0.000000
    19  H    0.000000   0.000000
    20  H   -0.000000  -0.000000
    21  H   -0.000000   0.000000
    22  H   -0.000000  -0.000000
    23  N    0.000000   0.000000
    24  C    0.000028  -0.000012
    25  C    0.000168  -0.000052
    26  O   -0.000025   0.000002
    27  C   -0.000001   0.000000
    28  H    0.000000  -0.000000
    29  H    0.000025  -0.000001
    30  H   -0.000000   0.000000
    31  H    0.000000  -0.000000
    32  H    0.000000  -0.000000
    33  N    0.000380  -0.005052
    34  C   -0.030224  -0.032741
    35  C    0.004269  -0.005638
    36  O    0.000093   0.000117
    37  C    0.375059   0.376226
    38  O   -0.000058   0.000403
    39  H   -0.000036   0.000080
    40  H    0.000264   0.004445
    41  H   -0.005261   0.004194
    42  H   -0.020699  -0.023799
    43  H    0.514472  -0.028656
    44  H   -0.028656   0.538985
 Mulliken charges:
               1
     1  N   -0.772273
     2  C   -0.122582
     3  C    0.655572
     4  O   -0.508753
     5  C   -0.478813
     6  H    0.400103
     7  H    0.245233
     8  H    0.198561
     9  H    0.190762
    10  H    0.196961
    11  H    0.415176
    12  H    0.447163
    13  N   -0.607593
    14  C   -0.063694
    15  C    0.628720
    16  O   -0.529800
    17  C   -0.499114
    18  H    0.356142
    19  H    0.192928
    20  H    0.202005
    21  H    0.197415
    22  H    0.163383
    23  N   -0.600756
    24  C   -0.064375
    25  C    0.600165
    26  O   -0.451053
    27  C   -0.458197
    28  H    0.354703
    29  H    0.196860
    30  H    0.169147
    31  H    0.186023
    32  H    0.189685
    33  N   -0.676822
    34  C   -0.065711
    35  C    0.673474
    36  O   -0.512717
    37  C   -0.467264
    38  O   -0.578110
    39  H    0.443652
    40  H    0.359225
    41  H    0.226863
    42  H    0.205995
    43  H    0.190204
    44  H    0.171508
 Sum of Mulliken charges =   1.00000
 Mulliken charges with hydrogens summed into heavy atoms:
               1
     1  N    0.490169
     2  C    0.122651
     3  C    0.655572
     4  O   -0.508753
     5  C    0.107471
    13  N   -0.251452
    14  C    0.129233
    15  C    0.628720
    16  O   -0.529800
    17  C    0.063689
    23  N   -0.246053
    24  C    0.132485
    25  C    0.600165
    26  O   -0.451053
    27  C    0.086658
    33  N   -0.317597
    34  C    0.161152
    35  C    0.673474
    36  O   -0.512717
    37  C    0.100443
    38  O   -0.134459
 Electronic spatial extent (au):  <R**2>=          22516.3720
 Charge=              1.0000 electrons
 Dipole moment (field-independent basis, Debye):
    X=              0.5942    Y=            -23.0985    Z=              2.9342  Tot=             23.2917
 Quadrupole moment (field-independent basis, Debye-Ang):
   XX=           -108.4165   YY=             23.7495   ZZ=           -102.2766
   XY=              2.0964   XZ=            -16.9691   YZ=             -9.1358
 Traceless Quadrupole moment (field-independent basis, Debye-Ang):
   XX=            -46.1020   YY=             86.0640   ZZ=            -39.9621
   XY=              2.0964   XZ=            -16.9691   YZ=             -9.1358
 Octapole moment (field-independent basis, Debye-Ang**2):
  XXX=            -85.2397  YYY=            927.8755  ZZZ=            156.2077  XYY=            -76.5559
  XXY=            547.8810  XXZ=              7.7212  XZZ=            -29.1206  YZZ=            621.2061
  YYZ=            120.4655  XYZ=             81.4068
 Hexadecapole moment (field-independent basis, Debye-Ang**3):
 XXXX=          -2023.8445 YYYY=         -16282.3495 ZZZZ=          -2518.7801 XXXY=            656.7423
 XXXZ=            694.8202 YYYX=           1076.4230 YYYZ=          -1859.9720 ZZZX=            719.2466
 ZZZY=          -1384.4804 XXYY=          -3627.8717 XXZZ=           -688.6750 YYZZ=          -4620.5513
 XXYZ=           -190.6374 YYXZ=           -141.4341 ZZXY=            247.8543
 N-N= 1.961759272553D+03 E-N=-6.388969687851D+03  KE= 1.056342193525D+03
 Unable to Open any file for archive entry.
 1\1\GINC-LAC-317\SP\RB3LYP\6-31G(d)\C12H23N4O5(1+)\KENGMITH\04-Jun-202
 2\0\\# B3LYP/6-31G* empiricaldispersion=gd3 guess=read geom=check nosy
 mm integral(ultrafinegrid)\\Candidate Structure: Conf:879 Charge calc 
 in gas phase\\1,1\N,0,-0.1829703849,-2.1088646786,1.2054217579\C,0,-0.
 5911449112,-3.4290770724,1.8100635123\C,0,-1.7028072625,-3.9341967075,
 0.8654781032\O,0,-2.3881988136,-3.1031548379,0.2755421938\C,0,-1.14385
 40305,-3.2278599241,3.2226384362\H,0,0.1333909346,-1.4358109403,1.9076
 174326\H,0,0.2861370914,-4.076255863,1.795633929\H,0,-1.463990835,-4.1
 874156317,3.6386875592\H,0,-0.3772357309,-2.81803165,3.8887569534\H,0,
 -2.0118773068,-2.5604510816,3.2111418511\H,0,-1.0249523311,-1.75132154
 03,0.7145661657\H,0,0.5905833704,-2.2662874158,0.5027808134\N,0,-1.922
 532757,-5.2675209695,0.7713737409\C,0,-1.132323168,-6.3809706476,1.315
 6024774\C,0,0.1912186377,-6.5274011587,0.5242710192\O,0,1.1511205522,-
 5.8088082761,0.8136765848\C,0,-2.0084306972,-7.6324378354,1.3885298328
 \H,0,-2.6929560804,-5.502703056,0.1538351996\H,0,-0.8111685493,-6.1198
 933795,2.3279393141\H,0,-2.8452197008,-7.4643475306,2.0719968962\H,0,-
 1.4303210898,-8.4851972353,1.7549028454\H,0,-2.4313954252,-7.895499606
 8,0.4103585943\N,0,0.2277154848,-7.4166665667,-0.4950130612\C,0,1.4541
 975798,-7.7155162143,-1.2519551046\C,0,1.3447213793,-7.0597420514,-2.6
 461176635\O,0,0.9580115267,-7.691104236,-3.6099321587\C,0,1.6463027357
 ,-9.2242219675,-1.3874984526\H,0,-0.5674949408,-8.0167697864,-0.671672
 9593\H,0,2.2742852977,-7.2832354509,-0.6764447636\H,0,1.6984977245,-9.
 6846600115,-0.3969064106\H,0,0.8292770339,-9.6697337658,-1.9619138413\
 H,0,2.574737599,-9.4385192368,-1.9237310071\N,0,1.5978203499,-5.691185
 0681,-2.7680929399\C,0,2.3756618246,-4.8089715249,-1.8891516893\C,0,1.
 446645275,-3.8132064957,-1.1839712534\O,0,1.8555266472,-2.9428480567,-
 0.4310671111\C,0,3.4839198396,-4.0719314361,-2.6512491332\O,0,0.141681
 5439,-3.9404285791,-1.4239379932\H,0,0.0378753719,-4.6967035409,-2.046
 1245626\H,0,1.5870851529,-5.4203391107,-3.7492828833\H,0,2.8152949086,
 -5.3882053278,-1.0752882757\H,0,4.0044248177,-3.3889797675,-1.97613800
 11\H,0,4.2007489341,-4.7915708822,-3.0550991802\H,0,3.0699914423,-3.48
 55034842,-3.4794028969\\Version=ES64L-G16RevC.01\HF=-1066.1700347\RMSD
 =5.619e-09\Dipole=-0.3738981,0.9297554,1.7797821\Quadrupole=-34.275674
 7,63.9864991,-29.7108244,1.5586241,-12.616127,-6.7922467\PG=C01 [X(C12
 H23N4O5)]\\@
 The archive entry for this job was punched.


 BOOKS ARE LIGHTHOUSES ERECTED IN THE GREAT SEA OF TIME.
     -- E.P.WHIPPLE
 Job cpu time:       0 days  0 hours  0 minutes 49.6 seconds.
 Elapsed time:       0 days  0 hours  0 minutes 13.1 seconds.
 File lengths (MBytes):  RWF=    184 Int=      0 D2E=      0 Chk=     24 Scr=     16
 Normal termination of Gaussian 16 at Sat Jun  4 17:08:22 2022.
