 Entering Gaussian System, Link 0=/opt/software/Gaussian/g16-AVX-C.01/g16/g16
 Input=charge-conf-304.com
 Output=charge-conf-304.log
 Initial command:
 /opt/software/Gaussian/g16-AVX-C.01/g16/l1.exe "/mnt/gs18/scratch/users/kengmith/Gau-13415.inp" -scrdir="/mnt/gs18/scratch/users/kengmith/"
 Entering Link 1 = /opt/software/Gaussian/g16-AVX-C.01/g16/l1.exe PID=     13464.
  
 Copyright (c) 1988-2019, Gaussian, Inc.  All Rights Reserved.
  
 This is part of the Gaussian(R) 16 program.  It is based on
 the Gaussian(R) 09 system (copyright 2009, Gaussian, Inc.),
 the Gaussian(R) 03 system (copyright 2003, Gaussian, Inc.),
 the Gaussian(R) 98 system (copyright 1998, Gaussian, Inc.),
 the Gaussian(R) 94 system (copyright 1995, Gaussian, Inc.),
 the Gaussian 92(TM) system (copyright 1992, Gaussian, Inc.),
 the Gaussian 90(TM) system (copyright 1990, Gaussian, Inc.),
 the Gaussian 88(TM) system (copyright 1988, Gaussian, Inc.),
 the Gaussian 86(TM) system (copyright 1986, Carnegie Mellon
 University), and the Gaussian 82(TM) system (copyright 1983,
 Carnegie Mellon University). Gaussian is a federally registered
 trademark of Gaussian, Inc.
  
 This software contains proprietary and confidential information,
 including trade secrets, belonging to Gaussian, Inc.
  
 This software is provided under written license and may be
 used, copied, transmitted, or stored only in accord with that
 written license.
  
 The following legend is applicable only to US Government
 contracts under FAR:
  
                    RESTRICTED RIGHTS LEGEND
  
 Use, reproduction and disclosure by the US Government is
 subject to restrictions as set forth in subparagraphs (a)
 and (c) of the Commercial Computer Software - Restricted
 Rights clause in FAR 52.227-19.
  
 Gaussian, Inc.
 340 Quinnipiac St., Bldg. 40, Wallingford CT 06492
  
  
 ---------------------------------------------------------------
 Warning -- This program may not be used in any manner that
 competes with the business of Gaussian, Inc. or will provide
 assistance to any competitor of Gaussian, Inc.  The licensee
 of this program is prohibited from giving any competitor of
 Gaussian, Inc. access to this program.  By using this program,
 the user acknowledges that Gaussian, Inc. is engaged in the
 business of creating and licensing software in the field of
 computational chemistry and represents and warrants to the
 licensee that it is not a competitor of Gaussian, Inc. and that
 it will not use this program in any manner prohibited above.
 ---------------------------------------------------------------
  

 Cite this work as:
 Gaussian 16, Revision C.01,
 M. J. Frisch, G. W. Trucks, H. B. Schlegel, G. E. Scuseria, 
 M. A. Robb, J. R. Cheeseman, G. Scalmani, V. Barone, 
 G. A. Petersson, H. Nakatsuji, X. Li, M. Caricato, A. V. Marenich, 
 J. Bloino, B. G. Janesko, R. Gomperts, B. Mennucci, H. P. Hratchian, 
 J. V. Ortiz, A. F. Izmaylov, J. L. Sonnenberg, D. Williams-Young, 
 F. Ding, F. Lipparini, F. Egidi, J. Goings, B. Peng, A. Petrone, 
 T. Henderson, D. Ranasinghe, V. G. Zakrzewski, J. Gao, N. Rega, 
 G. Zheng, W. Liang, M. Hada, M. Ehara, K. Toyota, R. Fukuda, 
 J. Hasegawa, M. Ishida, T. Nakajima, Y. Honda, O. Kitao, H. Nakai, 
 T. Vreven, K. Throssell, J. A. Montgomery, Jr., J. E. Peralta, 
 F. Ogliaro, M. J. Bearpark, J. J. Heyd, E. N. Brothers, K. N. Kudin, 
 V. N. Staroverov, T. A. Keith, R. Kobayashi, J. Normand, 
 K. Raghavachari, A. P. Rendell, J. C. Burant, S. S. Iyengar, 
 J. Tomasi, M. Cossi, J. M. Millam, M. Klene, C. Adamo, R. Cammi, 
 J. W. Ochterski, R. L. Martin, K. Morokuma, O. Farkas, 
 J. B. Foresman, and D. J. Fox, Gaussian, Inc., Wallingford CT, 2019.
 
 ******************************************
 Gaussian 16:  ES64L-G16RevC.01  3-Jul-2019
                 4-Jun-2022 
 ******************************************
 %mem=8gb
 %nproc=4
 Will use up to    4 processors via shared memory.
 %chk=conf-304.chk
 ----------------------------------------------------------------------
 # B3LYP/6-31G* empiricaldispersion=gd3 guess=read geom=check nosymm in
 tegral(ultrafinegrid)
 ----------------------------------------------------------------------
 1/29=2,38=1,172=1/1;
 2/12=2,15=1,40=1/2;
 3/5=1,6=6,7=1,11=2,14=-4,25=1,30=1,74=-5,75=-5,116=-2,124=31/1,2,3;
 4/5=1/1;
 5/5=2,38=6/2;
 6/7=2,8=2,9=2,10=2,28=1/1;
 99/5=1,9=1/99;
 ------------------------------------------------------
 Candidate Structure: Conf:304 Charge calc in gas phase
 ------------------------------------------------------
 Structure from the checkpoint file:  "conf-304.chk"
 Charge =  1 Multiplicity = 1
 Redundant internal coordinates found in file.  (old form).
 N,0,3.7126182956,-4.5002660129,-1.2802635454
 C,0,2.6987949264,-3.6538815431,-0.5515268116
 C,0,1.6284020065,-3.3621182765,-1.6249252022
 O,0,1.9795528727,-3.3167089567,-2.8009449479
 C,0,3.3341283385,-2.3496304514,-0.0651037731
 H,0,3.4545333501,-5.5205408864,-1.1852532771
 H,0,2.3052980432,-4.2551166351,0.2684586379
 H,0,3.7373147864,-1.7743983526,-0.9050895792
 H,0,2.5826549686,-1.7316883959,0.434667093
 H,0,4.1324954917,-2.5483815453,0.6577195627
 H,0,4.6641846905,-4.3611196825,-0.9319781939
 H,0,3.647842674,-4.2208574222,-2.2780313518
 N,0,0.359356918,-3.1051374047,-1.2269033763
 C,0,-0.2385199599,-3.2280206879,0.1102269447
 C,0,-0.4072371246,-4.7227623022,0.4797334458
 O,0,0.5530802554,-5.343163058,0.9427754819
 C,0,-1.5076605067,-2.3771476696,0.175218174
 H,0,-0.2656472764,-2.8916936123,-1.9976256737
 H,0,0.4740865875,-2.8490110173,0.8482042867
 H,0,-1.9918280014,-2.4835701647,1.1498409598
 H,0,-2.2301261475,-2.6565203305,-0.6025209124
 H,0,-1.2593747912,-1.3226147176,0.0271987375
 N,0,-1.6028276224,-5.3072892338,0.2346753249
 C,0,-1.9147422209,-6.6888143798,0.6352750491
 C,0,-1.9208655467,-7.5782920475,-0.6274267309
 O,0,-2.9553853147,-7.8353751709,-1.2111763119
 C,0,-3.2698793911,-6.7509616881,1.3361325468
 H,0,-2.3771980084,-4.7520259249,-0.1055591976
 H,0,-1.1224791829,-6.9872073768,1.3236631539
 H,0,-3.4803421085,-7.774505907,1.6578813067
 H,0,-3.2660832769,-6.1002464318,2.2150820105
 H,0,-4.0728569846,-6.4526848775,0.6562658158
 N,0,-0.699995437,-8.0028909948,-1.1575074182
 C,0,0.6061262421,-8.1246695604,-0.4979136579
 C,0,1.5798097533,-7.0800408797,-1.0569240397
 O,0,2.7458955182,-7.0026829327,-0.7023567871
 C,0,1.1880524964,-9.537126315,-0.6341635734
 O,0,1.092068629,-6.2329471389,-1.9632236671
 H,0,0.1452955264,-6.4694680622,-2.0954379676
 H,0,-0.8594881993,-8.6575168429,-1.920536172
 H,0,0.5146165416,-7.8678254267,0.5589042302
 H,0,1.285750663,-9.8232542776,-1.6875657027
 H,0,2.1795773668,-9.5732783756,-0.1773449493
 H,0,0.5368301491,-10.2584955801,-0.133815332
 Recover connectivity data from disk.
                           ----------------------------
                           !    Current Parameters    !
                           ! (Angstroms and Degrees)  !
 --------------------------                            --------------------------
 ! Name  Definition              Value                                          !
 --------------------------------------------------------------------------------
 ! R1    R(1,2)                  1.5084                                         !
 ! R2    R(1,6)                  1.0567                                         !
 ! R3    R(1,11)                 1.0228                                         !
 ! R4    R(1,12)                 1.0382                                         !
 ! R5    R(2,3)                  1.5437                                         !
 ! R6    R(2,5)                  1.5301                                         !
 ! R7    R(2,7)                  1.0903                                         !
 ! R8    R(3,4)                  1.2282                                         !
 ! R9    R(3,13)                 1.3546                                         !
 ! R10   R(5,8)                  1.095                                          !
 ! R11   R(5,9)                  1.0938                                         !
 ! R12   R(5,10)                 1.0952                                         !
 ! R13   R(13,14)                1.4699                                         !
 ! R14   R(13,18)                1.015                                          !
 ! R15   R(14,15)                1.549                                          !
 ! R16   R(14,17)                1.5294                                         !
 ! R17   R(14,19)                1.0936                                         !
 ! R18   R(15,16)                1.2335                                         !
 ! R19   R(15,23)                1.3532                                         !
 ! R20   R(17,20)                1.0935                                         !
 ! R21   R(17,21)                1.0977                                         !
 ! R22   R(17,22)                1.0934                                         !
 ! R23   R(23,24)                1.4719                                         !
 ! R24   R(23,28)                1.0118                                         !
 ! R25   R(24,25)                1.5445                                         !
 ! R26   R(24,27)                1.5269                                         !
 ! R27   R(24,29)                1.0911                                         !
 ! R28   R(25,26)                1.2154                                         !
 ! R29   R(25,33)                1.3971                                         !
 ! R30   R(27,30)                1.0934                                         !
 ! R31   R(27,31)                1.0936                                         !
 ! R32   R(27,32)                1.0936                                         !
 ! R33   R(33,34)                1.4683                                         !
 ! R34   R(33,40)                1.0179                                         !
 ! R35   R(34,35)                1.5336                                         !
 ! R36   R(34,37)                1.5337                                         !
 ! R37   R(34,41)                1.0914                                         !
 ! R38   R(35,36)                1.2213                                         !
 ! R39   R(35,38)                1.333                                          !
 ! R40   R(37,42)                1.0959                                         !
 ! R41   R(37,43)                1.0923                                         !
 ! R42   R(37,44)                1.0931                                         !
 ! R43   R(38,39)                0.9848                                         !
 ! A1    A(2,1,6)              109.5228                                         !
 ! A2    A(2,1,11)             112.61                                           !
 ! A3    A(2,1,12)             105.7455                                         !
 ! A4    A(6,1,11)             109.1452                                         !
 ! A5    A(6,1,12)             109.3316                                         !
 ! A6    A(11,1,12)            110.4077                                         !
 ! A7    A(1,2,3)              103.6601                                         !
 ! A8    A(1,2,5)              110.658                                          !
 ! A9    A(1,2,7)              107.2475                                         !
 ! A10   A(3,2,5)              110.3557                                         !
 ! A11   A(3,2,7)              112.1434                                         !
 ! A12   A(5,2,7)              112.3842                                         !
 ! A13   A(2,3,4)              118.3301                                         !
 ! A14   A(2,3,13)             118.7599                                         !
 ! A15   A(4,3,13)             122.8334                                         !
 ! A16   A(2,5,8)              110.9037                                         !
 ! A17   A(2,5,9)              109.971                                          !
 ! A18   A(2,5,10)             110.9661                                         !
 ! A19   A(8,5,9)              107.8602                                         !
 ! A20   A(8,5,10)             109.4644                                         !
 ! A21   A(9,5,10)             107.5663                                         !
 ! A22   A(3,13,14)            129.2353                                         !
 ! A23   A(3,13,18)            113.1825                                         !
 ! A24   A(14,13,18)           117.2506                                         !
 ! A25   A(13,14,15)           109.9984                                         !
 ! A26   A(13,14,17)           109.2503                                         !
 ! A27   A(13,14,19)           108.6533                                         !
 ! A28   A(15,14,17)           115.8719                                         !
 ! A29   A(15,14,19)           104.148                                          !
 ! A30   A(17,14,19)           108.6167                                         !
 ! A31   A(14,15,16)           119.3477                                         !
 ! A32   A(14,15,23)           118.0262                                         !
 ! A33   A(16,15,23)           122.5868                                         !
 ! A34   A(14,17,20)           110.5594                                         !
 ! A35   A(14,17,21)           111.9923                                         !
 ! A36   A(14,17,22)           110.022                                          !
 ! A37   A(20,17,21)           108.3808                                         !
 ! A38   A(20,17,22)           108.365                                          !
 ! A39   A(21,17,22)           107.3974                                         !
 ! A40   A(15,23,24)           122.9148                                         !
 ! A41   A(15,23,28)           120.0029                                         !
 ! A42   A(24,23,28)           116.3875                                         !
 ! A43   A(23,24,25)           108.5946                                         !
 ! A44   A(23,24,27)           110.5613                                         !
 ! A45   A(23,24,29)           105.9335                                         !
 ! A46   A(25,24,27)           110.3826                                         !
 ! A47   A(25,24,29)           111.1713                                         !
 ! A48   A(27,24,29)           110.102                                          !
 ! A49   A(24,25,26)           121.1886                                         !
 ! A50   A(24,25,33)           118.7995                                         !
 ! A51   A(26,25,33)           119.8232                                         !
 ! A52   A(24,27,30)           110.1213                                         !
 ! A53   A(24,27,31)           109.9748                                         !
 ! A54   A(24,27,32)           110.8055                                         !
 ! A55   A(30,27,31)           108.7338                                         !
 ! A56   A(30,27,32)           107.2736                                         !
 ! A57   A(31,27,32)           109.8713                                         !
 ! A58   A(25,33,34)           129.2073                                         !
 ! A59   A(25,33,40)           110.0561                                         !
 ! A60   A(34,33,40)           115.01                                           !
 ! A61   A(33,34,35)           110.1542                                         !
 ! A62   A(33,34,37)           111.9623                                         !
 ! A63   A(33,34,41)           109.9306                                         !
 ! A64   A(35,34,37)           110.7348                                         !
 ! A65   A(35,34,41)           104.2346                                         !
 ! A66   A(37,34,41)           109.5457                                         !
 ! A67   A(34,35,36)           122.9259                                         !
 ! A68   A(34,35,38)           116.6412                                         !
 ! A69   A(36,35,38)           120.4321                                         !
 ! A70   A(34,37,42)           111.0791                                         !
 ! A71   A(34,37,43)           109.7398                                         !
 ! A72   A(34,37,44)           109.9414                                         !
 ! A73   A(42,37,43)           108.2055                                         !
 ! A74   A(42,37,44)           108.7108                                         !
 ! A75   A(43,37,44)           109.1188                                         !
 ! A76   A(35,38,39)           106.8838                                         !
 ! D1    D(6,1,2,3)            -89.7957                                         !
 ! D2    D(6,1,2,5)            151.8968                                         !
 ! D3    D(6,1,2,7)             28.9952                                         !
 ! D4    D(11,1,2,3)           148.5628                                         !
 ! D5    D(11,1,2,5)            30.2553                                         !
 ! D6    D(11,1,2,7)           -92.6463                                         !
 ! D7    D(12,1,2,3)            27.9073                                         !
 ! D8    D(12,1,2,5)           -90.4002                                         !
 ! D9    D(12,1,2,7)           146.6982                                         !
 ! D10   D(1,2,3,4)            -29.2735                                         !
 ! D11   D(1,2,3,13)           153.8185                                         !
 ! D12   D(5,2,3,4)             89.2429                                         !
 ! D13   D(5,2,3,13)           -87.665                                          !
 ! D14   D(7,2,3,4)           -144.6351                                         !
 ! D15   D(7,2,3,13)            38.457                                          !
 ! D16   D(1,2,5,8)             59.0774                                         !
 ! D17   D(1,2,5,9)            178.2935                                         !
 ! D18   D(1,2,5,10)           -62.8161                                         !
 ! D19   D(3,2,5,8)            -55.07                                           !
 ! D20   D(3,2,5,9)             64.1461                                         !
 ! D21   D(3,2,5,10)          -176.9635                                         !
 ! D22   D(7,2,5,8)            178.9435                                         !
 ! D23   D(7,2,5,9)            -61.8405                                         !
 ! D24   D(7,2,5,10)            57.05                                           !
 ! D25   D(2,3,13,14)           -9.0092                                         !
 ! D26   D(2,3,13,18)          177.8778                                         !
 ! D27   D(4,3,13,14)          174.2302                                         !
 ! D28   D(4,3,13,18)            1.1171                                         !
 ! D29   D(3,13,14,15)         -71.8072                                         !
 ! D30   D(3,13,14,17)         159.9527                                         !
 ! D31   D(3,13,14,19)          41.6078                                         !
 ! D32   D(18,13,14,15)        101.0703                                         !
 ! D33   D(18,13,14,17)        -27.1697                                         !
 ! D34   D(18,13,14,19)       -145.5146                                         !
 ! D35   D(13,14,15,16)         82.9349                                         !
 ! D36   D(13,14,15,23)        -94.8448                                         !
 ! D37   D(17,14,15,16)       -152.5633                                         !
 ! D38   D(17,14,15,23)         29.657                                          !
 ! D39   D(19,14,15,16)        -33.3447                                         !
 ! D40   D(19,14,15,23)        148.8756                                         !
 ! D41   D(13,14,17,20)        177.8008                                         !
 ! D42   D(13,14,17,21)         56.8242                                         !
 ! D43   D(13,14,17,22)        -62.5411                                         !
 ! D44   D(15,14,17,20)         52.9137                                         !
 ! D45   D(15,14,17,21)        -68.063                                          !
 ! D46   D(15,14,17,22)        172.5718                                         !
 ! D47   D(19,14,17,20)        -63.8314                                         !
 ! D48   D(19,14,17,21)        175.1919                                         !
 ! D49   D(19,14,17,22)         55.8267                                         !
 ! D50   D(14,15,23,24)       -175.2182                                         !
 ! D51   D(14,15,23,28)         -5.1202                                         !
 ! D52   D(16,15,23,24)          7.0788                                         !
 ! D53   D(16,15,23,28)        177.1768                                         !
 ! D54   D(15,23,24,25)       -106.5795                                         !
 ! D55   D(15,23,24,27)        132.1775                                         !
 ! D56   D(15,23,24,29)         12.9137                                         !
 ! D57   D(28,23,24,25)         82.9899                                         !
 ! D58   D(28,23,24,27)        -38.2531                                         !
 ! D59   D(28,23,24,29)       -157.5168                                         !
 ! D60   D(23,24,25,26)        -95.8809                                         !
 ! D61   D(23,24,25,33)         79.1175                                         !
 ! D62   D(27,24,25,26)         25.4718                                         !
 ! D63   D(27,24,25,33)       -159.5298                                         !
 ! D64   D(29,24,25,26)        147.9574                                         !
 ! D65   D(29,24,25,33)        -37.0442                                         !
 ! D66   D(23,24,27,30)       -178.2575                                         !
 ! D67   D(23,24,27,31)        -58.4487                                         !
 ! D68   D(23,24,27,32)         63.2198                                         !
 ! D69   D(25,24,27,30)         61.5648                                         !
 ! D70   D(25,24,27,31)       -178.6264                                         !
 ! D71   D(25,24,27,32)        -56.9579                                         !
 ! D72   D(29,24,27,30)        -61.5457                                         !
 ! D73   D(29,24,27,31)         58.2631                                         !
 ! D74   D(29,24,27,32)        179.9316                                         !
 ! D75   D(24,25,33,34)         22.4538                                         !
 ! D76   D(24,25,33,40)        173.9357                                         !
 ! D77   D(26,25,33,34)       -162.4778                                         !
 ! D78   D(26,25,33,40)        -10.996                                          !
 ! D79   D(25,33,34,35)       -111.6463                                         !
 ! D80   D(25,33,34,37)        124.6671                                         !
 ! D81   D(25,33,34,41)          2.6655                                         !
 ! D82   D(40,33,34,35)         98.0161                                         !
 ! D83   D(40,33,34,37)        -25.6705                                         !
 ! D84   D(40,33,34,41)       -147.6721                                         !
 ! D85   D(33,34,35,36)       -177.5638                                         !
 ! D86   D(33,34,35,38)          2.762                                          !
 ! D87   D(37,34,35,36)        -53.1669                                         !
 ! D88   D(37,34,35,38)        127.1589                                         !
 ! D89   D(41,34,35,36)         64.5495                                         !
 ! D90   D(41,34,35,38)       -115.1247                                         !
 ! D91   D(33,34,37,42)         57.4696                                         !
 ! D92   D(33,34,37,43)        177.0766                                         !
 ! D93   D(33,34,37,44)        -62.8995                                         !
 ! D94   D(35,34,37,42)        -65.8903                                         !
 ! D95   D(35,34,37,43)         53.7166                                         !
 ! D96   D(35,34,37,44)        173.7405                                         !
 ! D97   D(41,34,37,42)        179.6913                                         !
 ! D98   D(41,34,37,43)        -60.7018                                         !
 ! D99   D(41,34,37,44)         59.3221                                         !
 ! D100  D(34,35,38,39)         -0.0531                                         !
 ! D101  D(36,35,38,39)       -179.7359                                         !
 --------------------------------------------------------------------------------
                          Input orientation:                          
 ---------------------------------------------------------------------
 Center     Atomic      Atomic             Coordinates (Angstroms)
 Number     Number       Type             X           Y           Z
 ---------------------------------------------------------------------
      1          7           0        3.712618   -4.500266   -1.280264
      2          6           0        2.698795   -3.653882   -0.551527
      3          6           0        1.628402   -3.362118   -1.624925
      4          8           0        1.979553   -3.316709   -2.800945
      5          6           0        3.334128   -2.349630   -0.065104
      6          1           0        3.454533   -5.520541   -1.185253
      7          1           0        2.305298   -4.255117    0.268459
      8          1           0        3.737315   -1.774398   -0.905090
      9          1           0        2.582655   -1.731688    0.434667
     10          1           0        4.132495   -2.548382    0.657720
     11          1           0        4.664185   -4.361120   -0.931978
     12          1           0        3.647843   -4.220857   -2.278031
     13          7           0        0.359357   -3.105137   -1.226903
     14          6           0       -0.238520   -3.228021    0.110227
     15          6           0       -0.407237   -4.722762    0.479733
     16          8           0        0.553080   -5.343163    0.942775
     17          6           0       -1.507661   -2.377148    0.175218
     18          1           0       -0.265647   -2.891694   -1.997626
     19          1           0        0.474087   -2.849011    0.848204
     20          1           0       -1.991828   -2.483570    1.149841
     21          1           0       -2.230126   -2.656520   -0.602521
     22          1           0       -1.259375   -1.322615    0.027199
     23          7           0       -1.602828   -5.307289    0.234675
     24          6           0       -1.914742   -6.688814    0.635275
     25          6           0       -1.920866   -7.578292   -0.627427
     26          8           0       -2.955385   -7.835375   -1.211176
     27          6           0       -3.269879   -6.750962    1.336133
     28          1           0       -2.377198   -4.752026   -0.105559
     29          1           0       -1.122479   -6.987207    1.323663
     30          1           0       -3.480342   -7.774506    1.657881
     31          1           0       -3.266083   -6.100246    2.215082
     32          1           0       -4.072857   -6.452685    0.656266
     33          7           0       -0.699995   -8.002891   -1.157507
     34          6           0        0.606126   -8.124670   -0.497914
     35          6           0        1.579810   -7.080041   -1.056924
     36          8           0        2.745896   -7.002683   -0.702357
     37          6           0        1.188052   -9.537126   -0.634164
     38          8           0        1.092069   -6.232947   -1.963224
     39          1           0        0.145296   -6.469468   -2.095438
     40          1           0       -0.859488   -8.657517   -1.920536
     41          1           0        0.514617   -7.867825    0.558904
     42          1           0        1.285751   -9.823254   -1.687566
     43          1           0        2.179577   -9.573278   -0.177345
     44          1           0        0.536830  -10.258496   -0.133815
 ---------------------------------------------------------------------
                    Distance matrix (angstroms):
                    1          2          3          4          5
     1  N    0.000000
     2  C    1.508397   0.000000
     3  C    2.399610   1.543713   0.000000
     4  O    2.591678   2.385556   1.228166   0.000000
     5  C    2.499020   1.530139   2.523426   3.202334   0.000000
     6  H    1.056691   2.111200   2.861268   3.105302   3.365101
     7  H    2.106938   1.090275   2.200122   3.226137   2.191035
     8  H    2.751676   2.176232   2.736153   3.010435   1.095001
     9  H    3.447148   2.163537   2.794785   3.653109   1.093771
    10  H    2.782432   2.177132   3.484698   4.145823   1.095156
    11  H    1.022811   2.123131   3.270192   3.433814   2.562540
    12  H    1.038174   2.050115   2.289568   1.968277   2.914954
    13  N    3.632299   2.496042   1.354598   2.268789   3.281743
    14  C    4.377621   3.040904   2.552280   3.660961   3.683222
    15  C    4.485566   3.442882   3.228741   4.293787   4.463902
    16  O    3.954119   3.112989   3.416715   4.489631   4.208478
    17  C    5.820427   4.455612   3.747742   4.679848   4.847827
    18  H    4.350714   3.385270   1.986864   2.422165   4.121512
    19  H    4.212494   2.748889   2.777065   3.975105   3.043575
    20  H    6.520213   5.125058   4.645131   5.663453   5.464416
    21  H    6.258989   5.029075   4.053569   4.794822   5.598565
    22  H    6.043810   4.629993   3.902351   4.739774   4.707818
    23  N    5.585722   4.675022   4.205074   5.100083   5.762911
    24  C    6.334526   5.648366   5.359970   6.192272   6.846144
    25  C    6.452641   6.062015   5.600752   6.172401   7.434384
    26  O    7.455870   7.063270   6.418124   6.877450   8.424064
    27  C    7.788866   6.984285   6.651713   7.514389   8.059038
    28  H    6.207187   5.212534   4.503904   5.320387   6.196159
    29  H    6.028555   5.406435   5.422434   6.333052   6.580057
    30  H    8.431608   7.748727   7.506347   8.340476   8.878905
    31  H    7.967412   7.015597   6.796984   7.773372   7.926485
    32  H    8.256858   7.426125   6.874576   7.643188   8.498168
    33  N    5.635123   5.552736   5.213126   5.642798   7.030424
    34  C    4.837217   4.936606   4.999710   5.505156   6.401593
    35  C    3.354697   3.639522   3.761374   4.167022   5.141802
    36  O    2.744197   3.352527   3.918372   4.310192   4.733181
    37  C    5.671053   6.074680   6.269469   6.634381   7.522604
    38  O    3.214949   3.350528   2.940027   3.161305   4.869275
    39  H    4.155485   4.102627   3.475142   3.715122   5.591420
    40  H    6.212636   6.290623   5.858176   6.112242   7.798620
    41  H    4.995018   4.874527   5.129427   5.843568   6.228122
    42  H    5.864280   6.430275   6.470519   6.637477   7.917278
    43  H    5.413141   5.953894   6.401390   6.787337   7.316193
    44  H    6.675117   6.962004   7.139675   7.575185   8.389264
                    6          7          8          9         10
     6  H    0.000000
     7  H    2.243952   0.000000
     8  H    3.767233   3.095456   0.000000
     9  H    4.211854   2.544060   1.769184   0.000000
    10  H    3.562290   2.530439   1.788181   1.765997   0.000000
    11  H    1.694598   2.648892   2.747897   3.621380   2.468978
    12  H    1.709008   2.878925   2.806802   3.832665   3.413312
    13  N    3.926325   2.710212   3.644863   3.096810   4.254216
    14  C    4.535698   2.747903   4.353292   3.209875   4.457290
    15  C    4.280409   2.760648   5.271423   4.229422   5.036743
    16  O    3.602555   2.169981   5.127381   4.173739   4.550195
    17  C    6.029525   4.251366   5.388890   4.149050   5.663346
    18  H    4.627151   3.688336   4.297172   3.921031   5.149018
    19  H    4.489441   2.380457   3.857135   2.421876   3.675679
    20  H    6.658732   4.730804   6.127703   4.690703   6.144406
    21  H    6.391991   4.887145   6.039871   5.009385   6.487130
    22  H    6.427562   4.622193   5.102958   3.885172   5.565279
    23  N    5.257240   4.047426   6.503653   5.508465   6.378438
    24  C    5.788636   4.885302   7.646565   6.696262   7.328900
    25  C    5.782770   5.450373   8.110320   7.456039   7.974634
    26  O    6.815144   6.533174   9.034454   8.404385   9.037872
    27  C    7.286223   6.200949   8.882006   7.762596   8.539150
    28  H    5.980422   4.723619   6.847830   5.832189   6.914821
    29  H    5.421699   4.508595   7.467149   6.491442   6.910963
    30  H    7.826638   6.913048   9.729578   8.647071   9.288057
    31  H    7.554140   6.183376   8.803182   7.514114   8.353448
    32  H    7.805235   6.757260   9.237044   8.162889   9.086880
    33  N    4.839725   5.011086   7.651638   7.255260   7.509973
    34  C    3.920121   4.295108   7.091973   6.756225   6.698191
    35  C    2.441945   3.203618   5.729548   5.642288   5.476508
    36  O    1.712338   2.947156   5.325314   5.394706   4.859349
    37  C    4.644738   5.473810   8.175089   8.000761   7.692936
    38  O    2.587277   3.219339   5.291090   5.313479   5.448813
    39  H    3.560892   3.893195   6.030192   5.898195   6.233182
    40  H    5.384426   5.847110   8.339008   8.084704   8.299930
    41  H    4.146678   4.042594   7.046908   6.476449   6.433918
    42  H    4.844510   5.989129   8.450238   8.465180   8.156475
    43  H    4.366471   5.338295   7.986156   7.875758   7.338964
    44  H    5.662749   6.271352   9.100432   8.787207   8.544074
                   11         12         13         14         15
    11  H    0.000000
    12  H    1.692479   0.000000
    13  N    4.493998   3.628201   0.000000
    14  C    5.138737   4.668331   1.469855   0.000000
    15  C    5.276650   4.929589   2.473254   1.548952   0.000000
    16  O    4.623883   4.605510   3.123106   2.406989   1.233497
    17  C    6.576755   5.999743   2.445745   1.529355   2.608749
    18  H    5.253386   4.142548   1.014988   2.134688   3.083856
    19  H    4.797129   4.661335   2.094000   1.093648   2.103199
    20  H    7.222304   6.824541   3.400490   2.170044   2.823819
    21  H    7.109552   6.309121   2.701210   2.191145   2.960330
    22  H    6.726150   6.147738   2.714858   2.163241   3.534392
    23  N    6.444514   5.921450   3.291786   2.490016   1.353204
    24  C    7.152393   6.746889   4.634865   3.881042   2.482363
    25  C    7.335246   6.708754   5.056471   4.722211   3.416274
    26  O    8.378917   7.602995   5.776064   5.509553   4.363553
    27  C    8.590986   8.204784   5.747395   4.806568   3.611334
    28  H    7.100482   6.426732   3.385024   2.634976   2.055279
    29  H    6.743125   6.586415   4.875623   4.047875   2.520218
    30  H    9.202820   8.884303   6.698378   5.794409   4.488334
    31  H    8.707336   8.457100   5.827672   4.673996   3.616891
    32  H    9.123216   8.555721   5.864889   5.039718   4.057162
    33  N    6.487510   5.870524   5.011490   4.961804   3.677704
    34  C    5.551627   5.259335   5.078191   5.006040   3.681803
    35  C    4.113577   3.734005   4.161521   4.416630   3.444769
    36  O    3.272677   3.321869   4.600171   4.880072   4.066647
    37  C    6.242054   6.084043   6.512185   6.511071   5.192669
    38  O    4.162598   3.267964   3.295789   3.885775   3.239848
    39  H    5.120462   4.166225   3.481220   3.939448   3.160345
    40  H    7.067336   6.334649   5.726747   5.830011   4.631211
    41  H    5.633705   5.582623   5.088852   4.721897   3.278339
    42  H    6.466811   6.108599   6.797316   7.003754   5.794688
    43  H    5.823173   5.934399   6.800855   6.796483   5.536323
    44  H    7.242317   7.122439   7.238568   7.077309   5.649075
                   16         17         18         19         20
    16  O    0.000000
    17  C    3.692295   0.000000
    18  H    3.914841   2.555113   0.000000
    19  H    2.497194   2.145434   2.940710   0.000000
    20  H    3.833628   1.093450   3.612867   2.511029   0.000000
    21  H    4.165601   1.097672   2.420909   3.074805   1.776927
    22  H    4.504229   1.093433   2.747620   2.451290   1.773311
    23  N    2.269500   2.932289   3.550538   3.276144   2.993700
    24  C    2.827628   4.355208   4.906099   4.527243   4.237310
    25  C    3.685342   5.278909   5.155715   5.502670   5.396286
    26  O    4.812480   5.814658   5.682709   6.392664   5.928293
    27  C    4.092878   4.856273   5.918894   5.429602   4.458559
    28  H    3.167804   2.544598   3.391076   3.558223   2.621151
    29  H    2.378120   4.766544   5.342130   4.460914   4.590069
    30  H    4.763539   5.934748   6.894842   6.368170   5.519763
    31  H    4.096090   4.595058   6.086406   5.140793   3.979801
    32  H    4.765755   4.839591   5.849670   5.804998   4.508677
    33  N    3.613245   5.837591   5.197961   5.653656   6.120097
    34  C    3.132918   6.160780   5.512999   5.446287   6.425454
    35  C    2.840725   5.759154   4.672567   4.770089   6.225267
    36  O    3.204513   6.344955   5.258074   4.981801   6.804340
    37  C    4.525401   7.693326   6.937871   6.887528   7.940212
    38  O    3.086593   5.118468   3.606737   4.442640   5.767098
    39  H    3.265822   4.963389   3.602626   4.677696   5.566553
    40  H    4.602048   6.652470   5.796836   6.571384   6.987634
    41  H    2.553969   5.863818   5.648588   5.027309   5.968390
    42  H    5.246591   8.168085   7.109818   7.465186   8.524339
    43  H    4.668409   8.093474   7.344121   7.012576   8.332227
    44  H    5.031879   8.148073   7.641173   7.474541   8.275950
                   21         22         23         24         25
    21  H    0.000000
    22  H    1.765845   0.000000
    23  N    2.849733   4.004827   0.000000
    24  C    4.229776   5.440162   1.471864   0.000000
    25  C    4.931541   6.324524   2.449862   1.544546   0.000000
    26  O    5.264694   6.842958   3.211093   2.409756   1.215354
    27  C    4.648001   5.934845   2.465048   1.526912   2.521880
    28  H    2.158644   3.609434   1.011794   2.124582   2.910046
    29  H    4.867434   5.812673   2.058823   1.091145   2.189419
    30  H    5.732908   7.015606   3.411412   2.162303   2.773644
    31  H    4.568516   5.624898   2.705034   2.160631   3.474778
    32  H    4.403529   5.884643   2.755125   2.171096   2.746985
    33  N    5.588648   6.807534   3.165367   2.533076   1.397066
    34  C    6.160838   7.072750   3.654285   3.114575   2.588627
    35  C    5.855735   6.510319   3.865237   3.902370   3.561945
    36  O    6.607563   6.988392   4.760649   4.858942   4.702723
    37  C    7.682948   8.596831   5.141538   4.399056   3.674568
    38  O    5.067477   5.796760   3.598620   4.000115   3.559786
    39  H    4.733920   5.741845   3.136243   3.427632   2.766508
    40  H    6.295059   7.599630   4.052347   3.394337   1.990824
    41  H    6.003351   6.802172   3.338419   2.701423   2.724479
    42  H    8.056102   9.037641   5.694983   5.046133   4.055384
    43  H    8.213879   8.941011   5.716206   5.073848   4.582158
    44  H    8.103441   9.116043   5.406326   4.398219   3.669797
                   26         27         28         29         30
    26  O    0.000000
    27  C    2.786331   0.000000
    28  H    3.326219   2.621278   0.000000
    29  H    3.241041   2.160392   2.934797   0.000000
    30  H    2.917323   1.093371   3.669065   2.508198   0.000000
    31  H    3.853109   1.093616   2.827223   2.485230   1.777505
    32  H    2.578355   1.093600   2.519499   3.071785   1.761113
    33  N    2.262239   3.793398   3.806275   2.714095   3.963446
    34  C    3.643734   4.502690   4.519833   2.756817   4.633497
    35  C    4.600252   5.417979   4.688567   3.602524   5.784253
    36  O    5.784192   6.356756   5.627407   4.366843   6.703169
    37  C    4.516301   5.614084   5.990628   3.959006   5.491285
    38  O    4.417605   5.493695   4.204742   4.034446   6.032889
    39  H    3.501691   4.849571   3.643103   3.683145   5.379199
    40  H    2.360486   4.477815   4.566229   3.658405   4.522572
    41  H    3.895530   4.021676   4.302593   2.010081   4.144412
    42  H    4.708062   6.271802   6.452697   4.786463   6.172927
    43  H    5.518782   6.320812   6.634292   4.454702   6.215973
    44  H    4.384950   5.380946   6.230053   3.947009   5.051540
                   31         32         33         34         35
    31  H    0.000000
    32  H    1.790253   0.000000
    33  N    4.645344   4.131478   0.000000
    34  C    5.143213   5.101034   1.468281   0.000000
    35  C    5.928634   5.939801   2.461561   1.533558   0.000000
    36  O    6.743125   6.974506   3.616869   2.424719   1.221253
    37  C    6.306320   6.233471   2.488472   1.533700   2.523781
    38  O    6.038985   5.795383   2.644499   2.441698   1.332981
    39  H    5.509484   5.036364   1.986358   2.346091   1.873270
    40  H    5.425373   4.671930   1.017932   2.110878   3.030583
    41  H    4.490095   4.801772   2.107034   1.091424   2.089532
    42  H    7.057665   6.750479   2.745519   2.182281   2.830088
    43  H    6.887734   7.037467   3.423270   2.162633   2.711017
    44  H    6.104957   6.029730   2.768652   2.165775   3.470232
                   36         37         38         39         40
    36  O    0.000000
    37  C    2.975723   0.000000
    38  O    2.217526   3.562754   0.000000
    39  H    2.998018   3.554320   0.984785   0.000000
    40  H    4.149847   2.573109   3.112705   2.414071   0.000000
    41  H    2.705154   2.159512   3.060622   3.022802   2.942686
    42  H    3.325400   1.095933   3.606079   3.565793   2.452604
    43  H    2.684085   1.092297   3.940793   4.177442   3.621223
    44  H    3.975365   1.093075   4.456463   4.284623   2.775826
                   41         42         43         44
    41  H    0.000000
    42  H    3.076520   0.000000
    43  H    2.494539   1.772620   0.000000
    44  H    2.489108   1.778892   1.780459   0.000000
 Symmetry turned off by external request.
 Stoichiometry    C12H23N4O5(1+)
 Framework group  C1[X(C12H23N4O5)]
 Deg. of freedom   126
 Full point group                 C1      NOp   1
 Rotational constants (GHZ):           0.4194536           0.2550312           0.1875598
 Standard basis: 6-31G(d) (6D, 7F)
   361 basis functions,   680 primitive gaussians,   361 cartesian basis functions
    81 alpha electrons       81 beta electrons
       nuclear repulsion energy      1961.8621310574 Hartrees.
 NAtoms=   44 NActive=   44 NUniq=   44 SFac= 1.00D+00 NAtFMM=   60 NAOKFM=F Big=F
 Integral buffers will be    131072 words long.
 Raffenetti 2 integral format.
 Two-electron integral symmetry is turned off.
 Nuclear repulsion after empirical dispersion term =     1961.8042938019 Hartrees.
 One-electron integrals computed using PRISM.
 NBasis=   361 RedAO= T EigKep=  2.20D-03  NBF=   361
 NBsUse=   361 1.00D-06 EigRej= -1.00D+00 NBFU=   361
 Initial guess from the checkpoint file:  "conf-304.chk"
 B after Tr=     0.000000    0.000000    0.000000
         Rot=    1.000000    0.000000    0.000000    0.000000 Ang=   0.00 deg.
 Requested convergence on RMS density matrix=1.00D-08 within 128 cycles.
 Requested convergence on MAX density matrix=1.00D-06.
 Requested convergence on             energy=1.00D-06.
 No special actions if energy rises.
 SCF Done:  E(RB3LYP) =  -1066.17003450     A.U. after    2 cycles
            NFock=  2  Conv=0.80D-08     -V/T= 2.0093

 **********************************************************************

            Population analysis using the SCF Density.

 **********************************************************************

 Alpha  occ. eigenvalues --  -19.33335 -19.28177 -19.26206 -19.25706 -19.24518
 Alpha  occ. eigenvalues --  -14.57226 -14.50766 -14.50567 -14.49496 -10.45953
 Alpha  occ. eigenvalues --  -10.43644 -10.42914 -10.41811 -10.39077 -10.38297
 Alpha  occ. eigenvalues --  -10.37419 -10.36291 -10.33025 -10.32269 -10.30528
 Alpha  occ. eigenvalues --  -10.29161  -1.24661  -1.18740  -1.17678  -1.16608
 Alpha  occ. eigenvalues --   -1.15973  -1.11986  -1.07147  -1.06373  -1.05296
 Alpha  occ. eigenvalues --   -0.92545  -0.91263  -0.89801  -0.88372  -0.80830
 Alpha  occ. eigenvalues --   -0.79724  -0.78982  -0.77990  -0.74512  -0.73758
 Alpha  occ. eigenvalues --   -0.72968  -0.72128  -0.71120  -0.70545  -0.66958
 Alpha  occ. eigenvalues --   -0.66200  -0.64252  -0.62650  -0.61878  -0.61558
 Alpha  occ. eigenvalues --   -0.60485  -0.60220  -0.59219  -0.58454  -0.57192
 Alpha  occ. eigenvalues --   -0.55969  -0.55120  -0.54999  -0.54085  -0.53736
 Alpha  occ. eigenvalues --   -0.53355  -0.52862  -0.52453  -0.52303  -0.51709
 Alpha  occ. eigenvalues --   -0.51190  -0.50928  -0.50346  -0.50018  -0.49330
 Alpha  occ. eigenvalues --   -0.49140  -0.49005  -0.47464  -0.45431  -0.43316
 Alpha  occ. eigenvalues --   -0.41588  -0.40866  -0.40347  -0.38945  -0.38194
 Alpha  occ. eigenvalues --   -0.36889
 Alpha virt. eigenvalues --   -0.13877  -0.13014  -0.11585  -0.10494  -0.07821
 Alpha virt. eigenvalues --   -0.05869  -0.04097  -0.03335  -0.02776  -0.01769
 Alpha virt. eigenvalues --   -0.01639  -0.00103   0.00379   0.01518   0.01869
 Alpha virt. eigenvalues --    0.02145   0.02547   0.02769   0.03688   0.04189
 Alpha virt. eigenvalues --    0.04432   0.04910   0.05587   0.05736   0.05902
 Alpha virt. eigenvalues --    0.06499   0.06811   0.07394   0.08274   0.08735
 Alpha virt. eigenvalues --    0.09293   0.10075   0.10469   0.11487   0.12254
 Alpha virt. eigenvalues --    0.13085   0.13325   0.13903   0.14741   0.18060
 Alpha virt. eigenvalues --    0.21106   0.21730   0.22534   0.25968   0.26560
 Alpha virt. eigenvalues --    0.27278   0.29379   0.32737   0.35102   0.35613
 Alpha virt. eigenvalues --    0.37139   0.37890   0.38817   0.39502   0.39936
 Alpha virt. eigenvalues --    0.41089   0.42371   0.43164   0.43658   0.44634
 Alpha virt. eigenvalues --    0.45065   0.46680   0.47540   0.47919   0.49092
 Alpha virt. eigenvalues --    0.49636   0.49895   0.51156   0.51930   0.52455
 Alpha virt. eigenvalues --    0.52851   0.53804   0.54980   0.56120   0.58013
 Alpha virt. eigenvalues --    0.58692   0.59487   0.60397   0.61000   0.62891
 Alpha virt. eigenvalues --    0.62997   0.64169   0.65215   0.65809   0.66791
 Alpha virt. eigenvalues --    0.67571   0.68318   0.68623   0.69845   0.71621
 Alpha virt. eigenvalues --    0.72102   0.72717   0.73467   0.73774   0.74179
 Alpha virt. eigenvalues --    0.74567   0.75613   0.76145   0.76408   0.77075
 Alpha virt. eigenvalues --    0.77472   0.77878   0.78591   0.79013   0.79553
 Alpha virt. eigenvalues --    0.79983   0.80332   0.80849   0.82067   0.83019
 Alpha virt. eigenvalues --    0.83918   0.85124   0.85392   0.86248   0.86423
 Alpha virt. eigenvalues --    0.87053   0.88373   0.88454   0.89806   0.90273
 Alpha virt. eigenvalues --    0.90900   0.93444   0.94125   0.95257   0.97296
 Alpha virt. eigenvalues --    0.99819   1.00466   1.01400   1.04728   1.05774
 Alpha virt. eigenvalues --    1.06261   1.07909   1.08838   1.11583   1.12668
 Alpha virt. eigenvalues --    1.15130   1.15367   1.17361   1.18325   1.20325
 Alpha virt. eigenvalues --    1.22086   1.22924   1.23710   1.24734   1.26376
 Alpha virt. eigenvalues --    1.29053   1.30240   1.32463   1.34547   1.35438
 Alpha virt. eigenvalues --    1.36666   1.39450   1.41293   1.42185   1.43474
 Alpha virt. eigenvalues --    1.45323   1.46410   1.48340   1.49008   1.52869
 Alpha virt. eigenvalues --    1.53163   1.54029   1.56147   1.58080   1.58600
 Alpha virt. eigenvalues --    1.60148   1.60952   1.61358   1.64503   1.65856
 Alpha virt. eigenvalues --    1.66013   1.66970   1.67521   1.68186   1.69741
 Alpha virt. eigenvalues --    1.70461   1.71677   1.72469   1.73544   1.74777
 Alpha virt. eigenvalues --    1.75947   1.76640   1.77511   1.79172   1.79856
 Alpha virt. eigenvalues --    1.81114   1.82510   1.83156   1.84335   1.85489
 Alpha virt. eigenvalues --    1.85796   1.86513   1.88421   1.88830   1.89254
 Alpha virt. eigenvalues --    1.90671   1.91336   1.92509   1.93223   1.93739
 Alpha virt. eigenvalues --    1.95023   1.95483   1.97432   1.97911   2.00190
 Alpha virt. eigenvalues --    2.02397   2.03870   2.05764   2.07225   2.07723
 Alpha virt. eigenvalues --    2.10646   2.12310   2.13138   2.14164   2.15404
 Alpha virt. eigenvalues --    2.15758   2.16977   2.18194   2.19302   2.20173
 Alpha virt. eigenvalues --    2.20927   2.25927   2.26536   2.28585   2.29888
 Alpha virt. eigenvalues --    2.31124   2.32195   2.33907   2.35881   2.38552
 Alpha virt. eigenvalues --    2.39546   2.42260   2.44332   2.45097   2.46401
 Alpha virt. eigenvalues --    2.49481   2.49575   2.49892   2.52208   2.53739
 Alpha virt. eigenvalues --    2.54522   2.56977   2.57446   2.59909   2.61792
 Alpha virt. eigenvalues --    2.66223   2.67981   2.76597   2.79712   2.81787
 Alpha virt. eigenvalues --    2.83831   2.87224   2.88448   2.89202   2.91005
 Alpha virt. eigenvalues --    2.94791   2.99163   3.02528   3.03131   3.71450
 Alpha virt. eigenvalues --    3.77891   3.84612   3.87470   3.93136   3.96900
 Alpha virt. eigenvalues --    4.03942   4.06106   4.09529   4.12918   4.14648
 Alpha virt. eigenvalues --    4.15593   4.20573   4.22565   4.25981   4.29521
 Alpha virt. eigenvalues --    4.30926   4.50454   4.52732   4.55236   4.57606
          Condensed to atoms (all electrons):
               1          2          3          4          5          6
     1  N    7.019790   0.216493  -0.044919  -0.030115  -0.047377   0.186593
     2  C    0.216493   5.309132   0.295598  -0.088188   0.346766  -0.015676
     3  C   -0.044919   0.295598   4.345417   0.541916  -0.040086  -0.000303
     4  O   -0.030115  -0.088188   0.541916   8.092619  -0.003167   0.000360
     5  C   -0.047377   0.346766  -0.040086  -0.003167   5.120685   0.002688
     6  H    0.186593  -0.015676  -0.000303   0.000360   0.002688   0.295732
     7  H   -0.031534   0.329320  -0.023640   0.002523  -0.025095  -0.001953
     8  H   -0.003620  -0.035046  -0.004067   0.003602   0.374121  -0.000001
     9  H    0.003886  -0.031725  -0.002732  -0.000008   0.377283  -0.000069
    10  H   -0.003486  -0.029084   0.003706  -0.000044   0.372650  -0.000093
    11  H    0.300965  -0.023655   0.004304   0.000377  -0.001273  -0.007648
    12  H    0.249185  -0.042339  -0.006814   0.062786   0.001405  -0.003177
    13  N    0.001429  -0.110585   0.309962  -0.081508   0.000993   0.000088
    14  C   -0.000059   0.010842  -0.024400   0.002687  -0.002066  -0.000026
    15  C    0.000083  -0.002210  -0.001046  -0.000036   0.000107   0.000043
    16  O    0.000128  -0.018177   0.002424   0.000008   0.000384   0.000004
    17  C   -0.000003  -0.000266   0.003570  -0.000075   0.000034   0.000000
    18  H   -0.000082   0.007717  -0.013546   0.006262  -0.000253  -0.000002
    19  H    0.000044   0.000924  -0.006471   0.000035   0.001046   0.000004
    20  H   -0.000000   0.000015  -0.000067   0.000000  -0.000002  -0.000000
    21  H    0.000000  -0.000003  -0.000175  -0.000003  -0.000002   0.000000
    22  H    0.000000  -0.000007  -0.000087  -0.000006   0.000015  -0.000000
    23  N    0.000001  -0.000235  -0.000006  -0.000001  -0.000001   0.000001
    24  C   -0.000000   0.000006  -0.000007   0.000000  -0.000000  -0.000000
    25  C    0.000000  -0.000000   0.000003  -0.000000   0.000000  -0.000001
    26  O    0.000000  -0.000000   0.000000  -0.000000   0.000000  -0.000000
    27  C    0.000000   0.000000  -0.000000   0.000000  -0.000000  -0.000000
    28  H   -0.000000   0.000007  -0.000020  -0.000000  -0.000000   0.000000
    29  H    0.000000   0.000004  -0.000002   0.000000  -0.000000  -0.000000
    30  H   -0.000000   0.000000   0.000000   0.000000   0.000000  -0.000000
    31  H   -0.000000   0.000000  -0.000000  -0.000000   0.000000   0.000000
    32  H   -0.000000  -0.000000   0.000000  -0.000000   0.000000   0.000000
    33  N    0.000003  -0.000001  -0.000002   0.000000   0.000000  -0.000057
    34  C   -0.000198   0.000038   0.000015  -0.000004  -0.000000   0.001853
    35  C    0.002066   0.000844  -0.000073   0.000055   0.000035  -0.004010
    36  O   -0.048062   0.001111  -0.000378  -0.000002   0.000013   0.101108
    37  C    0.000001   0.000002  -0.000000   0.000000   0.000000  -0.000032
    38  O    0.001157   0.000826   0.006682  -0.001392   0.000039  -0.002410
    39  H   -0.000005   0.000038  -0.000122   0.000049  -0.000000   0.000017
    40  H   -0.000000  -0.000000   0.000000  -0.000000  -0.000000   0.000000
    41  H    0.000008   0.000000  -0.000003   0.000000  -0.000000  -0.000088
    42  H    0.000000  -0.000000   0.000000  -0.000000  -0.000000  -0.000008
    43  H    0.000002  -0.000000   0.000000   0.000000  -0.000000  -0.000027
    44  H   -0.000000  -0.000000   0.000000  -0.000000  -0.000000   0.000001
               7          8          9         10         11         12
     1  N   -0.031534  -0.003620   0.003886  -0.003486   0.300965   0.249185
     2  C    0.329320  -0.035046  -0.031725  -0.029084  -0.023655  -0.042339
     3  C   -0.023640  -0.004067  -0.002732   0.003706   0.004304  -0.006814
     4  O    0.002523   0.003602  -0.000008  -0.000044   0.000377   0.062786
     5  C   -0.025095   0.374121   0.377283   0.372650  -0.001273   0.001405
     6  H   -0.001953  -0.000001  -0.000069  -0.000093  -0.007648  -0.003177
     7  H    0.464588   0.003769  -0.001719  -0.003661   0.000060   0.004105
     8  H    0.003769   0.510574  -0.021781  -0.026927   0.000053   0.002425
     9  H   -0.001719  -0.021781   0.494812  -0.021487  -0.000021  -0.000075
    10  H   -0.003661  -0.026927  -0.021487   0.513978   0.004110  -0.000391
    11  H    0.000060   0.000053  -0.000021   0.004110   0.333535  -0.011573
    12  H    0.004105   0.002425  -0.000075  -0.000391  -0.011573   0.326576
    13  N    0.001138   0.000016   0.001674  -0.000055  -0.000082   0.002296
    14  C   -0.003829   0.000003  -0.000032   0.000036   0.000000  -0.000079
    15  C   -0.002230  -0.000005   0.000073   0.000001  -0.000001  -0.000003
    16  O    0.038288  -0.000004   0.000002  -0.000004  -0.000006  -0.000010
    17  C    0.000311   0.000003  -0.000075  -0.000001  -0.000000   0.000001
    18  H   -0.000309  -0.000025  -0.000035   0.000006   0.000004  -0.000123
    19  H    0.001482  -0.000023   0.003393  -0.000100  -0.000002  -0.000008
    20  H    0.000000  -0.000000  -0.000001   0.000000   0.000000  -0.000000
    21  H   -0.000001   0.000000   0.000000  -0.000000  -0.000000   0.000000
    22  H   -0.000013  -0.000001   0.000054   0.000000   0.000000   0.000000
    23  N    0.000707   0.000000  -0.000000  -0.000000   0.000000  -0.000000
    24  C   -0.000017  -0.000000   0.000000   0.000000   0.000000   0.000000
    25  C    0.000004  -0.000000  -0.000000  -0.000000  -0.000000  -0.000000
    26  O    0.000000  -0.000000   0.000000   0.000000  -0.000000  -0.000000
    27  C   -0.000000   0.000000   0.000000   0.000000   0.000000   0.000000
    28  H   -0.000023   0.000000  -0.000000  -0.000000  -0.000000   0.000000
    29  H   -0.000021   0.000000  -0.000000   0.000000   0.000000   0.000000
    30  H   -0.000000  -0.000000  -0.000000   0.000000  -0.000000  -0.000000
    31  H   -0.000000   0.000000   0.000000  -0.000000  -0.000000  -0.000000
    32  H    0.000000  -0.000000   0.000000   0.000000   0.000000   0.000000
    33  N   -0.000000  -0.000000  -0.000000  -0.000000  -0.000000  -0.000000
    34  C   -0.000072  -0.000000   0.000000   0.000000   0.000003   0.000004
    35  C    0.000727  -0.000000   0.000001   0.000001   0.000058  -0.000080
    36  O    0.002627  -0.000000   0.000001   0.000001   0.000646   0.000416
    37  C   -0.000002   0.000000  -0.000000   0.000000  -0.000000  -0.000000
    38  O   -0.000867  -0.000000   0.000000  -0.000000   0.000029   0.000240
    39  H   -0.000014   0.000000  -0.000000  -0.000000   0.000000  -0.000008
    40  H    0.000000   0.000000   0.000000  -0.000000  -0.000000  -0.000000
    41  H   -0.000025   0.000000  -0.000000  -0.000000  -0.000000  -0.000000
    42  H    0.000000  -0.000000  -0.000000  -0.000000  -0.000000  -0.000000
    43  H   -0.000000   0.000000  -0.000000  -0.000000  -0.000000  -0.000000
    44  H   -0.000000   0.000000   0.000000   0.000000   0.000000  -0.000000
              13         14         15         16         17         18
     1  N    0.001429  -0.000059   0.000083   0.000128  -0.000003  -0.000082
     2  C   -0.110585   0.010842  -0.002210  -0.018177  -0.000266   0.007717
     3  C    0.309962  -0.024400  -0.001046   0.002424   0.003570  -0.013546
     4  O   -0.081508   0.002687  -0.000036   0.000008  -0.000075   0.006262
     5  C    0.000993  -0.002066   0.000107   0.000384   0.000034  -0.000253
     6  H    0.000088  -0.000026   0.000043   0.000004   0.000000  -0.000002
     7  H    0.001138  -0.003829  -0.002230   0.038288   0.000311  -0.000309
     8  H    0.000016   0.000003  -0.000005  -0.000004   0.000003  -0.000025
     9  H    0.001674  -0.000032   0.000073   0.000002  -0.000075  -0.000035
    10  H   -0.000055   0.000036   0.000001  -0.000004  -0.000001   0.000006
    11  H   -0.000082   0.000000  -0.000001  -0.000006  -0.000000   0.000004
    12  H    0.002296  -0.000079  -0.000003  -0.000010   0.000001  -0.000123
    13  N    7.092651   0.242947  -0.054075  -0.002109  -0.044061   0.290440
    14  C    0.242947   5.099041   0.321175  -0.074716   0.327368  -0.026765
    15  C   -0.054075   0.321175   4.443784   0.510736  -0.034057   0.000027
    16  O   -0.002109  -0.074716   0.510736   8.137619   0.002842  -0.000115
    17  C   -0.044061   0.327368  -0.034057   0.002842   5.162314  -0.005687
    18  H    0.290440  -0.026765   0.000027  -0.000115  -0.005687   0.376881
    19  H   -0.043506   0.369844  -0.045886   0.002566  -0.031565   0.003715
    20  H    0.003754  -0.031363   0.001302   0.000033   0.376833   0.000017
    21  H   -0.006044  -0.027390  -0.009011  -0.000042   0.365413   0.004773
    22  H    0.000498  -0.022648   0.003499  -0.000065   0.369921   0.000352
    23  N    0.002218  -0.098504   0.273125  -0.096152   0.001077   0.000403
    24  C   -0.000186   0.005777  -0.020356   0.002528  -0.000205   0.000004
    25  C    0.000035  -0.000235  -0.001068  -0.000482   0.000008  -0.000001
    26  O    0.000000   0.000000   0.000006  -0.000002  -0.000000  -0.000000
    27  C   -0.000002  -0.000176   0.003245   0.000499  -0.000043   0.000000
    28  H    0.000229  -0.003058  -0.021515   0.002779   0.005443   0.000062
    29  H   -0.000018   0.000763  -0.001242   0.009196  -0.000060   0.000001
    30  H    0.000000   0.000003  -0.000056  -0.000001   0.000000  -0.000000
    31  H    0.000000  -0.000035   0.000260  -0.000001   0.000015  -0.000000
    32  H   -0.000000   0.000004  -0.000113  -0.000011  -0.000013  -0.000000
    33  N   -0.000002  -0.000018   0.000710  -0.000265   0.000000  -0.000001
    34  C   -0.000011  -0.000002   0.000560  -0.002816  -0.000001   0.000002
    35  C   -0.000201  -0.000135  -0.000201   0.010707   0.000002   0.000001
    36  O    0.000006  -0.000004  -0.000343  -0.001631  -0.000000  -0.000000
    37  C   -0.000000   0.000001   0.000052   0.000245  -0.000000   0.000000
    38  O   -0.000950  -0.001321   0.006639  -0.003198   0.000004   0.000058
    39  H    0.000669   0.000016  -0.000011  -0.000352  -0.000004   0.000063
    40  H    0.000000  -0.000002  -0.000045   0.000002   0.000000  -0.000000
    41  H   -0.000002   0.000092  -0.000635   0.008875  -0.000001   0.000000
    42  H    0.000000  -0.000000  -0.000000  -0.000001   0.000000  -0.000000
    43  H    0.000000   0.000000   0.000001   0.000002  -0.000000  -0.000000
    44  H   -0.000000  -0.000000  -0.000000  -0.000001   0.000000   0.000000
              19         20         21         22         23         24
     1  N    0.000044  -0.000000   0.000000   0.000000   0.000001  -0.000000
     2  C    0.000924   0.000015  -0.000003  -0.000007  -0.000235   0.000006
     3  C   -0.006471  -0.000067  -0.000175  -0.000087  -0.000006  -0.000007
     4  O    0.000035   0.000000  -0.000003  -0.000006  -0.000001   0.000000
     5  C    0.001046  -0.000002  -0.000002   0.000015  -0.000001  -0.000000
     6  H    0.000004  -0.000000   0.000000  -0.000000   0.000001  -0.000000
     7  H    0.001482   0.000000  -0.000001  -0.000013   0.000707  -0.000017
     8  H   -0.000023  -0.000000   0.000000  -0.000001   0.000000  -0.000000
     9  H    0.003393  -0.000001   0.000000   0.000054  -0.000000   0.000000
    10  H   -0.000100   0.000000  -0.000000   0.000000  -0.000000   0.000000
    11  H   -0.000002   0.000000  -0.000000   0.000000   0.000000   0.000000
    12  H   -0.000008  -0.000000   0.000000   0.000000  -0.000000   0.000000
    13  N   -0.043506   0.003754  -0.006044   0.000498   0.002218  -0.000186
    14  C    0.369844  -0.031363  -0.027390  -0.022648  -0.098504   0.005777
    15  C   -0.045886   0.001302  -0.009011   0.003499   0.273125  -0.020356
    16  O    0.002566   0.000033  -0.000042  -0.000065  -0.096152   0.002528
    17  C   -0.031565   0.376833   0.365413   0.369921   0.001077  -0.000205
    18  H    0.003715   0.000017   0.004773   0.000352   0.000403   0.000004
    19  H    0.551135  -0.002866   0.004912  -0.006060   0.004349  -0.000140
    20  H   -0.002866   0.502391  -0.028225  -0.019466   0.000260  -0.000099
    21  H    0.004912  -0.028225   0.552340  -0.027381   0.000999   0.000045
    22  H   -0.006060  -0.019466  -0.027381   0.499475   0.000084   0.000002
    23  N    0.004349   0.000260   0.000999   0.000084   7.124046   0.239857
    24  C   -0.000140  -0.000099   0.000045   0.000002   0.239857   5.115841
    25  C   -0.000001   0.000003  -0.000008   0.000000  -0.050345   0.299163
    26  O    0.000000  -0.000000  -0.000000  -0.000000  -0.001573  -0.084797
    27  C    0.000007   0.000027   0.000001  -0.000000  -0.049291   0.360366
    28  H    0.000217  -0.000071   0.006457  -0.000162   0.296935  -0.026790
    29  H    0.000000  -0.000006  -0.000000   0.000000  -0.048452   0.363609
    30  H   -0.000000  -0.000000  -0.000000   0.000000   0.003906  -0.027516
    31  H   -0.000001   0.000062  -0.000003   0.000000  -0.000558  -0.032439
    32  H    0.000000  -0.000000  -0.000008  -0.000000  -0.004985  -0.028160
    33  N    0.000000  -0.000000  -0.000000   0.000000   0.002756  -0.112862
    34  C   -0.000001  -0.000000   0.000000   0.000000  -0.000304   0.001720
    35  C   -0.000017   0.000000  -0.000000   0.000000  -0.000254  -0.000421
    36  O    0.000001  -0.000000   0.000000  -0.000000   0.000020  -0.000005
    37  C   -0.000000  -0.000000   0.000000   0.000000  -0.000020  -0.000157
    38  O   -0.000002   0.000000  -0.000001   0.000000  -0.000753  -0.000285
    39  H    0.000013  -0.000000   0.000004  -0.000000   0.002731  -0.000605
    40  H   -0.000000   0.000000  -0.000000   0.000000  -0.000217   0.007517
    41  H   -0.000001  -0.000000   0.000000   0.000000  -0.001103   0.003027
    42  H    0.000000   0.000000  -0.000000  -0.000000   0.000000  -0.000012
    43  H   -0.000000  -0.000000   0.000000  -0.000000  -0.000000   0.000012
    44  H    0.000000  -0.000000  -0.000000  -0.000000   0.000000   0.000028
              25         26         27         28         29         30
     1  N    0.000000   0.000000   0.000000  -0.000000   0.000000  -0.000000
     2  C   -0.000000  -0.000000   0.000000   0.000007   0.000004   0.000000
     3  C    0.000003   0.000000  -0.000000  -0.000020  -0.000002   0.000000
     4  O   -0.000000  -0.000000   0.000000  -0.000000   0.000000   0.000000
     5  C    0.000000   0.000000  -0.000000  -0.000000  -0.000000   0.000000
     6  H   -0.000001  -0.000000  -0.000000   0.000000  -0.000000  -0.000000
     7  H    0.000004   0.000000  -0.000000  -0.000023  -0.000021  -0.000000
     8  H   -0.000000  -0.000000   0.000000   0.000000   0.000000  -0.000000
     9  H   -0.000000   0.000000   0.000000  -0.000000  -0.000000  -0.000000
    10  H   -0.000000   0.000000   0.000000  -0.000000   0.000000   0.000000
    11  H   -0.000000  -0.000000   0.000000  -0.000000   0.000000  -0.000000
    12  H   -0.000000  -0.000000   0.000000   0.000000   0.000000  -0.000000
    13  N    0.000035   0.000000  -0.000002   0.000229  -0.000018   0.000000
    14  C   -0.000235   0.000000  -0.000176  -0.003058   0.000763   0.000003
    15  C   -0.001068   0.000006   0.003245  -0.021515  -0.001242  -0.000056
    16  O   -0.000482  -0.000002   0.000499   0.002779   0.009196  -0.000001
    17  C    0.000008  -0.000000  -0.000043   0.005443  -0.000060   0.000000
    18  H   -0.000001  -0.000000   0.000000   0.000062   0.000001  -0.000000
    19  H   -0.000001   0.000000   0.000007   0.000217   0.000000  -0.000000
    20  H    0.000003  -0.000000   0.000027  -0.000071  -0.000006  -0.000000
    21  H   -0.000008  -0.000000   0.000001   0.006457  -0.000000  -0.000000
    22  H    0.000000  -0.000000  -0.000000  -0.000162   0.000000   0.000000
    23  N   -0.050345  -0.001573  -0.049291   0.296935  -0.048452   0.003906
    24  C    0.299163  -0.084797   0.360366  -0.026790   0.363609  -0.027516
    25  C    4.407240   0.592997  -0.038446  -0.000107  -0.032247  -0.000989
    26  O    0.592997   8.012383  -0.000232   0.001003   0.002696   0.000079
    27  C   -0.038446  -0.000232   5.096715  -0.000813  -0.032717   0.376447
    28  H   -0.000107   0.001003  -0.000813   0.375655   0.004653  -0.000129
    29  H   -0.032247   0.002696  -0.032717   0.004653   0.532580  -0.002584
    30  H   -0.000989   0.000079   0.376447  -0.000129  -0.002584   0.507205
    31  H    0.005137   0.000485   0.366584   0.000114  -0.003391  -0.023273
    32  H   -0.008033   0.009033   0.372059   0.004595   0.004335  -0.022777
    33  N    0.250373  -0.093496   0.004017  -0.000121   0.000681   0.000003
    34  C   -0.015088   0.002560   0.000020   0.000001  -0.000214   0.000001
    35  C   -0.000211  -0.000055  -0.000004  -0.000003  -0.000215   0.000000
    36  O    0.000006   0.000000  -0.000000   0.000000  -0.000016  -0.000000
    37  C    0.001313  -0.000084   0.000004   0.000000   0.000091   0.000001
    38  O    0.001418   0.000015  -0.000002  -0.000001   0.000058   0.000000
    39  H    0.000977  -0.000586   0.000034   0.000029   0.000048  -0.000001
    40  H   -0.009336   0.010584  -0.000170  -0.000003  -0.000337  -0.000001
    41  H   -0.002267   0.000068   0.000030  -0.000003   0.005908   0.000001
    42  H   -0.000051   0.000002   0.000000  -0.000000  -0.000001  -0.000000
    43  H   -0.000059   0.000000  -0.000000  -0.000000  -0.000002  -0.000000
    44  H    0.000168  -0.000025  -0.000001   0.000000   0.000025   0.000000
              31         32         33         34         35         36
     1  N   -0.000000  -0.000000   0.000003  -0.000198   0.002066  -0.048062
     2  C    0.000000  -0.000000  -0.000001   0.000038   0.000844   0.001111
     3  C   -0.000000   0.000000  -0.000002   0.000015  -0.000073  -0.000378
     4  O   -0.000000  -0.000000   0.000000  -0.000004   0.000055  -0.000002
     5  C    0.000000   0.000000   0.000000  -0.000000   0.000035   0.000013
     6  H    0.000000   0.000000  -0.000057   0.001853  -0.004010   0.101108
     7  H   -0.000000   0.000000  -0.000000  -0.000072   0.000727   0.002627
     8  H    0.000000  -0.000000  -0.000000  -0.000000  -0.000000  -0.000000
     9  H    0.000000   0.000000  -0.000000   0.000000   0.000001   0.000001
    10  H   -0.000000   0.000000  -0.000000   0.000000   0.000001   0.000001
    11  H   -0.000000   0.000000  -0.000000   0.000003   0.000058   0.000646
    12  H   -0.000000   0.000000  -0.000000   0.000004  -0.000080   0.000416
    13  N    0.000000  -0.000000  -0.000002  -0.000011  -0.000201   0.000006
    14  C   -0.000035   0.000004  -0.000018  -0.000002  -0.000135  -0.000004
    15  C    0.000260  -0.000113   0.000710   0.000560  -0.000201  -0.000343
    16  O   -0.000001  -0.000011  -0.000265  -0.002816   0.010707  -0.001631
    17  C    0.000015  -0.000013   0.000000  -0.000001   0.000002  -0.000000
    18  H   -0.000000  -0.000000  -0.000001   0.000002   0.000001  -0.000000
    19  H   -0.000001   0.000000   0.000000  -0.000001  -0.000017   0.000001
    20  H    0.000062  -0.000000  -0.000000  -0.000000   0.000000  -0.000000
    21  H   -0.000003  -0.000008  -0.000000   0.000000  -0.000000   0.000000
    22  H    0.000000  -0.000000   0.000000   0.000000   0.000000  -0.000000
    23  N   -0.000558  -0.004985   0.002756  -0.000304  -0.000254   0.000020
    24  C   -0.032439  -0.028160  -0.112862   0.001720  -0.000421  -0.000005
    25  C    0.005137  -0.008033   0.250373  -0.015088  -0.000211   0.000006
    26  O    0.000485   0.009033  -0.093496   0.002560  -0.000055   0.000000
    27  C    0.366584   0.372059   0.004017   0.000020  -0.000004  -0.000000
    28  H    0.000114   0.004595  -0.000121   0.000001  -0.000003   0.000000
    29  H   -0.003391   0.004335   0.000681  -0.000214  -0.000215  -0.000016
    30  H   -0.023273  -0.022777   0.000003   0.000001   0.000000  -0.000000
    31  H    0.545937  -0.027975  -0.000069  -0.000006  -0.000000  -0.000000
    32  H   -0.027975   0.515816   0.000240  -0.000009   0.000000  -0.000000
    33  N   -0.000069   0.000240   7.269299   0.179691  -0.047472   0.001947
    34  C   -0.000006  -0.000009   0.179691   5.146160   0.314076  -0.066957
    35  C   -0.000000   0.000000  -0.047472   0.314076   4.385191   0.469948
    36  O   -0.000000  -0.000000   0.001947  -0.066957   0.469948   8.114700
    37  C    0.000000   0.000000  -0.045694   0.345712  -0.040730  -0.000782
    38  O    0.000000   0.000000  -0.020245  -0.082071   0.305817  -0.072356
    39  H    0.000000  -0.000002   0.050637  -0.009330  -0.025965   0.004265
    40  H    0.000002  -0.000013   0.277455  -0.025870  -0.000191  -0.000026
    41  H    0.000013  -0.000001  -0.039967   0.368963  -0.039492  -0.000038
    42  H    0.000000  -0.000000  -0.005053  -0.032740  -0.005648   0.000117
    43  H   -0.000000  -0.000000   0.003876  -0.029686  -0.001887   0.006139
    44  H   -0.000000   0.000000   0.000380  -0.030233   0.004272   0.000093
              37         38         39         40         41         42
     1  N    0.000001   0.001157  -0.000005  -0.000000   0.000008   0.000000
     2  C    0.000002   0.000826   0.000038  -0.000000   0.000000  -0.000000
     3  C   -0.000000   0.006682  -0.000122   0.000000  -0.000003   0.000000
     4  O    0.000000  -0.001392   0.000049  -0.000000   0.000000  -0.000000
     5  C    0.000000   0.000039  -0.000000  -0.000000  -0.000000  -0.000000
     6  H   -0.000032  -0.002410   0.000017   0.000000  -0.000088  -0.000008
     7  H   -0.000002  -0.000867  -0.000014   0.000000  -0.000025   0.000000
     8  H    0.000000  -0.000000   0.000000   0.000000   0.000000  -0.000000
     9  H   -0.000000   0.000000  -0.000000   0.000000  -0.000000  -0.000000
    10  H    0.000000  -0.000000  -0.000000  -0.000000  -0.000000  -0.000000
    11  H   -0.000000   0.000029   0.000000  -0.000000  -0.000000  -0.000000
    12  H   -0.000000   0.000240  -0.000008  -0.000000  -0.000000  -0.000000
    13  N   -0.000000  -0.000950   0.000669   0.000000  -0.000002   0.000000
    14  C    0.000001  -0.001321   0.000016  -0.000002   0.000092  -0.000000
    15  C    0.000052   0.006639  -0.000011  -0.000045  -0.000635  -0.000000
    16  O    0.000245  -0.003198  -0.000352   0.000002   0.008875  -0.000001
    17  C   -0.000000   0.000004  -0.000004   0.000000  -0.000001   0.000000
    18  H    0.000000   0.000058   0.000063  -0.000000   0.000000  -0.000000
    19  H   -0.000000  -0.000002   0.000013  -0.000000  -0.000001   0.000000
    20  H   -0.000000   0.000000  -0.000000   0.000000  -0.000000   0.000000
    21  H    0.000000  -0.000001   0.000004  -0.000000   0.000000  -0.000000
    22  H    0.000000   0.000000  -0.000000   0.000000   0.000000  -0.000000
    23  N   -0.000020  -0.000753   0.002731  -0.000217  -0.001103   0.000000
    24  C   -0.000157  -0.000285  -0.000605   0.007517   0.003027  -0.000012
    25  C    0.001313   0.001418   0.000977  -0.009336  -0.002267  -0.000051
    26  O   -0.000084   0.000015  -0.000586   0.010584   0.000068   0.000002
    27  C    0.000004  -0.000002   0.000034  -0.000170   0.000030   0.000000
    28  H    0.000000  -0.000001   0.000029  -0.000003  -0.000003  -0.000000
    29  H    0.000091   0.000058   0.000048  -0.000337   0.005908  -0.000001
    30  H    0.000001   0.000000  -0.000001  -0.000001   0.000001  -0.000000
    31  H    0.000000   0.000000   0.000000   0.000002   0.000013   0.000000
    32  H    0.000000   0.000000  -0.000002  -0.000013  -0.000001  -0.000000
    33  N   -0.045694  -0.020245   0.050637   0.277455  -0.039967  -0.005053
    34  C    0.345712  -0.082071  -0.009330  -0.025870   0.368963  -0.032740
    35  C   -0.040730   0.305817  -0.025965  -0.000191  -0.039492  -0.005648
    36  O   -0.000782  -0.072356   0.004265  -0.000026  -0.000038   0.000117
    37  C    5.107686   0.000842   0.000893  -0.003313  -0.022037   0.376226
    38  O    0.000842   8.223670   0.214734   0.000351   0.001095   0.000403
    39  H    0.000893   0.214734   0.317369  -0.000336   0.001091   0.000080
    40  H   -0.003313   0.000351  -0.000336   0.376446   0.003556   0.004443
    41  H   -0.022037   0.001095   0.001091   0.003556   0.489267   0.004195
    42  H    0.376226   0.000403   0.000080   0.004443   0.004195   0.538997
    43  H    0.372007   0.000192  -0.000096   0.000010  -0.002133  -0.023802
    44  H    0.375064  -0.000058  -0.000036   0.000266  -0.005259  -0.028655
              43         44
     1  N    0.000002  -0.000000
     2  C   -0.000000  -0.000000
     3  C    0.000000   0.000000
     4  O    0.000000  -0.000000
     5  C   -0.000000  -0.000000
     6  H   -0.000027   0.000001
     7  H   -0.000000  -0.000000
     8  H    0.000000   0.000000
     9  H   -0.000000   0.000000
    10  H   -0.000000   0.000000
    11  H   -0.000000   0.000000
    12  H   -0.000000  -0.000000
    13  N    0.000000  -0.000000
    14  C    0.000000  -0.000000
    15  C    0.000001  -0.000000
    16  O    0.000002  -0.000001
    17  C   -0.000000   0.000000
    18  H   -0.000000   0.000000
    19  H   -0.000000   0.000000
    20  H   -0.000000  -0.000000
    21  H    0.000000  -0.000000
    22  H   -0.000000  -0.000000
    23  N   -0.000000   0.000000
    24  C    0.000012   0.000028
    25  C   -0.000059   0.000168
    26  O    0.000000  -0.000025
    27  C   -0.000000  -0.000001
    28  H   -0.000000   0.000000
    29  H   -0.000002   0.000025
    30  H   -0.000000   0.000000
    31  H   -0.000000  -0.000000
    32  H   -0.000000   0.000000
    33  N    0.003876   0.000380
    34  C   -0.029686  -0.030233
    35  C   -0.001887   0.004272
    36  O    0.006139   0.000093
    37  C    0.372007   0.375064
    38  O    0.000192  -0.000058
    39  H   -0.000096  -0.000036
    40  H    0.000010   0.000266
    41  H   -0.002133  -0.005259
    42  H   -0.023802  -0.028655
    43  H    0.490100  -0.020689
    44  H   -0.020689   0.514426
 Mulliken charges:
               1
     1  N   -0.772374
     2  C   -0.122486
     3  C    0.655371
     4  O   -0.508728
     5  C   -0.478940
     6  H    0.447088
     7  H    0.245380
     8  H    0.196936
     9  H    0.198581
    10  H    0.190842
    11  H    0.400118
    12  H    0.415243
    13  N   -0.607646
    14  C   -0.063736
    15  C    0.628719
    16  O   -0.529709
    17  C   -0.499041
    18  H    0.356156
    19  H    0.192964
    20  H    0.197470
    21  H    0.163354
    22  H    0.201995
    23  N   -0.600722
    24  C   -0.064442
    25  C    0.600132
    26  O   -0.451059
    27  C   -0.458157
    28  H    0.354642
    29  H    0.196877
    30  H    0.189683
    31  H    0.169139
    32  H    0.186018
    33  N   -0.676744
    34  C   -0.065766
    35  C    0.673464
    36  O   -0.512566
    37  C   -0.467288
    38  O   -0.578358
    39  H    0.443715
    40  H    0.359227
    41  H    0.226865
    42  H    0.171508
    43  H    0.206040
    44  H    0.190236
 Sum of Mulliken charges =   1.00000
 Mulliken charges with hydrogens summed into heavy atoms:
               1
     1  N    0.490075
     2  C    0.122894
     3  C    0.655371
     4  O   -0.508728
     5  C    0.107419
    13  N   -0.251490
    14  C    0.129228
    15  C    0.628719
    16  O   -0.529709
    17  C    0.063777
    23  N   -0.246080
    24  C    0.132435
    25  C    0.600132
    26  O   -0.451059
    27  C    0.086683
    33  N   -0.317517
    34  C    0.161099
    35  C    0.673464
    36  O   -0.512566
    37  C    0.100496
    38  O   -0.134643
 Electronic spatial extent (au):  <R**2>=          23956.3587
 Charge=              1.0000 electrons
 Dipole moment (field-independent basis, Debye):
    X=              5.4712    Y=            -23.1081    Z=             -1.3142  Tot=             23.7833
 Quadrupole moment (field-independent basis, Debye-Ang):
   XX=            -82.3980   YY=             21.8136   ZZ=           -121.5690
   XY=            -25.1890   XZ=            -11.2830   YZ=             10.3647
 Traceless Quadrupole moment (field-independent basis, Debye-Ang):
   XX=            -21.6802   YY=             82.5314   ZZ=            -60.8512
   XY=            -25.1890   XZ=            -11.2830   YZ=             10.3647
 Octapole moment (field-independent basis, Debye-Ang**2):
  XXX=             60.4498  YYY=            929.5414  ZZZ=            196.0762  XYY=            100.5365
  XXY=            546.1677  XXZ=             47.1613  XZZ=            -45.6634  YZZ=            647.6628
  YYZ=            -15.4887  XYZ=             79.5436
 Hexadecapole moment (field-independent basis, Debye-Ang**3):
 XXXX=          -2516.2665 YYYY=         -16633.5179 ZZZZ=          -1129.7529 XXXY=           -600.8072
 XXXZ=            148.3123 YYYX=           -781.6685 YYYZ=           -394.1492 ZZZX=            430.6906
 ZZZY=           -993.6382 XXYY=          -4594.8249 XXZZ=           -692.5737 YYZZ=          -4208.5014
 XXYZ=           -342.4775 YYXZ=           -412.5751 ZZXY=             56.4337
 N-N= 1.961804293802D+03 E-N=-6.389055244144D+03  KE= 1.056343115708D+03
 Unable to Open any file for archive entry.
 1\1\GINC-QML-000\SP\RB3LYP\6-31G(d)\C12H23N4O5(1+)\KENGMITH\04-Jun-202
 2\0\\# B3LYP/6-31G* empiricaldispersion=gd3 guess=read geom=check nosy
 mm integral(ultrafinegrid)\\Candidate Structure: Conf:304 Charge calc 
 in gas phase\\1,1\N,0,3.7126182956,-4.5002660129,-1.2802635454\C,0,2.6
 987949264,-3.6538815431,-0.5515268116\C,0,1.6284020065,-3.3621182765,-
 1.6249252022\O,0,1.9795528727,-3.3167089567,-2.8009449479\C,0,3.334128
 3385,-2.3496304514,-0.0651037731\H,0,3.4545333501,-5.5205408864,-1.185
 2532771\H,0,2.3052980432,-4.2551166351,0.2684586379\H,0,3.7373147864,-
 1.7743983526,-0.9050895792\H,0,2.5826549686,-1.7316883959,0.434667093\
 H,0,4.1324954917,-2.5483815453,0.6577195627\H,0,4.6641846905,-4.361119
 6825,-0.9319781939\H,0,3.647842674,-4.2208574222,-2.2780313518\N,0,0.3
 59356918,-3.1051374047,-1.2269033763\C,0,-0.2385199599,-3.2280206879,0
 .1102269447\C,0,-0.4072371246,-4.7227623022,0.4797334458\O,0,0.5530802
 554,-5.343163058,0.9427754819\C,0,-1.5076605067,-2.3771476696,0.175218
 174\H,0,-0.2656472764,-2.8916936123,-1.9976256737\H,0,0.4740865875,-2.
 8490110173,0.8482042867\H,0,-1.9918280014,-2.4835701647,1.1498409598\H
 ,0,-2.2301261475,-2.6565203305,-0.6025209124\H,0,-1.2593747912,-1.3226
 147176,0.0271987375\N,0,-1.6028276224,-5.3072892338,0.2346753249\C,0,-
 1.9147422209,-6.6888143798,0.6352750491\C,0,-1.9208655467,-7.578292047
 5,-0.6274267309\O,0,-2.9553853147,-7.8353751709,-1.2111763119\C,0,-3.2
 698793911,-6.7509616881,1.3361325468\H,0,-2.3771980084,-4.7520259249,-
 0.1055591976\H,0,-1.1224791829,-6.9872073768,1.3236631539\H,0,-3.48034
 21085,-7.774505907,1.6578813067\H,0,-3.2660832769,-6.1002464318,2.2150
 820105\H,0,-4.0728569846,-6.4526848775,0.6562658158\N,0,-0.699995437,-
 8.0028909948,-1.1575074182\C,0,0.6061262421,-8.1246695604,-0.497913657
 9\C,0,1.5798097533,-7.0800408797,-1.0569240397\O,0,2.7458955182,-7.002
 6829327,-0.7023567871\C,0,1.1880524964,-9.537126315,-0.6341635734\O,0,
 1.092068629,-6.2329471389,-1.9632236671\H,0,0.1452955264,-6.4694680622
 ,-2.0954379676\H,0,-0.8594881993,-8.6575168429,-1.920536172\H,0,0.5146
 165416,-7.8678254267,0.5589042302\H,0,1.285750663,-9.8232542776,-1.687
 5657027\H,0,2.1795773668,-9.5732783756,-0.1773449493\H,0,0.5368301491,
 -10.2584955801,-0.133815332\\Version=ES64L-G16RevC.01\HF=-1066.1700345
 \RMSD=8.042e-09\Dipole=1.4673884,1.3230491,0.5036326\Quadrupole=-16.11
 8701,61.3601037,-45.2414027,-18.7274379,-8.388645,7.7059125\PG=C01 [X(
 C12H23N4O5)]\\@
 The archive entry for this job was punched.


 TO DETECT ERRORS, THE PROGRAMMER MUST HAVE A CONNIVING MIND,
 ONE THAT DELIGHTS IN UNCOVERING FLAWS WHERE BEAUTY AND
 PERFECTION WERE ONCE THOUGHT TO LIE.

             -- THE PSYCHOLOGY OF COMPUTER PROGRAMMING
                GERALD M. WEINBERG
 Job cpu time:       0 days  0 hours  1 minutes 51.0 seconds.
 Elapsed time:       0 days  0 hours  0 minutes 28.3 seconds.
 File lengths (MBytes):  RWF=    184 Int=      0 D2E=      0 Chk=     24 Scr=     16
 Normal termination of Gaussian 16 at Sat Jun  4 17:08:42 2022.
