 Entering Gaussian System, Link 0=/opt/software/Gaussian/g16-AVX2-C.01/g16/g16
 Input=charge-conf-14.com
 Output=charge-conf-14.log
 Initial command:
 /opt/software/Gaussian/g16-AVX2-C.01/g16/l1.exe "/mnt/gs18/scratch/users/kengmith/Gau-25078.inp" -scrdir="/mnt/gs18/scratch/users/kengmith/"
 Entering Link 1 = /opt/software/Gaussian/g16-AVX2-C.01/g16/l1.exe PID=     25088.
  
 Copyright (c) 1988-2019, Gaussian, Inc.  All Rights Reserved.
  
 This is part of the Gaussian(R) 16 program.  It is based on
 the Gaussian(R) 09 system (copyright 2009, Gaussian, Inc.),
 the Gaussian(R) 03 system (copyright 2003, Gaussian, Inc.),
 the Gaussian(R) 98 system (copyright 1998, Gaussian, Inc.),
 the Gaussian(R) 94 system (copyright 1995, Gaussian, Inc.),
 the Gaussian 92(TM) system (copyright 1992, Gaussian, Inc.),
 the Gaussian 90(TM) system (copyright 1990, Gaussian, Inc.),
 the Gaussian 88(TM) system (copyright 1988, Gaussian, Inc.),
 the Gaussian 86(TM) system (copyright 1986, Carnegie Mellon
 University), and the Gaussian 82(TM) system (copyright 1983,
 Carnegie Mellon University). Gaussian is a federally registered
 trademark of Gaussian, Inc.
  
 This software contains proprietary and confidential information,
 including trade secrets, belonging to Gaussian, Inc.
  
 This software is provided under written license and may be
 used, copied, transmitted, or stored only in accord with that
 written license.
  
 The following legend is applicable only to US Government
 contracts under FAR:
  
                    RESTRICTED RIGHTS LEGEND
  
 Use, reproduction and disclosure by the US Government is
 subject to restrictions as set forth in subparagraphs (a)
 and (c) of the Commercial Computer Software - Restricted
 Rights clause in FAR 52.227-19.
  
 Gaussian, Inc.
 340 Quinnipiac St., Bldg. 40, Wallingford CT 06492
  
  
 ---------------------------------------------------------------
 Warning -- This program may not be used in any manner that
 competes with the business of Gaussian, Inc. or will provide
 assistance to any competitor of Gaussian, Inc.  The licensee
 of this program is prohibited from giving any competitor of
 Gaussian, Inc. access to this program.  By using this program,
 the user acknowledges that Gaussian, Inc. is engaged in the
 business of creating and licensing software in the field of
 computational chemistry and represents and warrants to the
 licensee that it is not a competitor of Gaussian, Inc. and that
 it will not use this program in any manner prohibited above.
 ---------------------------------------------------------------
  

 Cite this work as:
 Gaussian 16, Revision C.01,
 M. J. Frisch, G. W. Trucks, H. B. Schlegel, G. E. Scuseria, 
 M. A. Robb, J. R. Cheeseman, G. Scalmani, V. Barone, 
 G. A. Petersson, H. Nakatsuji, X. Li, M. Caricato, A. V. Marenich, 
 J. Bloino, B. G. Janesko, R. Gomperts, B. Mennucci, H. P. Hratchian, 
 J. V. Ortiz, A. F. Izmaylov, J. L. Sonnenberg, D. Williams-Young, 
 F. Ding, F. Lipparini, F. Egidi, J. Goings, B. Peng, A. Petrone, 
 T. Henderson, D. Ranasinghe, V. G. Zakrzewski, J. Gao, N. Rega, 
 G. Zheng, W. Liang, M. Hada, M. Ehara, K. Toyota, R. Fukuda, 
 J. Hasegawa, M. Ishida, T. Nakajima, Y. Honda, O. Kitao, H. Nakai, 
 T. Vreven, K. Throssell, J. A. Montgomery, Jr., J. E. Peralta, 
 F. Ogliaro, M. J. Bearpark, J. J. Heyd, E. N. Brothers, K. N. Kudin, 
 V. N. Staroverov, T. A. Keith, R. Kobayashi, J. Normand, 
 K. Raghavachari, A. P. Rendell, J. C. Burant, S. S. Iyengar, 
 J. Tomasi, M. Cossi, J. M. Millam, M. Klene, C. Adamo, R. Cammi, 
 J. W. Ochterski, R. L. Martin, K. Morokuma, O. Farkas, 
 J. B. Foresman, and D. J. Fox, Gaussian, Inc., Wallingford CT, 2019.
 
 ******************************************
 Gaussian 16:  ES64L-G16RevC.01  3-Jul-2019
                11-Jun-2022 
 ******************************************
 %mem=8gb
 %nproc=4
 Will use up to    4 processors via shared memory.
 %chk=conf-14.chk
 ----------------------------------------------------------------------
 # B3LYP/6-31G* empiricaldispersion=gd3 guess=read geom=check nosymm in
 tegral(ultrafinegrid)
 ----------------------------------------------------------------------
 1/29=2,38=1,172=1/1;
 2/12=2,15=1,40=1/2;
 3/5=1,6=6,7=1,11=2,14=-4,25=1,30=1,74=-5,75=-5,116=-2,124=31/1,2,3;
 4/5=1/1;
 5/5=2,38=6/2;
 6/7=2,8=2,9=2,10=2,28=1/1;
 99/5=1,9=1/99;
 -----------------------------------------------------
 Candidate Structure: Conf:14 Charge calc in gas phase
 -----------------------------------------------------
 Structure from the checkpoint file:  "conf-14.chk"
 Charge =  1 Multiplicity = 1
 Redundant internal coordinates found in file.  (old form).
 N,0,-3.0195389161,9.1874480557,-7.5475091289
 C,0,-4.098637618,9.0201296467,-6.5186923651
 C,0,-5.1229331594,10.1165952071,-6.8939028502
 O,0,-5.2066617201,10.464548514,-8.0694779971
 C,0,-3.4918406388,9.0879013204,-5.1009381144
 C,0,-2.2075830909,8.2900332161,-5.001456767
 C,0,-2.2283033799,6.8901987394,-4.9367471017
 C,0,-0.9734913736,8.9526868241,-5.0665534938
 C,0,-1.0348953317,6.1658090854,-4.9338404566
 C,0,0.2199977334,8.2278062793,-5.066638317
 C,0,0.1909953078,6.8332706393,-5.0018949028
 H,0,-2.5084418577,10.0835637377,-7.368543334
 H,0,-3.4410112672,9.3038352963,-8.4770174421
 H,0,-4.5499551118,8.0374947823,-6.692670935
 H,0,-4.2402762455,8.7060748836,-4.3962364118
 H,0,-3.2929055968,10.1341814089,-4.8538991893
 H,0,-3.1792823365,6.3646455361,-4.8754228343
 H,0,-0.9533702285,10.0380367254,-5.1192978189
 H,0,-1.0620203758,5.081813331,-4.8729629855
 H,0,1.1695750508,8.7536521525,-5.1120064685
 H,0,1.1182304356,6.2681017734,-4.9978465169
 H,0,-2.3413357363,8.4224858891,-7.5488091426
 N,0,-5.8419943724,10.6808714893,-5.9000754089
 C,0,-6.6924252056,11.8503729346,-6.1665294565
 C,0,-5.8697398368,13.0277704538,-6.7360166538
 O,0,-6.3670876144,13.8196374501,-7.5167616666
 C,0,-7.4451236129,12.2753726974,-4.8978573168
 C,0,-8.3964038346,11.2188981125,-4.2992251728
 C,0,-9.0515764322,11.7827569253,-3.0298018468
 C,0,-9.4575950645,10.755357267,-5.3064493231
 H,0,-5.7489345038,10.3517275098,-4.9489993501
 H,0,-7.3939384202,11.597297103,-6.9640867924
 H,0,-6.7127775721,12.5881508055,-4.1392377392
 H,0,-8.0205880263,13.1710802673,-5.1606894728
 H,0,-7.8041955633,10.3378881649,-4.0014595273
 H,0,-9.6740807395,12.6533868975,-3.2701122065
 H,0,-9.6947015757,11.0337720609,-2.5558096715
 H,0,-8.3022214805,12.0988253645,-2.294415066
 H,0,-10.0432238264,11.6076841984,-5.6726244575
 H,0,-9.0165406748,10.2525101517,-6.1743591653
 H,0,-10.1522648293,10.050658114,-4.8372689011
 N,0,-4.5811503242,13.1330077717,-6.2666404788
 C,0,-3.574168142,13.8010041662,-7.0697362739
 C,0,-2.4283343398,12.7842462622,-7.3024957119
 O,0,-2.4475314481,11.682605601,-6.7097632789
 C,0,-3.1159704175,15.1402895158,-6.4393335671
 C,0,-2.617451976,16.1467236404,-7.4757199402
 N,0,-2.7413894932,17.4483602236,-7.1393050484
 O,0,-2.114996977,15.8007872988,-8.5501737213
 H,0,-4.2162359407,12.3330483591,-5.7649495149
 H,0,-4.0269937051,14.0283562702,-8.0415400625
 H,0,-3.974244037,15.5511086439,-5.8991539356
 H,0,-2.3220966788,14.9774668212,-5.698802125
 H,0,-2.4288884614,18.1478666218,-7.8001484821
 H,0,-3.2277122785,17.7551270221,-6.3099490494
 N,0,-1.4768989469,13.161742787,-8.1562197535
 C,0,-0.3534069904,12.3210170807,-8.6154352904
 C,0,-0.9484589778,11.3377125319,-9.6288564326
 O,0,-1.3253733345,10.2051943879,-9.3829108548
 C,0,0.4191717322,11.6291078152,-7.4779744494
 C,0,1.8885341982,11.320688496,-7.7991978879
 C,0,2.107558598,10.310685866,-8.9295738058
 N,0,1.5771736403,10.7889101096,-10.213267342
 C,0,2.2969888978,11.7690255838,-10.9187253624
 N,0,3.331978125,12.311231392,-10.3946638369
 N,0,1.7329678586,11.9989096566,-12.178414894
 O,0,-1.1915358917,11.9316600339,-10.8182369723
 H,0,-1.6983723116,11.295710025,-11.3592243439
 H,0,-1.5911217225,14.1020270207,-8.5621590543
 H,0,0.3098074879,12.9980160763,-9.1571087353
 H,0,-0.1044424881,10.7124343169,-7.197555295
 H,0,0.3798927052,12.2948676141,-6.6088893658
 H,0,2.4304237411,12.238797088,-8.0439767547
 H,0,2.3542030851,10.9128534587,-6.8924321464
 H,0,3.1779572567,10.0871584701,-9.0118684045
 H,0,1.5737081013,9.380846492,-8.7019129959
 H,0,1.2772379022,10.0377224903,-10.8257978816
 H,0,3.6978371794,13.0634873129,-10.9796084185
 H,0,2.1495774629,12.7716883829,-12.6836283915
 H,0,0.719749473,12.0598997426,-12.167176532
 Recover connectivity data from disk.
                           ----------------------------
                           !    Current Parameters    !
                           ! (Angstroms and Degrees)  !
 --------------------------                            --------------------------
 ! Name  Definition              Value                                          !
 --------------------------------------------------------------------------------
 ! R1    R(1,2)                  1.5003                                         !
 ! R2    R(1,12)                 1.047                                          !
 ! R3    R(1,13)                 1.0272                                         !
 ! R4    R(1,22)                 1.0223                                         !
 ! R5    R(2,3)                  1.5467                                         !
 ! R6    R(2,5)                  1.5436                                         !
 ! R7    R(2,14)                 1.0952                                         !
 ! R8    R(3,4)                  1.2288                                         !
 ! R9    R(3,23)                 1.3502                                         !
 ! R10   R(5,6)                  1.5152                                         !
 ! R11   R(5,15)                 1.0966                                         !
 ! R12   R(5,16)                 1.0933                                         !
 ! R13   R(6,7)                  1.4015                                         !
 ! R14   R(6,8)                  1.4023                                         !
 ! R15   R(7,9)                  1.3961                                         !
 ! R16   R(7,17)                 1.0883                                         !
 ! R17   R(8,10)                 1.3964                                         !
 ! R18   R(8,18)                 1.0868                                         !
 ! R19   R(9,11)                 1.3975                                         !
 ! R20   R(9,19)                 1.086                                          !
 ! R21   R(10,11)                1.3963                                         !
 ! R22   R(10,20)                1.0864                                         !
 ! R23   R(11,21)                1.0859                                         !
 ! R24   R(23,24)                1.4704                                         !
 ! R25   R(23,31)                1.0107                                         !
 ! R26   R(24,25)                1.5451                                         !
 ! R27   R(24,27)                1.5352                                         !
 ! R28   R(24,32)                1.0919                                         !
 ! R29   R(25,26)                1.2182                                         !
 ! R30   R(25,42)                1.3754                                         !
 ! R31   R(27,28)                1.5425                                         !
 ! R32   R(27,33)                1.0998                                         !
 ! R33   R(27,34)                1.0966                                         !
 ! R34   R(28,29)                1.5358                                         !
 ! R35   R(28,30)                1.5348                                         !
 ! R36   R(28,35)                1.1025                                         !
 ! R37   R(29,36)                1.0969                                         !
 ! R38   R(29,37)                1.0951                                         !
 ! R39   R(29,38)                1.0965                                         !
 ! R40   R(30,39)                1.097                                          !
 ! R41   R(30,40)                1.0957                                         !
 ! R42   R(30,41)                1.0951                                         !
 ! R43   R(42,43)                1.4509                                         !
 ! R44   R(42,50)                1.0123                                         !
 ! R45   R(43,44)                1.5495                                         !
 ! R46   R(43,46)                1.5495                                         !
 ! R47   R(43,51)                1.096                                          !
 ! R48   R(44,45)                1.2511                                         !
 ! R49   R(44,56)                1.3329                                         !
 ! R50   R(46,47)                1.5282                                         !
 ! R51   R(46,52)                1.0942                                         !
 ! R52   R(46,53)                1.0978                                         !
 ! R53   R(47,48)                1.3501                                         !
 ! R54   R(47,49)                1.2356                                         !
 ! R55   R(48,54)                1.0118                                         !
 ! R56   R(48,55)                1.0092                                         !
 ! R57   R(56,57)                1.4765                                         !
 ! R58   R(56,69)                1.0305                                         !
 ! R59   R(57,58)                1.5323                                         !
 ! R60   R(57,60)                1.5393                                         !
 ! R61   R(57,70)                1.0916                                         !
 ! R62   R(58,59)                1.2187                                         !
 ! R63   R(58,67)                1.3515                                         !
 ! R64   R(60,61)                1.5354                                         !
 ! R65   R(60,71)                1.0923                                         !
 ! R66   R(60,72)                1.0955                                         !
 ! R67   R(61,62)                1.5316                                         !
 ! R68   R(61,73)                1.0938                                         !
 ! R69   R(61,74)                1.0979                                         !
 ! R70   R(62,63)                1.469                                          !
 ! R71   R(62,75)                1.0966                                         !
 ! R72   R(62,76)                1.0961                                         !
 ! R73   R(63,64)                1.4059                                         !
 ! R74   R(63,77)                1.0146                                         !
 ! R75   R(64,65)                1.2806                                         !
 ! R76   R(64,66)                1.3992                                         !
 ! R77   R(65,78)                1.0207                                         !
 ! R78   R(66,79)                1.0129                                         !
 ! R79   R(66,80)                1.0151                                         !
 ! R80   R(67,68)                0.9767                                         !
 ! A1    A(2,1,12)             109.2283                                         !
 ! A2    A(2,1,13)             109.7572                                         !
 ! A3    A(2,1,22)             113.2395                                         !
 ! A4    A(12,1,13)            104.9504                                         !
 ! A5    A(12,1,22)            108.4694                                         !
 ! A6    A(13,1,22)            110.8441                                         !
 ! A7    A(1,2,3)              103.351                                          !
 ! A8    A(1,2,5)              110.01                                           !
 ! A9    A(1,2,14)             106.7092                                         !
 ! A10   A(3,2,5)              116.873                                          !
 ! A11   A(3,2,14)             108.9415                                         !
 ! A12   A(5,2,14)             110.3206                                         !
 ! A13   A(2,3,4)              118.5505                                         !
 ! A14   A(2,3,23)             118.0594                                         !
 ! A15   A(4,3,23)             123.3336                                         !
 ! A16   A(2,5,6)              111.7381                                         !
 ! A17   A(2,5,15)             107.8568                                         !
 ! A18   A(2,5,16)             108.7278                                         !
 ! A19   A(6,5,15)             110.6671                                         !
 ! A20   A(6,5,16)             109.5647                                         !
 ! A21   A(15,5,16)            108.1916                                         !
 ! A22   A(5,6,7)              121.0951                                         !
 ! A23   A(5,6,8)              119.6072                                         !
 ! A24   A(7,6,8)              119.1541                                         !
 ! A25   A(6,7,9)              120.3799                                         !
 ! A26   A(6,7,17)             119.8598                                         !
 ! A27   A(9,7,17)             119.7556                                         !
 ! A28   A(6,8,10)             120.457                                          !
 ! A29   A(6,8,18)             119.3715                                         !
 ! A30   A(10,8,18)            120.1714                                         !
 ! A31   A(7,9,11)             120.1293                                         !
 ! A32   A(7,9,19)             119.78                                           !
 ! A33   A(11,9,19)            120.0899                                         !
 ! A34   A(8,10,11)            120.0456                                         !
 ! A35   A(8,10,20)            119.7224                                         !
 ! A36   A(11,10,20)           120.2312                                         !
 ! A37   A(9,11,10)            119.8334                                         !
 ! A38   A(9,11,21)            120.0182                                         !
 ! A39   A(10,11,21)           120.1472                                         !
 ! A40   A(3,23,24)            120.4661                                         !
 ! A41   A(3,23,31)            120.4961                                         !
 ! A42   A(24,23,31)           118.8683                                         !
 ! A43   A(23,24,25)           111.4031                                         !
 ! A44   A(23,24,27)           110.7336                                         !
 ! A45   A(23,24,32)           108.6391                                         !
 ! A46   A(25,24,27)           110.7747                                         !
 ! A47   A(25,24,32)           104.4465                                         !
 ! A48   A(27,24,32)           110.6582                                         !
 ! A49   A(24,25,26)           120.9425                                         !
 ! A50   A(24,25,42)           115.5529                                         !
 ! A51   A(26,25,42)           123.4676                                         !
 ! A52   A(24,27,28)           115.6885                                         !
 ! A53   A(24,27,33)           108.8003                                         !
 ! A54   A(24,27,34)           106.58                                           !
 ! A55   A(28,27,33)           109.7385                                         !
 ! A56   A(28,27,34)           109.1968                                         !
 ! A57   A(33,27,34)           106.407                                          !
 ! A58   A(27,28,29)           109.4148                                         !
 ! A59   A(27,28,30)           112.2455                                         !
 ! A60   A(27,28,35)           108.7142                                         !
 ! A61   A(29,28,30)           111.0002                                         !
 ! A62   A(29,28,35)           107.4152                                         !
 ! A63   A(30,28,35)           107.8964                                         !
 ! A64   A(28,29,36)           110.6355                                         !
 ! A65   A(28,29,37)           110.9276                                         !
 ! A66   A(28,29,38)           111.6324                                         !
 ! A67   A(36,29,37)           107.7212                                         !
 ! A68   A(36,29,38)           107.8173                                         !
 ! A69   A(37,29,38)           107.952                                          !
 ! A70   A(28,30,39)           110.7018                                         !
 ! A71   A(28,30,40)           112.3403                                         !
 ! A72   A(28,30,41)           110.5965                                         !
 ! A73   A(39,30,40)           107.8805                                         !
 ! A74   A(39,30,41)           107.7176                                         !
 ! A75   A(40,30,41)           107.4198                                         !
 ! A76   A(25,42,43)           119.7713                                         !
 ! A77   A(25,42,50)           116.511                                          !
 ! A78   A(43,42,50)           112.8266                                         !
 ! A79   A(42,43,44)           107.1136                                         !
 ! A80   A(42,43,46)           112.2077                                         !
 ! A81   A(42,43,51)           107.4306                                         !
 ! A82   A(44,43,46)           114.1798                                         !
 ! A83   A(44,43,51)           107.9667                                         !
 ! A84   A(46,43,51)           107.6753                                         !
 ! A85   A(43,44,45)           119.6879                                         !
 ! A86   A(43,44,56)           115.9912                                         !
 ! A87   A(45,44,56)           124.3176                                         !
 ! A88   A(43,46,47)           112.9398                                         !
 ! A89   A(43,46,52)           107.0628                                         !
 ! A90   A(43,46,53)           111.1053                                         !
 ! A91   A(47,46,52)           110.0849                                         !
 ! A92   A(47,46,53)           108.6171                                         !
 ! A93   A(52,46,53)           106.8527                                         !
 ! A94   A(46,47,48)           115.8481                                         !
 ! A95   A(46,47,49)           122.5479                                         !
 ! A96   A(48,47,49)           121.5977                                         !
 ! A97   A(47,48,54)           118.3882                                         !
 ! A98   A(47,48,55)           122.825                                          !
 ! A99   A(54,48,55)           118.3888                                         !
 ! A100  A(44,56,57)           125.5289                                         !
 ! A101  A(44,56,69)           115.5696                                         !
 ! A102  A(57,56,69)           118.7759                                         !
 ! A103  A(56,57,58)           105.9981                                         !
 ! A104  A(56,57,60)           114.0817                                         !
 ! A105  A(56,57,70)           105.2781                                         !
 ! A106  A(58,57,60)           113.2768                                         !
 ! A107  A(58,57,70)           107.8025                                         !
 ! A108  A(60,57,70)           109.9084                                         !
 ! A109  A(57,58,59)           125.6604                                         !
 ! A110  A(57,58,67)           111.7075                                         !
 ! A111  A(59,58,67)           122.0321                                         !
 ! A112  A(57,60,61)           114.5837                                         !
 ! A113  A(57,60,71)           109.0465                                         !
 ! A114  A(57,60,72)           107.1613                                         !
 ! A115  A(61,60,71)           110.1145                                         !
 ! A116  A(61,60,72)           108.8064                                         !
 ! A117  A(71,60,72)           106.8079                                         !
 ! A118  A(60,61,62)           115.0704                                         !
 ! A119  A(60,61,73)           110.6292                                         !
 ! A120  A(60,61,74)           107.9229                                         !
 ! A121  A(62,61,73)           108.5116                                         !
 ! A122  A(62,61,74)           107.6938                                         !
 ! A123  A(73,61,74)           106.6478                                         !
 ! A124  A(61,62,63)           112.249                                          !
 ! A125  A(61,62,75)           109.2321                                         !
 ! A126  A(61,62,76)           109.6623                                         !
 ! A127  A(63,62,75)           110.6842                                         !
 ! A128  A(63,62,76)           106.369                                          !
 ! A129  A(75,62,76)           108.5471                                         !
 ! A130  A(62,63,64)           118.7249                                         !
 ! A131  A(62,63,77)           113.1582                                         !
 ! A132  A(64,63,77)           111.3816                                         !
 ! A133  A(63,64,65)           120.2422                                         !
 ! A134  A(63,64,66)           111.0949                                         !
 ! A135  A(65,64,66)           128.6581                                         !
 ! A136  A(64,65,78)           111.5439                                         !
 ! A137  A(64,66,79)           114.1163                                         !
 ! A138  A(64,66,80)           113.719                                          !
 ! A139  A(79,66,80)           111.7288                                         !
 ! A140  A(58,67,68)           107.1355                                         !
 ! D1    D(12,1,2,3)            69.7453                                         !
 ! D2    D(12,1,2,5)           -55.7646                                         !
 ! D3    D(12,1,2,14)         -175.4472                                         !
 ! D4    D(13,1,2,3)           -44.8113                                         !
 ! D5    D(13,1,2,5)          -170.3213                                         !
 ! D6    D(13,1,2,14)           69.9961                                         !
 ! D7    D(22,1,2,3)          -169.2626                                         !
 ! D8    D(22,1,2,5)            65.2274                                         !
 ! D9    D(22,1,2,14)          -54.4552                                         !
 ! D10   D(1,2,3,4)             28.7994                                         !
 ! D11   D(1,2,3,23)          -148.5576                                         !
 ! D12   D(5,2,3,4)            149.7654                                         !
 ! D13   D(5,2,3,23)           -27.5916                                         !
 ! D14   D(14,2,3,4)           -84.3958                                         !
 ! D15   D(14,2,3,23)           98.2472                                         !
 ! D16   D(1,2,5,6)            -43.5477                                         !
 ! D17   D(1,2,5,15)          -165.3938                                         !
 ! D18   D(1,2,5,16)            77.5057                                         !
 ! D19   D(3,2,5,6)           -160.9373                                         !
 ! D20   D(3,2,5,15)            77.2166                                         !
 ! D21   D(3,2,5,16)           -39.8839                                         !
 ! D22   D(14,2,5,6)            73.9137                                         !
 ! D23   D(14,2,5,15)          -47.9324                                         !
 ! D24   D(14,2,5,16)         -165.0329                                         !
 ! D25   D(2,3,23,24)          171.55                                           !
 ! D26   D(2,3,23,31)           -3.6655                                         !
 ! D27   D(4,3,23,24)           -5.6712                                         !
 ! D28   D(4,3,23,31)          179.1134                                         !
 ! D29   D(2,5,6,7)            -75.5462                                         !
 ! D30   D(2,5,6,8)            100.0609                                         !
 ! D31   D(15,5,6,7)            44.6672                                         !
 ! D32   D(15,5,6,8)          -139.7258                                         !
 ! D33   D(16,5,6,7)           163.8876                                         !
 ! D34   D(16,5,6,8)           -20.5053                                         !
 ! D35   D(5,6,7,9)            175.7842                                         !
 ! D36   D(5,6,7,17)            -5.0086                                         !
 ! D37   D(8,6,7,9)              0.1576                                         !
 ! D38   D(8,6,7,17)           179.3648                                         !
 ! D39   D(5,6,8,10)          -175.7073                                         !
 ! D40   D(5,6,8,18)             4.1588                                         !
 ! D41   D(7,6,8,10)            -0.0145                                         !
 ! D42   D(7,6,8,18)           179.8515                                         !
 ! D43   D(6,7,9,11)            -0.2991                                         !
 ! D44   D(6,7,9,19)           179.3634                                         !
 ! D45   D(17,7,9,11)         -179.5072                                         !
 ! D46   D(17,7,9,19)            0.1554                                         !
 ! D47   D(6,8,10,11)            0.0126                                         !
 ! D48   D(6,8,10,20)         -179.6692                                         !
 ! D49   D(18,8,10,11)        -179.8524                                         !
 ! D50   D(18,8,10,20)           0.4659                                         !
 ! D51   D(7,9,11,10)            0.2954                                         !
 ! D52   D(7,9,11,21)          179.8983                                         !
 ! D53   D(19,9,11,10)        -179.3661                                         !
 ! D54   D(19,9,11,21)           0.2368                                         !
 ! D55   D(8,10,11,9)           -0.1525                                         !
 ! D56   D(8,10,11,21)        -179.7549                                         !
 ! D57   D(20,10,11,9)         179.5276                                         !
 ! D58   D(20,10,11,21)         -0.0748                                         !
 ! D59   D(3,23,24,25)         -58.3231                                         !
 ! D60   D(3,23,24,27)         177.9166                                         !
 ! D61   D(3,23,24,32)          56.1958                                         !
 ! D62   D(31,23,24,25)        116.9693                                         !
 ! D63   D(31,23,24,27)         -6.7909                                         !
 ! D64   D(31,23,24,32)       -128.5118                                         !
 ! D65   D(23,24,25,26)        148.6114                                         !
 ! D66   D(23,24,25,42)        -33.5228                                         !
 ! D67   D(27,24,25,26)        -87.6517                                         !
 ! D68   D(27,24,25,42)         90.2141                                         !
 ! D69   D(32,24,25,26)         31.5165                                         !
 ! D70   D(32,24,25,42)       -150.6177                                         !
 ! D71   D(23,24,27,28)        -60.7467                                         !
 ! D72   D(23,24,27,33)         63.2845                                         !
 ! D73   D(23,24,27,34)        177.6578                                         !
 ! D74   D(25,24,27,28)        175.1329                                         !
 ! D75   D(25,24,27,33)        -60.8359                                         !
 ! D76   D(25,24,27,34)         53.5374                                         !
 ! D77   D(32,24,27,28)         59.7802                                         !
 ! D78   D(32,24,27,33)       -176.1886                                         !
 ! D79   D(32,24,27,34)        -61.8153                                         !
 ! D80   D(24,25,42,43)        155.0761                                         !
 ! D81   D(24,25,42,50)         13.3742                                         !
 ! D82   D(26,25,42,43)        -27.1183                                         !
 ! D83   D(26,25,42,50)       -168.8201                                         !
 ! D84   D(24,27,28,29)        179.0469                                         !
 ! D85   D(24,27,28,30)        -57.2637                                         !
 ! D86   D(24,27,28,35)         62.0176                                         !
 ! D87   D(33,27,28,29)         55.5059                                         !
 ! D88   D(33,27,28,30)        179.1953                                         !
 ! D89   D(33,27,28,35)        -61.5234                                         !
 ! D90   D(34,27,28,29)        -60.7695                                         !
 ! D91   D(34,27,28,30)         62.9198                                         !
 ! D92   D(34,27,28,35)       -177.7988                                         !
 ! D93   D(27,28,29,36)         63.3576                                         !
 ! D94   D(27,28,29,37)       -177.1548                                         !
 ! D95   D(27,28,29,38)        -56.7139                                         !
 ! D96   D(30,28,29,36)        -61.0622                                         !
 ! D97   D(30,28,29,37)         58.4255                                         !
 ! D98   D(30,28,29,38)        178.8664                                         !
 ! D99   D(35,28,29,36)       -178.797                                          !
 ! D100  D(35,28,29,37)        -59.3094                                         !
 ! D101  D(35,28,29,38)         61.1315                                         !
 ! D102  D(27,28,30,39)        -57.416                                          !
 ! D103  D(27,28,30,40)         63.2585                                         !
 ! D104  D(27,28,30,41)       -176.728                                          !
 ! D105  D(29,28,30,39)         65.3831                                         !
 ! D106  D(29,28,30,40)       -173.9424                                         !
 ! D107  D(29,28,30,41)        -53.9289                                         !
 ! D108  D(35,28,30,39)       -177.1751                                         !
 ! D109  D(35,28,30,40)        -56.5006                                         !
 ! D110  D(35,28,30,41)         63.5128                                         !
 ! D111  D(25,42,43,44)       -122.4572                                         !
 ! D112  D(25,42,43,46)        111.4838                                         !
 ! D113  D(25,42,43,51)         -6.6746                                         !
 ! D114  D(50,42,43,44)         20.5503                                         !
 ! D115  D(50,42,43,46)       -105.5086                                         !
 ! D116  D(50,42,43,51)        136.333                                          !
 ! D117  D(42,43,44,45)         -7.0433                                         !
 ! D118  D(42,43,44,56)        172.3247                                         !
 ! D119  D(46,43,44,45)        117.8294                                         !
 ! D120  D(46,43,44,56)        -62.8026                                         !
 ! D121  D(51,43,44,45)       -122.4689                                         !
 ! D122  D(51,43,44,56)         56.899                                          !
 ! D123  D(42,43,46,47)       -152.6995                                         !
 ! D124  D(42,43,46,52)        -31.3689                                         !
 ! D125  D(42,43,46,53)         84.9606                                         !
 ! D126  D(44,43,46,47)         85.1791                                         !
 ! D127  D(44,43,46,52)       -153.4903                                         !
 ! D128  D(44,43,46,53)        -37.1608                                         !
 ! D129  D(51,43,46,47)        -34.6862                                         !
 ! D130  D(51,43,46,52)         86.6444                                         !
 ! D131  D(51,43,46,53)       -157.0261                                         !
 ! D132  D(43,44,56,57)       -174.7227                                         !
 ! D133  D(43,44,56,69)          1.1325                                         !
 ! D134  D(45,44,56,57)          4.6125                                         !
 ! D135  D(45,44,56,69)       -179.5323                                         !
 ! D136  D(43,46,47,48)        152.8687                                         !
 ! D137  D(43,46,47,49)        -28.0288                                         !
 ! D138  D(52,46,47,48)         33.2645                                         !
 ! D139  D(52,46,47,49)       -147.6329                                         !
 ! D140  D(53,46,47,48)        -83.409                                          !
 ! D141  D(53,46,47,49)         95.6936                                         !
 ! D142  D(46,47,48,54)       -179.6069                                         !
 ! D143  D(46,47,48,55)         -6.9719                                         !
 ! D144  D(49,47,48,54)          1.2812                                         !
 ! D145  D(49,47,48,55)        173.9163                                         !
 ! D146  D(44,56,57,58)         75.5288                                         !
 ! D147  D(44,56,57,60)        -49.8112                                         !
 ! D148  D(44,56,57,70)       -170.3904                                         !
 ! D149  D(69,56,57,58)       -100.2054                                         !
 ! D150  D(69,56,57,60)        134.4546                                         !
 ! D151  D(69,56,57,70)         13.8755                                         !
 ! D152  D(56,57,58,59)        -95.1701                                         !
 ! D153  D(56,57,58,67)         76.0484                                         !
 ! D154  D(60,57,58,59)         30.6632                                         !
 ! D155  D(60,57,58,67)       -158.1183                                         !
 ! D156  D(70,57,58,59)        152.4979                                         !
 ! D157  D(70,57,58,67)        -36.2836                                         !
 ! D158  D(56,57,60,61)       -152.7289                                         !
 ! D159  D(56,57,60,71)         83.3519                                         !
 ! D160  D(56,57,60,72)        -31.9114                                         !
 ! D161  D(58,57,60,61)         85.8788                                         !
 ! D162  D(58,57,60,71)        -38.0405                                         !
 ! D163  D(58,57,60,72)       -153.3038                                         !
 ! D164  D(70,57,60,61)        -34.7703                                         !
 ! D165  D(70,57,60,71)       -158.6896                                         !
 ! D166  D(70,57,60,72)         86.0471                                         !
 ! D167  D(57,58,67,68)       -170.9042                                         !
 ! D168  D(59,58,67,68)          0.6823                                         !
 ! D169  D(57,60,61,62)        -64.5882                                         !
 ! D170  D(57,60,61,73)         58.8229                                         !
 ! D171  D(57,60,61,74)        175.1495                                         !
 ! D172  D(71,60,61,62)         58.76                                           !
 ! D173  D(71,60,61,73)       -177.8289                                         !
 ! D174  D(71,60,61,74)        -61.5023                                         !
 ! D175  D(72,60,61,62)        175.5059                                         !
 ! D176  D(72,60,61,73)        -61.0829                                         !
 ! D177  D(72,60,61,74)         55.2437                                         !
 ! D178  D(60,61,62,63)         62.3892                                         !
 ! D179  D(60,61,62,75)       -174.4558                                         !
 ! D180  D(60,61,62,76)        -55.6138                                         !
 ! D181  D(73,61,62,63)        -62.1394                                         !
 ! D182  D(73,61,62,75)         61.0156                                         !
 ! D183  D(73,61,62,76)        179.8576                                         !
 ! D184  D(74,61,62,63)       -177.2227                                         !
 ! D185  D(74,61,62,75)        -54.0678                                         !
 ! D186  D(74,61,62,76)         64.7742                                         !
 ! D187  D(61,62,63,64)         75.8695                                         !
 ! D188  D(61,62,63,77)       -150.7691                                         !
 ! D189  D(75,62,63,64)        -46.4654                                         !
 ! D190  D(75,62,63,77)         86.896                                          !
 ! D191  D(76,62,63,64)       -164.1926                                         !
 ! D192  D(76,62,63,77)        -30.8311                                         !
 ! D193  D(62,63,64,65)         -5.8353                                         !
 ! D194  D(62,63,64,66)        173.4257                                         !
 ! D195  D(77,63,64,65)       -139.957                                          !
 ! D196  D(77,63,64,66)         39.304                                          !
 ! D197  D(63,64,65,78)       -174.5562                                         !
 ! D198  D(66,64,65,78)          6.3268                                         !
 ! D199  D(63,64,66,79)        173.2811                                         !
 ! D200  D(63,64,66,80)         43.5095                                         !
 ! D201  D(65,64,66,79)         -7.5365                                         !
 ! D202  D(65,64,66,80)       -137.3081                                         !
 --------------------------------------------------------------------------------
 Symmetry turned off by external request.
 Stoichiometry    C25H41N8O6(1+)
 Framework group  C1[X(C25H41N8O6)]
 Deg. of freedom   234
 Full point group                 C1      NOp   1
                          Input orientation:                          
 ---------------------------------------------------------------------
 Center     Atomic      Atomic             Coordinates (Angstroms)
 Number     Number       Type             X           Y           Z
 ---------------------------------------------------------------------
      1          7           0       -3.019539    9.187448   -7.547509
      2          6           0       -4.098638    9.020130   -6.518692
      3          6           0       -5.122933   10.116595   -6.893903
      4          8           0       -5.206662   10.464549   -8.069478
      5          6           0       -3.491841    9.087901   -5.100938
      6          6           0       -2.207583    8.290033   -5.001457
      7          6           0       -2.228303    6.890199   -4.936747
      8          6           0       -0.973491    8.952687   -5.066553
      9          6           0       -1.034895    6.165809   -4.933840
     10          6           0        0.219998    8.227806   -5.066638
     11          6           0        0.190995    6.833271   -5.001895
     12          1           0       -2.508442   10.083564   -7.368543
     13          1           0       -3.441011    9.303835   -8.477017
     14          1           0       -4.549955    8.037495   -6.692671
     15          1           0       -4.240276    8.706075   -4.396236
     16          1           0       -3.292906   10.134181   -4.853899
     17          1           0       -3.179282    6.364646   -4.875423
     18          1           0       -0.953370   10.038037   -5.119298
     19          1           0       -1.062020    5.081813   -4.872963
     20          1           0        1.169575    8.753652   -5.112006
     21          1           0        1.118230    6.268102   -4.997847
     22          1           0       -2.341336    8.422486   -7.548809
     23          7           0       -5.841994   10.680871   -5.900075
     24          6           0       -6.692425   11.850373   -6.166529
     25          6           0       -5.869740   13.027770   -6.736017
     26          8           0       -6.367088   13.819637   -7.516762
     27          6           0       -7.445124   12.275373   -4.897857
     28          6           0       -8.396404   11.218898   -4.299225
     29          6           0       -9.051576   11.782757   -3.029802
     30          6           0       -9.457595   10.755357   -5.306449
     31          1           0       -5.748935   10.351728   -4.948999
     32          1           0       -7.393938   11.597297   -6.964087
     33          1           0       -6.712778   12.588151   -4.139238
     34          1           0       -8.020588   13.171080   -5.160689
     35          1           0       -7.804196   10.337888   -4.001460
     36          1           0       -9.674081   12.653387   -3.270112
     37          1           0       -9.694702   11.033772   -2.555810
     38          1           0       -8.302221   12.098825   -2.294415
     39          1           0      -10.043224   11.607684   -5.672624
     40          1           0       -9.016541   10.252510   -6.174359
     41          1           0      -10.152265   10.050658   -4.837269
     42          7           0       -4.581150   13.133008   -6.266640
     43          6           0       -3.574168   13.801004   -7.069736
     44          6           0       -2.428334   12.784246   -7.302496
     45          8           0       -2.447531   11.682606   -6.709763
     46          6           0       -3.115970   15.140290   -6.439334
     47          6           0       -2.617452   16.146724   -7.475720
     48          7           0       -2.741389   17.448360   -7.139305
     49          8           0       -2.114997   15.800787   -8.550174
     50          1           0       -4.216236   12.333048   -5.764950
     51          1           0       -4.026994   14.028356   -8.041540
     52          1           0       -3.974244   15.551109   -5.899154
     53          1           0       -2.322097   14.977467   -5.698802
     54          1           0       -2.428888   18.147867   -7.800148
     55          1           0       -3.227712   17.755127   -6.309949
     56          7           0       -1.476899   13.161743   -8.156220
     57          6           0       -0.353407   12.321017   -8.615435
     58          6           0       -0.948459   11.337713   -9.628856
     59          8           0       -1.325373   10.205194   -9.382911
     60          6           0        0.419172   11.629108   -7.477974
     61          6           0        1.888534   11.320688   -7.799198
     62          6           0        2.107559   10.310686   -8.929574
     63          7           0        1.577174   10.788910  -10.213267
     64          6           0        2.296989   11.769026  -10.918725
     65          7           0        3.331978   12.311231  -10.394664
     66          7           0        1.732968   11.998910  -12.178415
     67          8           0       -1.191536   11.931660  -10.818237
     68          1           0       -1.698372   11.295710  -11.359224
     69          1           0       -1.591122   14.102027   -8.562159
     70          1           0        0.309807   12.998016   -9.157109
     71          1           0       -0.104442   10.712434   -7.197555
     72          1           0        0.379893   12.294868   -6.608889
     73          1           0        2.430424   12.238797   -8.043977
     74          1           0        2.354203   10.912853   -6.892432
     75          1           0        3.177957   10.087158   -9.011868
     76          1           0        1.573708    9.380846   -8.701913
     77          1           0        1.277238   10.037722  -10.825798
     78          1           0        3.697837   13.063487  -10.979608
     79          1           0        2.149577   12.771688  -12.683628
     80          1           0        0.719749   12.059900  -12.167177
 ---------------------------------------------------------------------
 Rotational constants (GHZ):           0.1111738           0.0650800           0.0474761
 Standard basis: 6-31G(d) (6D, 7F)
   667 basis functions,  1256 primitive gaussians,   667 cartesian basis functions
   147 alpha electrons      147 beta electrons
       nuclear repulsion energy      4892.6395851446 Hartrees.
 NAtoms=   80 NActive=   80 NUniq=   80 SFac= 1.00D+00 NAtFMM=   60 NAOKFM=T Big=T
 Integral buffers will be    131072 words long.
 Raffenetti 2 integral format.
 Two-electron integral symmetry is turned off.
 Nuclear repulsion after empirical dispersion term =     4892.5265389119 Hartrees.
 One-electron integrals computed using PRISM.
 NBasis=   667 RedAO= T EigKep=  4.66D-04  NBF=   667
 NBsUse=   667 1.00D-06 EigRej= -1.00D+00 NBFU=   667
 Initial guess from the checkpoint file:  "conf-14.chk"
 B after Tr=     0.000000    0.000000    0.000000
         Rot=    1.000000    0.000000    0.000000    0.000000 Ang=   0.00 deg.
 Requested convergence on RMS density matrix=1.00D-08 within 128 cycles.
 Requested convergence on MAX density matrix=1.00D-06.
 Requested convergence on             energy=1.00D-06.
 No special actions if energy rises.
 SCF Done:  E(RB3LYP) =  -1866.72139867     A.U. after    3 cycles
            NFock=  3  Conv=0.99D-09     -V/T= 2.0094

 **********************************************************************

            Population analysis using the SCF Density.

 **********************************************************************

 Alpha  occ. eigenvalues --  -19.30810 -19.25369 -19.24783 -19.24522 -19.22609
 Alpha  occ. eigenvalues --  -19.20857 -14.55385 -14.48912 -14.47210 -14.46214
 Alpha  occ. eigenvalues --  -14.45077 -14.42833 -14.42019 -14.36360 -10.43674
 Alpha  occ. eigenvalues --  -10.41966 -10.41164 -10.40134 -10.38483 -10.38032
 Alpha  occ. eigenvalues --  -10.35620 -10.34508 -10.34365 -10.33436 -10.32573
 Alpha  occ. eigenvalues --  -10.30901 -10.30756 -10.29642 -10.29408 -10.29321
 Alpha  occ. eigenvalues --  -10.29224 -10.29210 -10.28977 -10.28532 -10.28179
 Alpha  occ. eigenvalues --  -10.28030 -10.26248 -10.25354 -10.25239  -1.21779
 Alpha  occ. eigenvalues --   -1.17161  -1.15955  -1.14150  -1.12902  -1.12698
 Alpha  occ. eigenvalues --   -1.10604  -1.05226  -1.05160  -1.04127  -1.02042
 Alpha  occ. eigenvalues --   -1.01015  -0.96430  -0.96330  -0.91960  -0.91843
 Alpha  occ. eigenvalues --   -0.90292  -0.89949  -0.87789  -0.85822  -0.84782
 Alpha  occ. eigenvalues --   -0.83624  -0.83570  -0.78617  -0.78228  -0.77030
 Alpha  occ. eigenvalues --   -0.76377  -0.74755  -0.72459  -0.72221  -0.71256
 Alpha  occ. eigenvalues --   -0.70760  -0.70415  -0.69320  -0.69148  -0.68496
 Alpha  occ. eigenvalues --   -0.67904  -0.66792  -0.65846  -0.65263  -0.64175
 Alpha  occ. eigenvalues --   -0.63823  -0.63163  -0.61813  -0.61759  -0.61250
 Alpha  occ. eigenvalues --   -0.60844  -0.60154  -0.59618  -0.59275  -0.58892
 Alpha  occ. eigenvalues --   -0.58379  -0.57805  -0.56559  -0.56071  -0.55814
 Alpha  occ. eigenvalues --   -0.55294  -0.54761  -0.54682  -0.54398  -0.54217
 Alpha  occ. eigenvalues --   -0.53282  -0.52978  -0.52680  -0.52458  -0.52280
 Alpha  occ. eigenvalues --   -0.52042  -0.51792  -0.51488  -0.50985  -0.50558
 Alpha  occ. eigenvalues --   -0.50275  -0.49960  -0.49376  -0.49046  -0.48139
 Alpha  occ. eigenvalues --   -0.48096  -0.47494  -0.47057  -0.46763  -0.46346
 Alpha  occ. eigenvalues --   -0.46267  -0.46049  -0.45672  -0.44772  -0.44524
 Alpha  occ. eigenvalues --   -0.44418  -0.43871  -0.43375  -0.42912  -0.42023
 Alpha  occ. eigenvalues --   -0.41519  -0.41404  -0.41137  -0.40427  -0.39130
 Alpha  occ. eigenvalues --   -0.38702  -0.38432  -0.37590  -0.36847  -0.36691
 Alpha  occ. eigenvalues --   -0.35464  -0.35283  -0.35061  -0.34444  -0.33940
 Alpha  occ. eigenvalues --   -0.32893  -0.30972
 Alpha virt. eigenvalues --   -0.11896  -0.11358  -0.10762  -0.10571  -0.09067
 Alpha virt. eigenvalues --   -0.08181  -0.07143  -0.05121  -0.04273  -0.03502
 Alpha virt. eigenvalues --   -0.02640  -0.02106  -0.01730  -0.01158  -0.00560
 Alpha virt. eigenvalues --    0.00335   0.00491   0.00694   0.01281   0.01726
 Alpha virt. eigenvalues --    0.02079   0.02681   0.03113   0.03646   0.03791
 Alpha virt. eigenvalues --    0.04083   0.04404   0.04465   0.04998   0.05184
 Alpha virt. eigenvalues --    0.05732   0.06011   0.06313   0.06626   0.06740
 Alpha virt. eigenvalues --    0.06899   0.07369   0.07722   0.08171   0.08624
 Alpha virt. eigenvalues --    0.08771   0.08998   0.09379   0.09753   0.09960
 Alpha virt. eigenvalues --    0.10303   0.10670   0.11011   0.11421   0.11820
 Alpha virt. eigenvalues --    0.12067   0.12654   0.12986   0.13238   0.13549
 Alpha virt. eigenvalues --    0.13912   0.14258   0.14408   0.14610   0.14689
 Alpha virt. eigenvalues --    0.15589   0.15852   0.16394   0.16690   0.16988
 Alpha virt. eigenvalues --    0.17370   0.17835   0.18651   0.19444   0.20764
 Alpha virt. eigenvalues --    0.21178   0.21383   0.21885   0.22115   0.22670
 Alpha virt. eigenvalues --    0.23630   0.24596   0.25076   0.25591   0.26041
 Alpha virt. eigenvalues --    0.26725   0.27286   0.29400   0.30496   0.32283
 Alpha virt. eigenvalues --    0.33345   0.34354   0.36783   0.37968   0.38729
 Alpha virt. eigenvalues --    0.39353   0.40639   0.41139   0.41687   0.41965
 Alpha virt. eigenvalues --    0.42269   0.43019   0.43164   0.43422   0.43590
 Alpha virt. eigenvalues --    0.43964   0.44044   0.44697   0.44841   0.45395
 Alpha virt. eigenvalues --    0.45609   0.46476   0.46653   0.47395   0.47550
 Alpha virt. eigenvalues --    0.48574   0.48659   0.49095   0.49480   0.49875
 Alpha virt. eigenvalues --    0.50205   0.50744   0.50992   0.51483   0.51835
 Alpha virt. eigenvalues --    0.51903   0.52129   0.52292   0.53149   0.53682
 Alpha virt. eigenvalues --    0.54112   0.54327   0.54654   0.55037   0.55135
 Alpha virt. eigenvalues --    0.55378   0.55750   0.56329   0.56665   0.57155
 Alpha virt. eigenvalues --    0.57419   0.57982   0.58891   0.59332   0.59704
 Alpha virt. eigenvalues --    0.60184   0.60565   0.61119   0.61818   0.62197
 Alpha virt. eigenvalues --    0.62342   0.62515   0.63515   0.64094   0.64981
 Alpha virt. eigenvalues --    0.65013   0.65447   0.65837   0.66057   0.66747
 Alpha virt. eigenvalues --    0.67597   0.68540   0.68838   0.69104   0.70212
 Alpha virt. eigenvalues --    0.70815   0.71125   0.71196   0.71495   0.72071
 Alpha virt. eigenvalues --    0.72936   0.73432   0.73645   0.73877   0.74047
 Alpha virt. eigenvalues --    0.74363   0.74982   0.75211   0.75508   0.75888
 Alpha virt. eigenvalues --    0.76207   0.77195   0.77497   0.77683   0.77813
 Alpha virt. eigenvalues --    0.78170   0.78392   0.78797   0.79256   0.79614
 Alpha virt. eigenvalues --    0.80066   0.80360   0.80796   0.81110   0.81323
 Alpha virt. eigenvalues --    0.81793   0.82039   0.82299   0.82698   0.82966
 Alpha virt. eigenvalues --    0.83454   0.83594   0.83952   0.84085   0.84323
 Alpha virt. eigenvalues --    0.84933   0.85358   0.85924   0.86277   0.86484
 Alpha virt. eigenvalues --    0.86946   0.87391   0.87525   0.87943   0.88575
 Alpha virt. eigenvalues --    0.89065   0.89578   0.89887   0.90083   0.90909
 Alpha virt. eigenvalues --    0.91420   0.91812   0.92623   0.93023   0.93246
 Alpha virt. eigenvalues --    0.93943   0.94645   0.95103   0.95641   0.95962
 Alpha virt. eigenvalues --    0.97494   0.97837   0.98629   0.99420   1.00050
 Alpha virt. eigenvalues --    1.01776   1.02030   1.03109   1.04139   1.04750
 Alpha virt. eigenvalues --    1.05406   1.06095   1.06678   1.07228   1.08132
 Alpha virt. eigenvalues --    1.08998   1.09392   1.10038   1.10918   1.12260
 Alpha virt. eigenvalues --    1.13194   1.13664   1.14505   1.15564   1.16810
 Alpha virt. eigenvalues --    1.17045   1.17758   1.18229   1.19150   1.20281
 Alpha virt. eigenvalues --    1.20912   1.21491   1.22672   1.23731   1.24583
 Alpha virt. eigenvalues --    1.24871   1.26249   1.27206   1.27726   1.29191
 Alpha virt. eigenvalues --    1.30332   1.30528   1.31353   1.31626   1.32675
 Alpha virt. eigenvalues --    1.32923   1.33225   1.34010   1.34467   1.34855
 Alpha virt. eigenvalues --    1.35792   1.36599   1.36996   1.37661   1.38150
 Alpha virt. eigenvalues --    1.38640   1.39108   1.39531   1.40490   1.40967
 Alpha virt. eigenvalues --    1.41326   1.43061   1.43412   1.43767   1.46344
 Alpha virt. eigenvalues --    1.47190   1.48369   1.49649   1.49768   1.51030
 Alpha virt. eigenvalues --    1.52217   1.53618   1.55507   1.56090   1.56623
 Alpha virt. eigenvalues --    1.57819   1.58354   1.58458   1.60876   1.61686
 Alpha virt. eigenvalues --    1.62316   1.63104   1.63263   1.64358   1.64775
 Alpha virt. eigenvalues --    1.65457   1.65927   1.66542   1.67295   1.67841
 Alpha virt. eigenvalues --    1.68001   1.69008   1.69638   1.70236   1.70663
 Alpha virt. eigenvalues --    1.70760   1.70902   1.71645   1.71991   1.72359
 Alpha virt. eigenvalues --    1.72954   1.73495   1.74284   1.74971   1.75859
 Alpha virt. eigenvalues --    1.75946   1.76616   1.77260   1.77967   1.78482
 Alpha virt. eigenvalues --    1.79389   1.80031   1.80228   1.80785   1.81609
 Alpha virt. eigenvalues --    1.82091   1.82615   1.82808   1.83355   1.83689
 Alpha virt. eigenvalues --    1.84343   1.85254   1.86063   1.86662   1.87024
 Alpha virt. eigenvalues --    1.87464   1.87515   1.88066   1.89451   1.89659
 Alpha virt. eigenvalues --    1.90650   1.90935   1.91551   1.92204   1.92723
 Alpha virt. eigenvalues --    1.93359   1.93776   1.94463   1.94883   1.95113
 Alpha virt. eigenvalues --    1.96109   1.96691   1.97171   1.98188   1.98725
 Alpha virt. eigenvalues --    1.98889   1.99899   1.99955   2.01439   2.01882
 Alpha virt. eigenvalues --    2.02676   2.03916   2.04193   2.04324   2.05139
 Alpha virt. eigenvalues --    2.07053   2.07881   2.09473   2.10701   2.10842
 Alpha virt. eigenvalues --    2.11913   2.12650   2.13258   2.13958   2.14981
 Alpha virt. eigenvalues --    2.15648   2.15908   2.16910   2.17161   2.17928
 Alpha virt. eigenvalues --    2.18213   2.18874   2.20036   2.20522   2.20706
 Alpha virt. eigenvalues --    2.21105   2.21466   2.23914   2.25239   2.25304
 Alpha virt. eigenvalues --    2.27092   2.27782   2.28665   2.29481   2.30483
 Alpha virt. eigenvalues --    2.31511   2.32264   2.32679   2.33187   2.34341
 Alpha virt. eigenvalues --    2.34817   2.35396   2.36151   2.37674   2.38357
 Alpha virt. eigenvalues --    2.38930   2.39593   2.40365   2.41534   2.42904
 Alpha virt. eigenvalues --    2.43160   2.43322   2.44030   2.46368   2.46527
 Alpha virt. eigenvalues --    2.47230   2.47659   2.49528   2.49656   2.50240
 Alpha virt. eigenvalues --    2.51799   2.52006   2.52679   2.52883   2.54023
 Alpha virt. eigenvalues --    2.55483   2.55676   2.55995   2.56889   2.60031
 Alpha virt. eigenvalues --    2.60344   2.60851   2.61907   2.62711   2.62955
 Alpha virt. eigenvalues --    2.63416   2.64468   2.65193   2.65331   2.66666
 Alpha virt. eigenvalues --    2.66969   2.68999   2.70008   2.70860   2.72817
 Alpha virt. eigenvalues --    2.73514   2.75786   2.78474   2.79230   2.82479
 Alpha virt. eigenvalues --    2.85755   2.88345   2.90303   2.90995   2.92528
 Alpha virt. eigenvalues --    2.93089   2.93709   2.94675   2.95768   2.96771
 Alpha virt. eigenvalues --    2.97426   2.99573   3.03135   3.07556   3.09229
 Alpha virt. eigenvalues --    3.30527   3.71155   3.76392   3.79495   3.81574
 Alpha virt. eigenvalues --    3.87617   3.90189   3.91424   3.94473   3.99171
 Alpha virt. eigenvalues --    3.99697   4.00763   4.02239   4.03809   4.06462
 Alpha virt. eigenvalues --    4.07788   4.08366   4.10619   4.13363   4.18583
 Alpha virt. eigenvalues --    4.19218   4.20143   4.21406   4.24030   4.24243
 Alpha virt. eigenvalues --    4.27787   4.29490   4.31026   4.32632   4.36818
 Alpha virt. eigenvalues --    4.40189   4.42951   4.48133   4.49479   4.49743
 Alpha virt. eigenvalues --    4.53898   4.55121   4.60863   4.61550   4.65203
          Condensed to atoms (all electrons):
 Mulliken charges:
               1
     1  N   -0.764367
     2  C   -0.098626
     3  C    0.654733
     4  O   -0.521316
     5  C   -0.393120
     6  C    0.115284
     7  C   -0.188963
     8  C   -0.202466
     9  C   -0.126809
    10  C   -0.131498
    11  C   -0.125617
    12  H    0.469465
    13  H    0.412050
    14  H    0.215692
    15  H    0.178963
    16  H    0.191704
    17  H    0.141138
    18  H    0.163185
    19  H    0.161922
    20  H    0.157119
    21  H    0.162075
    22  H    0.405043
    23  N   -0.649196
    24  C   -0.026060
    25  C    0.600349
    26  O   -0.493857
    27  C   -0.307138
    28  C   -0.079534
    29  C   -0.444008
    30  C   -0.452254
    31  H    0.352349
    32  H    0.208354
    33  H    0.139456
    34  H    0.183797
    35  H    0.107627
    36  H    0.157788
    37  H    0.160422
    38  H    0.144849
    39  H    0.160689
    40  H    0.146060
    41  H    0.161904
    42  N   -0.609112
    43  C   -0.059467
    44  C    0.618870
    45  O   -0.611053
    46  C   -0.380072
    47  C    0.637402
    48  N   -0.735715
    49  O   -0.532680
    50  H    0.343269
    51  H    0.222277
    52  H    0.193804
    53  H    0.191945
    54  H    0.366659
    55  H    0.359047
    56  N   -0.627366
    57  C   -0.014913
    58  C    0.656196
    59  O   -0.528389
    60  C   -0.278510
    61  C   -0.280874
    62  C   -0.115692
    63  N   -0.633635
    64  C    0.575297
    65  N   -0.629032
    66  N   -0.763240
    67  O   -0.569069
    68  H    0.420991
    69  H    0.410554
    70  H    0.197260
    71  H    0.149051
    72  H    0.150846
    73  H    0.191825
    74  H    0.142680
    75  H    0.178623
    76  H    0.134561
    77  H    0.333248
    78  H    0.281524
    79  H    0.330180
    80  H    0.335521
 Sum of Mulliken charges =   1.00000
 Mulliken charges with hydrogens summed into heavy atoms:
               1
     1  N    0.522191
     2  C    0.117066
     3  C    0.654733
     4  O   -0.521316
     5  C   -0.022453
     6  C    0.115284
     7  C   -0.047825
     8  C   -0.039281
     9  C    0.035113
    10  C    0.025620
    11  C    0.036458
    23  N   -0.296846
    24  C    0.182294
    25  C    0.600349
    26  O   -0.493857
    27  C    0.016114
    28  C    0.028093
    29  C    0.019051
    30  C    0.016399
    42  N   -0.265843
    43  C    0.162810
    44  C    0.618870
    45  O   -0.611053
    46  C    0.005678
    47  C    0.637402
    48  N   -0.010010
    49  O   -0.532680
    56  N   -0.216812
    57  C    0.182347
    58  C    0.656196
    59  O   -0.528389
    60  C    0.021387
    61  C    0.053631
    62  C    0.197492
    63  N   -0.300387
    64  C    0.575297
    65  N   -0.347508
    66  N   -0.097539
    67  O   -0.148078
 Electronic spatial extent (au):  <R**2>=         221818.7510
 Charge=              1.0000 electrons
 Dipole moment (field-independent basis, Debye):
    X=            -13.5867    Y=             53.1508    Z=            -31.8902  Tot=             63.4554
 Quadrupole moment (field-independent basis, Debye-Ang):
   XX=           -166.0816   YY=            440.0095   ZZ=             18.9699
   XY=           -144.3098   XZ=             60.0562   YZ=           -354.0302
 Traceless Quadrupole moment (field-independent basis, Debye-Ang):
   XX=           -263.7142   YY=            342.3769   ZZ=            -78.6627
   XY=           -144.3098   XZ=             60.0562   YZ=           -354.0302
 Octapole moment (field-independent basis, Debye-Ang**2):
  XXX=           1384.5082  YYY=           1637.0495  ZZZ=           2571.6754  XYY=          -1095.4502
  XXY=          -1980.0579  XXZ=           1443.2716  XZZ=            381.8729  YZZ=            194.5733
  YYZ=          -2814.2549  XYZ=            561.4014
 Hexadecapole moment (field-independent basis, Debye-Ang**3):
 XXXX=         -21787.2182 YYYY=         -39992.4749 ZZZZ=         -50876.5307 XXXY=          17069.8690
 XXXZ=          -8679.5017 YYYX=          -1384.5325 YYYZ=          -5864.4270 ZZZX=          -9558.4466
 ZZZY=          29797.7151 XXYY=         -28551.7539 XXZZ=         -16795.4818 YYZZ=          -8722.6979
 XXYZ=          17441.7604 YYXZ=           2661.6111 ZZXY=           5954.6271
 N-N= 4.892526538912D+03 E-N=-1.410284978204D+04  KE= 1.849289326538D+03
 Unable to Open any file for archive entry.
 1\1\GINC-LAC-311\SP\RB3LYP\6-31G(d)\C25H41N8O6(1+)\KENGMITH\11-Jun-202
 2\0\\# B3LYP/6-31G* empiricaldispersion=gd3 guess=read geom=check nosy
 mm integral(ultrafinegrid)\\Candidate Structure: Conf:14 Charge calc i
 n gas phase\\1,1\N,0,-3.0195389161,9.1874480557,-7.5475091289\C,0,-4.0
 98637618,9.0201296467,-6.5186923651\C,0,-5.1229331594,10.1165952071,-6
 .8939028502\O,0,-5.2066617201,10.464548514,-8.0694779971\C,0,-3.491840
 6388,9.0879013204,-5.1009381144\C,0,-2.2075830909,8.2900332161,-5.0014
 56767\C,0,-2.2283033799,6.8901987394,-4.9367471017\C,0,-0.9734913736,8
 .9526868241,-5.0665534938\C,0,-1.0348953317,6.1658090854,-4.9338404566
 \C,0,0.2199977334,8.2278062793,-5.066638317\C,0,0.1909953078,6.8332706
 393,-5.0018949028\H,0,-2.5084418577,10.0835637377,-7.368543334\H,0,-3.
 4410112672,9.3038352963,-8.4770174421\H,0,-4.5499551118,8.0374947823,-
 6.692670935\H,0,-4.2402762455,8.7060748836,-4.3962364118\H,0,-3.292905
 5968,10.1341814089,-4.8538991893\H,0,-3.1792823365,6.3646455361,-4.875
 4228343\H,0,-0.9533702285,10.0380367254,-5.1192978189\H,0,-1.062020375
 8,5.081813331,-4.8729629855\H,0,1.1695750508,8.7536521525,-5.112006468
 5\H,0,1.1182304356,6.2681017734,-4.9978465169\H,0,-2.3413357363,8.4224
 858891,-7.5488091426\N,0,-5.8419943724,10.6808714893,-5.9000754089\C,0
 ,-6.6924252056,11.8503729346,-6.1665294565\C,0,-5.8697398368,13.027770
 4538,-6.7360166538\O,0,-6.3670876144,13.8196374501,-7.5167616666\C,0,-
 7.4451236129,12.2753726974,-4.8978573168\C,0,-8.3964038346,11.21889811
 25,-4.2992251728\C,0,-9.0515764322,11.7827569253,-3.0298018468\C,0,-9.
 4575950645,10.755357267,-5.3064493231\H,0,-5.7489345038,10.3517275098,
 -4.9489993501\H,0,-7.3939384202,11.597297103,-6.9640867924\H,0,-6.7127
 775721,12.5881508055,-4.1392377392\H,0,-8.0205880263,13.1710802673,-5.
 1606894728\H,0,-7.8041955633,10.3378881649,-4.0014595273\H,0,-9.674080
 7395,12.6533868975,-3.2701122065\H,0,-9.6947015757,11.0337720609,-2.55
 58096715\H,0,-8.3022214805,12.0988253645,-2.294415066\H,0,-10.04322382
 64,11.6076841984,-5.6726244575\H,0,-9.0165406748,10.2525101517,-6.1743
 591653\H,0,-10.1522648293,10.050658114,-4.8372689011\N,0,-4.5811503242
 ,13.1330077717,-6.2666404788\C,0,-3.574168142,13.8010041662,-7.0697362
 739\C,0,-2.4283343398,12.7842462622,-7.3024957119\O,0,-2.4475314481,11
 .682605601,-6.7097632789\C,0,-3.1159704175,15.1402895158,-6.4393335671
 \C,0,-2.617451976,16.1467236404,-7.4757199402\N,0,-2.7413894932,17.448
 3602236,-7.1393050484\O,0,-2.114996977,15.8007872988,-8.5501737213\H,0
 ,-4.2162359407,12.3330483591,-5.7649495149\H,0,-4.0269937051,14.028356
 2702,-8.0415400625\H,0,-3.974244037,15.5511086439,-5.8991539356\H,0,-2
 .3220966788,14.9774668212,-5.698802125\H,0,-2.4288884614,18.1478666218
 ,-7.8001484821\H,0,-3.2277122785,17.7551270221,-6.3099490494\N,0,-1.47
 68989469,13.161742787,-8.1562197535\C,0,-0.3534069904,12.3210170807,-8
 .6154352904\C,0,-0.9484589778,11.3377125319,-9.6288564326\O,0,-1.32537
 33345,10.2051943879,-9.3829108548\C,0,0.4191717322,11.6291078152,-7.47
 79744494\C,0,1.8885341982,11.320688496,-7.7991978879\C,0,2.107558598,1
 0.310685866,-8.9295738058\N,0,1.5771736403,10.7889101096,-10.213267342
 \C,0,2.2969888978,11.7690255838,-10.9187253624\N,0,3.331978125,12.3112
 31392,-10.3946638369\N,0,1.7329678586,11.9989096566,-12.178414894\O,0,
 -1.1915358917,11.9316600339,-10.8182369723\H,0,-1.6983723116,11.295710
 025,-11.3592243439\H,0,-1.5911217225,14.1020270207,-8.5621590543\H,0,0
 .3098074879,12.9980160763,-9.1571087353\H,0,-0.1044424881,10.712434316
 9,-7.197555295\H,0,0.3798927052,12.2948676141,-6.6088893658\H,0,2.4304
 237411,12.238797088,-8.0439767547\H,0,2.3542030851,10.9128534587,-6.89
 24321464\H,0,3.1779572567,10.0871584701,-9.0118684045\H,0,1.5737081013
 ,9.380846492,-8.7019129959\H,0,1.2772379022,10.0377224903,-10.82579788
 16\H,0,3.6978371794,13.0634873129,-10.9796084185\H,0,2.1495774629,12.7
 716883829,-12.6836283915\H,0,0.719749473,12.0598997426,-12.167176532\\
 Version=ES64L-G16RevC.01\HF=-1866.7213987\RMSD=9.878e-10\Dipole=-0.351
 2266,-0.6780407,1.050968\Quadrupole=-196.0650352,254.5488543,-58.48381
 91,-107.2908122,44.6503158,-263.2127716\PG=C01 [X(C25H41N8O6)]\\@
 The archive entry for this job was punched.


 10 WHATSOEVER THY HAND FINDETH TO DO, DO IT WITH THY  
 MIGHT. FOR THERE IS NO WORK, NOR DEVICE, NOR KNOWLEDGE, NOR  
 WISDOM, IN THE GRAVE, WHITHER THOU GOEST.                    
 11 I RETURNED AND SAW UNDER THE SUN, THAT THE RACE IS NOT TO 
 THE SWIFT, NOR THE BATTLE TO THE STRONG, NEITHER YET BREAD TO
 THE WISE, NOR YET RICHES TO MEN OF UNDERSTANDING, NOR YET    
 FAVOR TO MEN OF SKILL. BUT TIME AND CHANCE HAPPEN TO THEM ALL.
 12 FOR MAN ALSO KNOWETH NOT HIS TIME. AS THE FISHES   
 THAT ARE TAKEN IN AN EVIL NET, AND AS THE BIRDS THAT ARE     
 CAUGHT IN THE SNARE. SO ARE THE SONS OF MEN SNARED IN AN EVIL
 TIME, WHEN IT FALLETH SUDDENLY UPON THEM.
                                         ECCLESIASTES 9
 Job cpu time:       0 days  0 hours  5 minutes  6.0 seconds.
 Elapsed time:       0 days  0 hours  1 minutes 17.4 seconds.
 File lengths (MBytes):  RWF=    344 Int=      0 D2E=      0 Chk=     48 Scr=     16
 Normal termination of Gaussian 16 at Sat Jun 11 21:07:40 2022.
