 Entering Gaussian System, Link 0=/opt/software/Gaussian/g16-AVX2-C.01/g16/g16
 Input=charge-conf-34.com
 Output=charge-conf-34.log
 Initial command:
 /opt/software/Gaussian/g16-AVX2-C.01/g16/l1.exe "/mnt/gs18/scratch/users/kengmith/Gau-19741.inp" -scrdir="/mnt/gs18/scratch/users/kengmith/"
 Entering Link 1 = /opt/software/Gaussian/g16-AVX2-C.01/g16/l1.exe PID=     19754.
  
 Copyright (c) 1988-2019, Gaussian, Inc.  All Rights Reserved.
  
 This is part of the Gaussian(R) 16 program.  It is based on
 the Gaussian(R) 09 system (copyright 2009, Gaussian, Inc.),
 the Gaussian(R) 03 system (copyright 2003, Gaussian, Inc.),
 the Gaussian(R) 98 system (copyright 1998, Gaussian, Inc.),
 the Gaussian(R) 94 system (copyright 1995, Gaussian, Inc.),
 the Gaussian 92(TM) system (copyright 1992, Gaussian, Inc.),
 the Gaussian 90(TM) system (copyright 1990, Gaussian, Inc.),
 the Gaussian 88(TM) system (copyright 1988, Gaussian, Inc.),
 the Gaussian 86(TM) system (copyright 1986, Carnegie Mellon
 University), and the Gaussian 82(TM) system (copyright 1983,
 Carnegie Mellon University). Gaussian is a federally registered
 trademark of Gaussian, Inc.
  
 This software contains proprietary and confidential information,
 including trade secrets, belonging to Gaussian, Inc.
  
 This software is provided under written license and may be
 used, copied, transmitted, or stored only in accord with that
 written license.
  
 The following legend is applicable only to US Government
 contracts under FAR:
  
                    RESTRICTED RIGHTS LEGEND
  
 Use, reproduction and disclosure by the US Government is
 subject to restrictions as set forth in subparagraphs (a)
 and (c) of the Commercial Computer Software - Restricted
 Rights clause in FAR 52.227-19.
  
 Gaussian, Inc.
 340 Quinnipiac St., Bldg. 40, Wallingford CT 06492
  
  
 ---------------------------------------------------------------
 Warning -- This program may not be used in any manner that
 competes with the business of Gaussian, Inc. or will provide
 assistance to any competitor of Gaussian, Inc.  The licensee
 of this program is prohibited from giving any competitor of
 Gaussian, Inc. access to this program.  By using this program,
 the user acknowledges that Gaussian, Inc. is engaged in the
 business of creating and licensing software in the field of
 computational chemistry and represents and warrants to the
 licensee that it is not a competitor of Gaussian, Inc. and that
 it will not use this program in any manner prohibited above.
 ---------------------------------------------------------------
  

 Cite this work as:
 Gaussian 16, Revision C.01,
 M. J. Frisch, G. W. Trucks, H. B. Schlegel, G. E. Scuseria, 
 M. A. Robb, J. R. Cheeseman, G. Scalmani, V. Barone, 
 G. A. Petersson, H. Nakatsuji, X. Li, M. Caricato, A. V. Marenich, 
 J. Bloino, B. G. Janesko, R. Gomperts, B. Mennucci, H. P. Hratchian, 
 J. V. Ortiz, A. F. Izmaylov, J. L. Sonnenberg, D. Williams-Young, 
 F. Ding, F. Lipparini, F. Egidi, J. Goings, B. Peng, A. Petrone, 
 T. Henderson, D. Ranasinghe, V. G. Zakrzewski, J. Gao, N. Rega, 
 G. Zheng, W. Liang, M. Hada, M. Ehara, K. Toyota, R. Fukuda, 
 J. Hasegawa, M. Ishida, T. Nakajima, Y. Honda, O. Kitao, H. Nakai, 
 T. Vreven, K. Throssell, J. A. Montgomery, Jr., J. E. Peralta, 
 F. Ogliaro, M. J. Bearpark, J. J. Heyd, E. N. Brothers, K. N. Kudin, 
 V. N. Staroverov, T. A. Keith, R. Kobayashi, J. Normand, 
 K. Raghavachari, A. P. Rendell, J. C. Burant, S. S. Iyengar, 
 J. Tomasi, M. Cossi, J. M. Millam, M. Klene, C. Adamo, R. Cammi, 
 J. W. Ochterski, R. L. Martin, K. Morokuma, O. Farkas, 
 J. B. Foresman, and D. J. Fox, Gaussian, Inc., Wallingford CT, 2019.
 
 ******************************************
 Gaussian 16:  ES64L-G16RevC.01  3-Jul-2019
                11-Jun-2022 
 ******************************************
 %mem=8gb
 %nproc=4
 Will use up to    4 processors via shared memory.
 %chk=conf-34.chk
 ----------------------------------------------------------------------
 # B3LYP/6-31G* empiricaldispersion=gd3 guess=read geom=check nosymm in
 tegral(ultrafinegrid)
 ----------------------------------------------------------------------
 1/29=2,38=1,172=1/1;
 2/12=2,15=1,40=1/2;
 3/5=1,6=6,7=1,11=2,14=-4,25=1,30=1,74=-5,75=-5,116=-2,124=31/1,2,3;
 4/5=1/1;
 5/5=2,38=6/2;
 6/7=2,8=2,9=2,10=2,28=1/1;
 99/5=1,9=1/99;
 -----------------------------------------------------
 Candidate Structure: Conf:34 Charge calc in gas phase
 -----------------------------------------------------
 Structure from the checkpoint file:  "conf-34.chk"
 Charge =  1 Multiplicity = 1
 Redundant internal coordinates found in file.  (old form).
 N,0,-3.7319670767,9.8341450352,-7.0659325221
 C,0,-5.2322640312,9.6476681585,-7.0952660834
 C,0,-5.6573388439,9.7887871123,-8.5691532052
 O,0,-6.0698506656,8.8245263377,-9.1870582822
 C,0,-5.9039646874,10.6062909392,-6.1021356666
 C,0,-5.3199377096,10.5169399629,-4.7047143734
 C,0,-5.2713001421,9.2925177345,-4.0212766613
 C,0,-4.8111627622,11.6607659273,-4.0777041017
 C,0,-4.7224097553,9.2153882345,-2.740878174
 C,0,-4.2770368808,11.5882758158,-2.789305332
 C,0,-4.2256172431,10.3645903963,-2.120431736
 H,0,-3.4397995498,10.8316940124,-7.1917387855
 H,0,-3.2756597882,9.3439900379,-7.8483484741
 H,0,-5.4209820512,8.6083674052,-6.8244796986
 H,0,-6.9726187286,10.3589910169,-6.0996375443
 H,0,-5.8253342409,11.6372457062,-6.4661254728
 H,0,-5.6830476583,8.3954458984,-4.4790930614
 H,0,-4.8439027338,12.6169459137,-4.5945730561
 H,0,-4.6966980687,8.2614188387,-2.2223708903
 H,0,-3.9027818994,12.4878170472,-2.3098154373
 H,0,-3.8093727543,10.3072058031,-1.1190176036
 H,0,-3.2947850532,9.5321019353,-6.1858463342
 N,0,-5.4427188183,11.028927616,-9.12128449
 C,0,-4.9384054524,11.1102385172,-10.5050212861
 C,0,-3.4106562159,11.1642346218,-10.2946432871
 O,0,-2.8104140882,10.1861575405,-9.8444746897
 C,0,-5.597086845,12.2373548039,-11.2997163199
 C,0,-7.1258802722,12.0888205281,-11.4517844816
 C,0,-7.6802752336,13.2744143067,-12.2538881135
 C,0,-7.522889764,10.7513432846,-12.0945171607
 H,0,-5.0371258895,11.7364087511,-8.5156484485
 H,0,-5.1510866035,10.1467480999,-10.9688537185
 H,0,-5.398244218,13.2057406076,-10.8134653649
 H,0,-5.1310864634,12.2751264798,-12.2943526742
 H,0,-7.5579847652,12.122798291,-10.4422382377
 H,0,-7.2881081655,13.2714364505,-13.2789508439
 H,0,-8.7723130791,13.2243193963,-12.3172105423
 H,0,-7.4153572426,14.2348182614,-11.7945892612
 H,0,-7.0263606459,10.6187287859,-13.0648935618
 H,0,-7.272708834,9.8963651401,-11.4576828373
 H,0,-8.6033615178,10.7217011692,-12.270980534
 N,0,-2.7906966291,12.3641750754,-10.4702939003
 C,0,-1.5206611573,12.5935544785,-9.8067208738
 C,0,-1.7083298869,12.4135050007,-8.2650274842
 O,0,-2.8492811381,12.3413155605,-7.7679963453
 C,0,-0.9501846046,13.9662602652,-10.2107450032
 C,0,0.5781424465,14.0309618426,-10.107464593
 N,0,1.1527287807,15.0911007783,-10.7152719806
 O,0,1.2405744429,13.1815039873,-9.508750446
 H,0,-3.3738049523,13.1684227173,-10.6591546452
 H,0,-0.8279653902,11.8122737186,-10.1306586553
 H,0,-1.2381802438,14.1680193715,-11.2497537976
 H,0,-1.3817297217,14.7694111319,-9.5991104529
 H,0,2.1597230989,15.1807679762,-10.6767812478
 H,0,0.6315317553,15.7651644174,-11.2566791016
 N,0,-0.5628177559,12.3273239133,-7.581032992
 C,0,-0.389606466,11.9962663347,-6.1515559
 C,0,-0.354979042,10.4652598642,-6.0891309976
 O,0,-1.3028257269,9.7369133496,-5.8506066799
 C,0,-1.4333870914,12.6241754062,-5.2156261066
 C,0,-0.9474357906,12.8130842141,-3.7713531612
 C,0,-0.6206643178,11.5210435571,-3.0170239444
 N,0,0.4908562844,10.7831670452,-3.6325275626
 C,0,1.8031314661,11.2513483677,-3.4437559976
 N,0,2.011822539,12.3647784121,-2.8467200575
 N,0,2.7389526453,10.3497483372,-3.9625959086
 O,0,0.8231830253,9.9763454229,-6.5369537949
 H,0,0.7225381538,9.0076480984,-6.6125268142
 H,0,0.2904337109,12.4173858554,-8.1436568818
 H,0,0.6066169172,12.3601760213,-5.8906082773
 H,0,-2.3437704605,12.0212304815,-5.2309672513
 H,0,-1.6983624828,13.6019790728,-5.6301212292
 H,0,-0.0688989636,13.4642514695,-3.7431541309
 H,0,-1.7397525889,13.331175513,-3.2170239946
 H,0,-0.3911356477,11.762639198,-1.9720846228
 H,0,-1.4873467212,10.8526994481,-3.0387076192
 H,0,0.4315023243,9.7811114932,-3.4836739757
 H,0,3.0009043523,12.6169085579,-2.8594160151
 H,0,3.6933605968,10.6885820736,-3.9489424708
 H,0,2.4856647878,9.9740264713,-4.8708153885
 Recover connectivity data from disk.
                           ----------------------------
                           !    Current Parameters    !
                           ! (Angstroms and Degrees)  !
 --------------------------                            --------------------------
 ! Name  Definition              Value                                          !
 --------------------------------------------------------------------------------
 ! R1    R(1,2)                  1.5121                                         !
 ! R2    R(1,12)                 1.047                                          !
 ! R3    R(1,13)                 1.0299                                         !
 ! R4    R(1,22)                 1.0281                                         !
 ! R5    R(2,3)                  1.5404                                         !
 ! R6    R(2,5)                  1.5351                                         !
 ! R7    R(2,14)                 1.0905                                         !
 ! R8    R(3,4)                  1.2173                                         !
 ! R9    R(3,23)                 1.3744                                         !
 ! R10   R(5,6)                  1.5172                                         !
 ! R11   R(5,15)                 1.0969                                         !
 ! R12   R(5,16)                 1.0961                                         !
 ! R13   R(6,7)                  1.4031                                         !
 ! R14   R(6,8)                  1.4001                                         !
 ! R15   R(7,9)                  1.3952                                         !
 ! R16   R(7,17)                 1.0881                                         !
 ! R17   R(8,10)                 1.3966                                         !
 ! R18   R(8,18)                 1.0874                                         !
 ! R19   R(9,11)                 1.3973                                         !
 ! R20   R(9,19)                 1.0861                                         !
 ! R21   R(10,11)                1.3955                                         !
 ! R22   R(10,20)                1.0859                                         !
 ! R23   R(11,21)                1.086                                          !
 ! R24   R(23,24)                1.475                                          !
 ! R25   R(23,31)                1.0158                                         !
 ! R26   R(24,25)                1.5431                                         !
 ! R27   R(24,27)                1.5283                                         !
 ! R28   R(24,32)                1.0903                                         !
 ! R29   R(25,26)                1.2327                                         !
 ! R30   R(25,42)                1.362                                          !
 ! R31   R(27,28)                1.5435                                         !
 ! R32   R(27,33)                1.1017                                         !
 ! R33   R(27,34)                1.099                                          !
 ! R34   R(28,29)                1.535                                          !
 ! R35   R(28,30)                1.5361                                         !
 ! R36   R(28,35)                1.0987                                         !
 ! R37   R(29,36)                1.0975                                         !
 ! R38   R(29,37)                1.095                                          !
 ! R39   R(29,38)                1.097                                          !
 ! R40   R(30,39)                1.0981                                         !
 ! R41   R(30,40)                1.0951                                         !
 ! R42   R(30,41)                1.0952                                         !
 ! R43   R(42,43)                1.4512                                         !
 ! R44   R(42,50)                1.0112                                         !
 ! R45   R(43,44)                1.5635                                         !
 ! R46   R(43,46)                1.5405                                         !
 ! R47   R(43,51)                1.0932                                         !
 ! R48   R(44,45)                1.2466                                         !
 ! R49   R(44,56)                1.337                                          !
 ! R50   R(46,47)                1.5332                                         !
 ! R51   R(46,52)                1.0969                                         !
 ! R52   R(46,53)                1.0979                                         !
 ! R53   R(47,48)                1.3504                                         !
 ! R54   R(47,49)                1.2324                                         !
 ! R55   R(48,54)                1.0117                                         !
 ! R56   R(48,55)                1.0095                                         !
 ! R57   R(56,57)                1.4775                                         !
 ! R58   R(56,69)                1.026                                          !
 ! R59   R(57,58)                1.5327                                         !
 ! R60   R(57,60)                1.5361                                         !
 ! R61   R(57,70)                1.0922                                         !
 ! R62   R(58,59)                1.2189                                         !
 ! R63   R(58,67)                1.3519                                         !
 ! R64   R(60,61)                1.5355                                         !
 ! R65   R(60,71)                1.0921                                         !
 ! R66   R(60,72)                1.0946                                         !
 ! R67   R(61,62)                1.5314                                         !
 ! R68   R(61,73)                1.0939                                         !
 ! R69   R(61,74)                1.097                                          !
 ! R70   R(62,63)                1.4693                                         !
 ! R71   R(62,75)                1.0968                                         !
 ! R72   R(62,76)                1.0947                                         !
 ! R73   R(63,64)                1.406                                          !
 ! R74   R(63,77)                1.0148                                         !
 ! R75   R(64,65)                1.2805                                         !
 ! R76   R(64,66)                1.3992                                         !
 ! R77   R(65,78)                1.0208                                         !
 ! R78   R(66,79)                1.0129                                         !
 ! R79   R(66,80)                1.015                                          !
 ! R80   R(67,68)                0.9768                                         !
 ! A1    A(2,1,12)             113.0802                                         !
 ! A2    A(2,1,13)             111.4798                                         !
 ! A3    A(2,1,22)             113.7219                                         !
 ! A4    A(12,1,13)            103.7993                                         !
 ! A5    A(12,1,22)            105.314                                          !
 ! A6    A(13,1,22)            108.7914                                         !
 ! A7    A(1,2,3)              106.3228                                         !
 ! A8    A(1,2,5)              110.1564                                         !
 ! A9    A(1,2,14)             106.5247                                         !
 ! A10   A(3,2,5)              116.1713                                         !
 ! A11   A(3,2,14)             106.0904                                         !
 ! A12   A(5,2,14)             111.0267                                         !
 ! A13   A(2,3,4)              120.4393                                         !
 ! A14   A(2,3,23)             115.0844                                         !
 ! A15   A(4,3,23)             124.3174                                         !
 ! A16   A(2,5,6)              112.9964                                         !
 ! A17   A(2,5,15)             106.6775                                         !
 ! A18   A(2,5,16)             109.9451                                         !
 ! A19   A(6,5,15)             111.0789                                         !
 ! A20   A(6,5,16)             109.4891                                         !
 ! A21   A(15,5,16)            106.4207                                         !
 ! A22   A(5,6,7)              120.8893                                         !
 ! A23   A(5,6,8)              120.2811                                         !
 ! A24   A(7,6,8)              118.8285                                         !
 ! A25   A(6,7,9)              120.5897                                         !
 ! A26   A(6,7,17)             120.0935                                         !
 ! A27   A(9,7,17)             119.3033                                         !
 ! A28   A(6,8,10)             120.6437                                         !
 ! A29   A(6,8,18)             119.6399                                         !
 ! A30   A(10,8,18)            119.7119                                         !
 ! A31   A(7,9,11)             120.1256                                         !
 ! A32   A(7,9,19)             119.7352                                         !
 ! A33   A(11,9,19)            120.1326                                         !
 ! A34   A(8,10,11)            120.1174                                         !
 ! A35   A(8,10,20)            119.7467                                         !
 ! A36   A(11,10,20)           120.1359                                         !
 ! A37   A(9,11,10)            119.6867                                         !
 ! A38   A(9,11,21)            120.1501                                         !
 ! A39   A(10,11,21)           120.1611                                         !
 ! A40   A(3,23,24)            118.6861                                         !
 ! A41   A(3,23,31)            116.8268                                         !
 ! A42   A(24,23,31)           112.6073                                         !
 ! A43   A(23,24,25)           102.2708                                         !
 ! A44   A(23,24,27)           112.4017                                         !
 ! A45   A(23,24,32)           106.4806                                         !
 ! A46   A(25,24,27)           118.1496                                         !
 ! A47   A(25,24,32)           106.3828                                         !
 ! A48   A(27,24,32)           110.2698                                         !
 ! A49   A(24,25,26)           120.2719                                         !
 ! A50   A(24,25,42)           117.6388                                         !
 ! A51   A(26,25,42)           121.6332                                         !
 ! A52   A(24,27,28)           114.0249                                         !
 ! A53   A(24,27,33)           109.9351                                         !
 ! A54   A(24,27,34)           108.2515                                         !
 ! A55   A(28,27,33)           107.8687                                         !
 ! A56   A(28,27,34)           109.5185                                         !
 ! A57   A(33,27,34)           107.0196                                         !
 ! A58   A(27,28,29)           109.5648                                         !
 ! A59   A(27,28,30)           112.396                                          !
 ! A60   A(27,28,35)           107.2204                                         !
 ! A61   A(29,28,30)           111.1315                                         !
 ! A62   A(29,28,35)           108.3134                                         !
 ! A63   A(30,28,35)           108.0448                                         !
 ! A64   A(28,29,36)           110.909                                          !
 ! A65   A(28,29,37)           110.7971                                         !
 ! A66   A(28,29,38)           111.7262                                         !
 ! A67   A(36,29,37)           107.5906                                         !
 ! A68   A(36,29,38)           107.8855                                         !
 ! A69   A(37,29,38)           107.7633                                         !
 ! A70   A(28,30,39)           110.9805                                         !
 ! A71   A(28,30,40)           112.1747                                         !
 ! A72   A(28,30,41)           110.2408                                         !
 ! A73   A(39,30,40)           108.4409                                         !
 ! A74   A(39,30,41)           107.4846                                         !
 ! A75   A(40,30,41)           107.3355                                         !
 ! A76   A(25,42,43)           118.5971                                         !
 ! A77   A(25,42,50)           117.5366                                         !
 ! A78   A(43,42,50)           117.669                                          !
 ! A79   A(42,43,44)           109.1256                                         !
 ! A80   A(42,43,46)           110.1833                                         !
 ! A81   A(42,43,51)           107.8228                                         !
 ! A82   A(44,43,46)           113.9346                                         !
 ! A83   A(44,43,51)           106.615                                          !
 ! A84   A(46,43,51)           108.9331                                         !
 ! A85   A(43,44,45)           120.6427                                         !
 ! A86   A(43,44,56)           114.1454                                         !
 ! A87   A(45,44,56)           125.2028                                         !
 ! A88   A(43,46,47)           112.8982                                         !
 ! A89   A(43,46,52)           108.3674                                         !
 ! A90   A(43,46,53)           111.1123                                         !
 ! A91   A(47,46,52)           108.5281                                         !
 ! A92   A(47,46,53)           108.87                                           !
 ! A93   A(52,46,53)           106.8543                                         !
 ! A94   A(46,47,48)           115.2754                                         !
 ! A95   A(46,47,49)           122.6457                                         !
 ! A96   A(48,47,49)           122.0782                                         !
 ! A97   A(47,48,54)           118.4231                                         !
 ! A98   A(47,48,55)           123.0872                                         !
 ! A99   A(54,48,55)           118.3659                                         !
 ! A100  A(44,56,57)           127.5796                                         !
 ! A101  A(44,56,69)           115.235                                          !
 ! A102  A(57,56,69)           116.9179                                         !
 ! A103  A(56,57,58)           105.4191                                         !
 ! A104  A(56,57,60)           114.7226                                         !
 ! A105  A(56,57,70)           105.273                                          !
 ! A106  A(58,57,60)           113.5064                                         !
 ! A107  A(58,57,70)           107.6065                                         !
 ! A108  A(60,57,70)           109.7552                                         !
 ! A109  A(57,58,59)           125.9643                                         !
 ! A110  A(57,58,67)           111.5586                                         !
 ! A111  A(59,58,67)           121.7621                                         !
 ! A112  A(57,60,61)           114.0996                                         !
 ! A113  A(57,60,71)           109.4027                                         !
 ! A114  A(57,60,72)           107.3926                                         !
 ! A115  A(61,60,71)           110.1799                                         !
 ! A116  A(61,60,72)           108.8378                                         !
 ! A117  A(71,60,72)           106.6239                                         !
 ! A118  A(60,61,62)           115.2801                                         !
 ! A119  A(60,61,73)           110.5882                                         !
 ! A120  A(60,61,74)           107.7467                                         !
 ! A121  A(62,61,73)           108.5516                                         !
 ! A122  A(62,61,74)           107.678                                          !
 ! A123  A(73,61,74)           106.6122                                         !
 ! A124  A(61,62,63)           112.2586                                         !
 ! A125  A(61,62,75)           109.1534                                         !
 ! A126  A(61,62,76)           109.659                                          !
 ! A127  A(63,62,75)           110.574                                          !
 ! A128  A(63,62,76)           106.5012                                         !
 ! A129  A(75,62,76)           108.6054                                         !
 ! A130  A(62,63,64)           118.8553                                         !
 ! A131  A(62,63,77)           112.9673                                         !
 ! A132  A(64,63,77)           111.3276                                         !
 ! A133  A(63,64,65)           120.2808                                         !
 ! A134  A(63,64,66)           111.0926                                         !
 ! A135  A(65,64,66)           128.6208                                         !
 ! A136  A(64,65,78)           111.5232                                         !
 ! A137  A(64,66,79)           114.1834                                         !
 ! A138  A(64,66,80)           113.7925                                         !
 ! A139  A(79,66,80)           111.7801                                         !
 ! A140  A(58,67,68)           107.1258                                         !
 ! D1    D(12,1,2,3)            74.5349                                         !
 ! D2    D(12,1,2,5)           -52.1247                                         !
 ! D3    D(12,1,2,14)         -172.6275                                         !
 ! D4    D(13,1,2,3)           -41.9722                                         !
 ! D5    D(13,1,2,5)          -168.6318                                         !
 ! D6    D(13,1,2,14)           70.8654                                         !
 ! D7    D(22,1,2,3)          -165.4098                                         !
 ! D8    D(22,1,2,5)            67.9306                                         !
 ! D9    D(22,1,2,14)          -52.5722                                         !
 ! D10   D(1,2,3,4)            111.3608                                         !
 ! D11   D(1,2,3,23)           -64.2526                                         !
 ! D12   D(5,2,3,4)           -125.6834                                         !
 ! D13   D(5,2,3,23)            58.7032                                         !
 ! D14   D(14,2,3,4)            -1.7763                                         !
 ! D15   D(14,2,3,23)         -177.3897                                         !
 ! D16   D(1,2,5,6)            -52.4087                                         !
 ! D17   D(1,2,5,15)          -174.7529                                         !
 ! D18   D(1,2,5,16)            70.2453                                         !
 ! D19   D(3,2,5,6)           -173.3376                                         !
 ! D20   D(3,2,5,15)            64.3182                                         !
 ! D21   D(3,2,5,16)           -50.6836                                         !
 ! D22   D(14,2,5,6)            65.3468                                         !
 ! D23   D(14,2,5,15)          -56.9974                                         !
 ! D24   D(14,2,5,16)         -171.9992                                         !
 ! D25   D(2,3,23,24)          139.57                                           !
 ! D26   D(2,3,23,31)           -0.5832                                         !
 ! D27   D(4,3,23,24)          -35.8506                                         !
 ! D28   D(4,3,23,31)         -176.0038                                         !
 ! D29   D(2,5,6,7)            -55.6651                                         !
 ! D30   D(2,5,6,8)            123.9457                                         !
 ! D31   D(15,5,6,7)            64.1829                                         !
 ! D32   D(15,5,6,8)          -116.2063                                         !
 ! D33   D(16,5,6,7)          -178.5729                                         !
 ! D34   D(16,5,6,8)             1.0379                                         !
 ! D35   D(5,6,7,9)            179.4476                                         !
 ! D36   D(5,6,7,17)            -1.8956                                         !
 ! D37   D(8,6,7,9)             -0.1687                                         !
 ! D38   D(8,6,7,17)           178.4881                                         !
 ! D39   D(5,6,8,10)           179.7248                                         !
 ! D40   D(5,6,8,18)             0.4977                                         !
 ! D41   D(7,6,8,10)            -0.6564                                         !
 ! D42   D(7,6,8,18)          -179.8835                                         !
 ! D43   D(6,7,9,11)             0.6059                                         !
 ! D44   D(6,7,9,19)           179.6712                                         !
 ! D45   D(17,7,9,11)         -178.0615                                         !
 ! D46   D(17,7,9,19)            1.0039                                         !
 ! D47   D(6,8,10,11)            1.0472                                         !
 ! D48   D(6,8,10,20)         -178.8992                                         !
 ! D49   D(18,8,10,11)        -179.7262                                         !
 ! D50   D(18,8,10,20)           0.3273                                         !
 ! D51   D(7,9,11,10)           -0.2181                                         !
 ! D52   D(7,9,11,21)          179.2512                                         !
 ! D53   D(19,9,11,10)        -179.2797                                         !
 ! D54   D(19,9,11,21)           0.1896                                         !
 ! D55   D(8,10,11,9)           -0.6021                                         !
 ! D56   D(8,10,11,21)         179.9286                                         !
 ! D57   D(20,10,11,9)         179.3441                                         !
 ! D58   D(20,10,11,21)         -0.1251                                         !
 ! D59   D(3,23,24,25)         -91.9649                                         !
 ! D60   D(3,23,24,27)         140.3103                                         !
 ! D61   D(3,23,24,32)          19.4649                                         !
 ! D62   D(31,23,24,25)         49.765                                          !
 ! D63   D(31,23,24,27)        -77.9598                                         !
 ! D64   D(31,23,24,32)        161.1948                                         !
 ! D65   D(23,24,25,26)         67.2035                                         !
 ! D66   D(23,24,25,42)       -105.174                                          !
 ! D67   D(27,24,25,26)       -168.8302                                         !
 ! D68   D(27,24,25,42)         18.7922                                         !
 ! D69   D(32,24,25,26)        -44.2997                                         !
 ! D70   D(32,24,25,42)        143.3228                                         !
 ! D71   D(23,24,27,28)        -61.21                                           !
 ! D72   D(23,24,27,33)         60.0567                                         !
 ! D73   D(23,24,27,34)        176.6373                                         !
 ! D74   D(25,24,27,28)       -179.9786                                         !
 ! D75   D(25,24,27,33)        -58.712                                          !
 ! D76   D(25,24,27,34)         57.8686                                         !
 ! D77   D(32,24,27,28)         57.4321                                         !
 ! D78   D(32,24,27,33)        178.6987                                         !
 ! D79   D(32,24,27,34)        -64.7206                                         !
 ! D80   D(24,25,42,43)        156.3128                                         !
 ! D81   D(24,25,42,50)          4.5883                                         !
 ! D82   D(26,25,42,43)        -15.9547                                         !
 ! D83   D(26,25,42,50)       -167.6792                                         !
 ! D84   D(24,27,28,29)        179.6045                                         !
 ! D85   D(24,27,28,30)        -56.3214                                         !
 ! D86   D(24,27,28,35)         62.2645                                         !
 ! D87   D(33,27,28,29)         57.1983                                         !
 ! D88   D(33,27,28,30)       -178.7276                                         !
 ! D89   D(33,27,28,35)        -60.1417                                         !
 ! D90   D(34,27,28,29)        -58.9417                                         !
 ! D91   D(34,27,28,30)         65.1323                                         !
 ! D92   D(34,27,28,35)       -176.2817                                         !
 ! D93   D(27,28,29,36)         64.3408                                         !
 ! D94   D(27,28,29,37)       -176.2418                                         !
 ! D95   D(27,28,29,38)        -56.0664                                         !
 ! D96   D(30,28,29,36)        -60.4695                                         !
 ! D97   D(30,28,29,37)         58.9479                                         !
 ! D98   D(30,28,29,38)        179.1234                                         !
 ! D99   D(35,28,29,36)       -179.0068                                         !
 ! D100  D(35,28,29,37)        -59.5894                                         !
 ! D101  D(35,28,29,38)         60.586                                          !
 ! D102  D(27,28,30,39)        -55.77                                           !
 ! D103  D(27,28,30,40)         65.706                                          !
 ! D104  D(27,28,30,41)       -174.7408                                         !
 ! D105  D(29,28,30,39)         67.4308                                         !
 ! D106  D(29,28,30,40)       -171.0932                                         !
 ! D107  D(29,28,30,41)        -51.54                                           !
 ! D108  D(35,28,30,39)       -173.8702                                         !
 ! D109  D(35,28,30,40)        -52.3942                                         !
 ! D110  D(35,28,30,41)         67.1591                                         !
 ! D111  D(25,42,43,44)        -57.9597                                         !
 ! D112  D(25,42,43,46)        176.2399                                         !
 ! D113  D(25,42,43,51)         57.4694                                         !
 ! D114  D(50,42,43,44)         93.7276                                         !
 ! D115  D(50,42,43,46)        -32.0728                                         !
 ! D116  D(50,42,43,51)       -150.8434                                         !
 ! D117  D(42,43,44,45)        -12.0943                                         !
 ! D118  D(42,43,44,56)        166.8614                                         !
 ! D119  D(46,43,44,45)        111.5105                                         !
 ! D120  D(46,43,44,56)        -69.5338                                         !
 ! D121  D(51,43,44,45)       -128.2971                                         !
 ! D122  D(51,43,44,56)         50.6586                                         !
 ! D123  D(42,43,46,47)       -153.7748                                         !
 ! D124  D(42,43,46,52)        -33.5291                                         !
 ! D125  D(42,43,46,53)         83.5798                                         !
 ! D126  D(44,43,46,47)         83.1951                                         !
 ! D127  D(44,43,46,52)       -156.5592                                         !
 ! D128  D(44,43,46,53)        -39.4503                                         !
 ! D129  D(51,43,46,47)        -35.6857                                         !
 ! D130  D(51,43,46,52)         84.5601                                         !
 ! D131  D(51,43,46,53)       -158.331                                          !
 ! D132  D(43,44,56,57)       -172.0859                                         !
 ! D133  D(43,44,56,69)          1.7402                                         !
 ! D134  D(45,44,56,57)          6.8146                                         !
 ! D135  D(45,44,56,69)       -179.3594                                         !
 ! D136  D(43,46,47,48)        166.2354                                         !
 ! D137  D(43,46,47,49)        -14.0514                                         !
 ! D138  D(52,46,47,48)         46.0818                                         !
 ! D139  D(52,46,47,49)       -134.205                                          !
 ! D140  D(53,46,47,48)        -69.8757                                         !
 ! D141  D(53,46,47,49)        109.8375                                         !
 ! D142  D(46,47,48,54)       -179.9893                                         !
 ! D143  D(46,47,48,55)         -4.1052                                         !
 ! D144  D(49,47,48,54)          0.2957                                         !
 ! D145  D(49,47,48,55)        176.1798                                         !
 ! D146  D(44,56,57,58)         85.6789                                         !
 ! D147  D(44,56,57,60)        -39.9463                                         !
 ! D148  D(44,56,57,70)       -160.7072                                         !
 ! D149  D(69,56,57,58)        -88.0575                                         !
 ! D150  D(69,56,57,60)        146.3174                                         !
 ! D151  D(69,56,57,70)         25.5565                                         !
 ! D152  D(56,57,58,59)        -95.5826                                         !
 ! D153  D(56,57,58,67)         74.8057                                         !
 ! D154  D(60,57,58,59)         30.7919                                         !
 ! D155  D(60,57,58,67)       -158.8198                                         !
 ! D156  D(70,57,58,59)        152.442                                          !
 ! D157  D(70,57,58,67)        -37.1697                                         !
 ! D158  D(56,57,60,61)       -154.5617                                         !
 ! D159  D(56,57,60,71)         81.506                                          !
 ! D160  D(56,57,60,72)        -33.8456                                         !
 ! D161  D(58,57,60,61)         84.1426                                         !
 ! D162  D(58,57,60,71)        -39.7896                                         !
 ! D163  D(58,57,60,72)       -155.1412                                         !
 ! D164  D(70,57,60,61)        -36.3006                                         !
 ! D165  D(70,57,60,71)       -160.2328                                         !
 ! D166  D(70,57,60,72)         84.4156                                         !
 ! D167  D(57,58,67,68)       -170.6142                                         !
 ! D168  D(59,58,67,68)          0.24                                           !
 ! D169  D(57,60,61,62)        -63.8238                                         !
 ! D170  D(57,60,61,73)         59.7677                                         !
 ! D171  D(57,60,61,74)        175.9274                                         !
 ! D172  D(71,60,61,62)         59.6894                                         !
 ! D173  D(71,60,61,73)       -176.7191                                         !
 ! D174  D(71,60,61,74)        -60.5594                                         !
 ! D175  D(72,60,61,62)        176.2688                                         !
 ! D176  D(72,60,61,73)        -60.1398                                         !
 ! D177  D(72,60,61,74)         56.02                                           !
 ! D178  D(60,61,62,63)         63.1359                                         !
 ! D179  D(60,61,62,75)       -173.8997                                         !
 ! D180  D(60,61,62,76)        -55.0358                                         !
 ! D181  D(73,61,62,63)        -61.5239                                         !
 ! D182  D(73,61,62,75)         61.4405                                         !
 ! D183  D(73,61,62,76)       -179.6956                                         !
 ! D184  D(74,61,62,63)       -176.5777                                         !
 ! D185  D(74,61,62,75)        -53.6133                                         !
 ! D186  D(74,61,62,76)         65.2506                                         !
 ! D187  D(61,62,63,64)         75.8282                                         !
 ! D188  D(61,62,63,77)       -150.973                                          !
 ! D189  D(75,62,63,64)        -46.3325                                         !
 ! D190  D(75,62,63,77)         86.8662                                         !
 ! D191  D(76,62,63,64)       -164.1474                                         !
 ! D192  D(76,62,63,77)        -30.9487                                         !
 ! D193  D(62,63,64,65)         -6.1135                                         !
 ! D194  D(62,63,64,66)        173.0861                                         !
 ! D195  D(77,63,64,65)       -140.0143                                         !
 ! D196  D(77,63,64,66)         39.1853                                         !
 ! D197  D(63,64,65,78)       -174.7018                                         !
 ! D198  D(66,64,65,78)          6.254                                          !
 ! D199  D(63,64,66,79)        173.2609                                         !
 ! D200  D(63,64,66,80)         43.2815                                         !
 ! D201  D(65,64,66,79)         -7.6237                                         !
 ! D202  D(65,64,66,80)       -137.6032                                         !
 --------------------------------------------------------------------------------
 Symmetry turned off by external request.
 Stoichiometry    C25H41N8O6(1+)
 Framework group  C1[X(C25H41N8O6)]
 Deg. of freedom   234
 Full point group                 C1      NOp   1
                          Input orientation:                          
 ---------------------------------------------------------------------
 Center     Atomic      Atomic             Coordinates (Angstroms)
 Number     Number       Type             X           Y           Z
 ---------------------------------------------------------------------
      1          7           0       -3.731967    9.834145   -7.065933
      2          6           0       -5.232264    9.647668   -7.095266
      3          6           0       -5.657339    9.788787   -8.569153
      4          8           0       -6.069851    8.824526   -9.187058
      5          6           0       -5.903965   10.606291   -6.102136
      6          6           0       -5.319938   10.516940   -4.704714
      7          6           0       -5.271300    9.292518   -4.021277
      8          6           0       -4.811163   11.660766   -4.077704
      9          6           0       -4.722410    9.215388   -2.740878
     10          6           0       -4.277037   11.588276   -2.789305
     11          6           0       -4.225617   10.364590   -2.120432
     12          1           0       -3.439800   10.831694   -7.191739
     13          1           0       -3.275660    9.343990   -7.848348
     14          1           0       -5.420982    8.608367   -6.824480
     15          1           0       -6.972619   10.358991   -6.099638
     16          1           0       -5.825334   11.637246   -6.466125
     17          1           0       -5.683048    8.395446   -4.479093
     18          1           0       -4.843903   12.616946   -4.594573
     19          1           0       -4.696698    8.261419   -2.222371
     20          1           0       -3.902782   12.487817   -2.309815
     21          1           0       -3.809373   10.307206   -1.119018
     22          1           0       -3.294785    9.532102   -6.185846
     23          7           0       -5.442719   11.028928   -9.121284
     24          6           0       -4.938405   11.110239  -10.505021
     25          6           0       -3.410656   11.164235  -10.294643
     26          8           0       -2.810414   10.186158   -9.844475
     27          6           0       -5.597087   12.237355  -11.299716
     28          6           0       -7.125880   12.088821  -11.451784
     29          6           0       -7.680275   13.274414  -12.253888
     30          6           0       -7.522890   10.751343  -12.094517
     31          1           0       -5.037126   11.736409   -8.515648
     32          1           0       -5.151087   10.146748  -10.968854
     33          1           0       -5.398244   13.205741  -10.813465
     34          1           0       -5.131086   12.275126  -12.294353
     35          1           0       -7.557985   12.122798  -10.442238
     36          1           0       -7.288108   13.271436  -13.278951
     37          1           0       -8.772313   13.224319  -12.317211
     38          1           0       -7.415357   14.234818  -11.794589
     39          1           0       -7.026361   10.618729  -13.064894
     40          1           0       -7.272709    9.896365  -11.457683
     41          1           0       -8.603362   10.721701  -12.270981
     42          7           0       -2.790697   12.364175  -10.470294
     43          6           0       -1.520661   12.593554   -9.806721
     44          6           0       -1.708330   12.413505   -8.265027
     45          8           0       -2.849281   12.341316   -7.767996
     46          6           0       -0.950185   13.966260  -10.210745
     47          6           0        0.578142   14.030962  -10.107465
     48          7           0        1.152729   15.091101  -10.715272
     49          8           0        1.240574   13.181504   -9.508750
     50          1           0       -3.373805   13.168423  -10.659155
     51          1           0       -0.827965   11.812274  -10.130659
     52          1           0       -1.238180   14.168019  -11.249754
     53          1           0       -1.381730   14.769411   -9.599110
     54          1           0        2.159723   15.180768  -10.676781
     55          1           0        0.631532   15.765164  -11.256679
     56          7           0       -0.562818   12.327324   -7.581033
     57          6           0       -0.389606   11.996266   -6.151556
     58          6           0       -0.354979   10.465260   -6.089131
     59          8           0       -1.302826    9.736913   -5.850607
     60          6           0       -1.433387   12.624175   -5.215626
     61          6           0       -0.947436   12.813084   -3.771353
     62          6           0       -0.620664   11.521044   -3.017024
     63          7           0        0.490856   10.783167   -3.632528
     64          6           0        1.803131   11.251348   -3.443756
     65          7           0        2.011823   12.364778   -2.846720
     66          7           0        2.738953   10.349748   -3.962596
     67          8           0        0.823183    9.976345   -6.536954
     68          1           0        0.722538    9.007648   -6.612527
     69          1           0        0.290434   12.417386   -8.143657
     70          1           0        0.606617   12.360176   -5.890608
     71          1           0       -2.343770   12.021230   -5.230967
     72          1           0       -1.698362   13.601979   -5.630121
     73          1           0       -0.068899   13.464251   -3.743154
     74          1           0       -1.739753   13.331176   -3.217024
     75          1           0       -0.391136   11.762639   -1.972085
     76          1           0       -1.487347   10.852699   -3.038708
     77          1           0        0.431502    9.781111   -3.483674
     78          1           0        3.000904   12.616909   -2.859416
     79          1           0        3.693361   10.688582   -3.948942
     80          1           0        2.485665    9.974026   -4.870815
 ---------------------------------------------------------------------
 Rotational constants (GHZ):           0.1127689           0.0701704           0.0491404
 Standard basis: 6-31G(d) (6D, 7F)
   667 basis functions,  1256 primitive gaussians,   667 cartesian basis functions
   147 alpha electrons      147 beta electrons
       nuclear repulsion energy      4947.6137388583 Hartrees.
 NAtoms=   80 NActive=   80 NUniq=   80 SFac= 1.00D+00 NAtFMM=   60 NAOKFM=T Big=T
 Integral buffers will be    131072 words long.
 Raffenetti 2 integral format.
 Two-electron integral symmetry is turned off.
 Nuclear repulsion after empirical dispersion term =     4947.4964064809 Hartrees.
 One-electron integrals computed using PRISM.
 NBasis=   667 RedAO= T EigKep=  4.67D-04  NBF=   667
 NBsUse=   667 1.00D-06 EigRej= -1.00D+00 NBFU=   667
 Initial guess from the checkpoint file:  "conf-34.chk"
 B after Tr=     0.000000    0.000000    0.000000
         Rot=    1.000000    0.000000    0.000000    0.000000 Ang=   0.00 deg.
 Requested convergence on RMS density matrix=1.00D-08 within 128 cycles.
 Requested convergence on MAX density matrix=1.00D-06.
 Requested convergence on             energy=1.00D-06.
 No special actions if energy rises.
 SCF Done:  E(RB3LYP) =  -1866.71590149     A.U. after    3 cycles
            NFock=  3  Conv=0.76D-09     -V/T= 2.0094

 **********************************************************************

            Population analysis using the SCF Density.

 **********************************************************************

 Alpha  occ. eigenvalues --  -19.31223 -19.25863 -19.24938 -19.23915 -19.23385
 Alpha  occ. eigenvalues --  -19.23337 -14.54728 -14.48080 -14.47893 -14.47503
 Alpha  occ. eigenvalues --  -14.47108 -14.43074 -14.42308 -14.36620 -10.44161
 Alpha  occ. eigenvalues --  -10.41708 -10.41645 -10.40523 -10.40374 -10.37147
 Alpha  occ. eigenvalues --  -10.35939 -10.35873 -10.34923 -10.33744 -10.32977
 Alpha  occ. eigenvalues --  -10.31829 -10.30380 -10.29241 -10.29084 -10.29008
 Alpha  occ. eigenvalues --  -10.28754 -10.28717 -10.28712 -10.28501 -10.28112
 Alpha  occ. eigenvalues --  -10.27237 -10.26333 -10.24814 -10.24347  -1.22227
 Alpha  occ. eigenvalues --   -1.16787  -1.15634  -1.15438  -1.14665  -1.13171
 Alpha  occ. eigenvalues --   -1.10160  -1.05401  -1.04724  -1.04615  -1.03749
 Alpha  occ. eigenvalues --   -1.02382  -0.96554  -0.95891  -0.92119  -0.91826
 Alpha  occ. eigenvalues --   -0.90858  -0.89724  -0.88804  -0.85277  -0.84361
 Alpha  occ. eigenvalues --   -0.83976  -0.83322  -0.79476  -0.77618  -0.77303
 Alpha  occ. eigenvalues --   -0.75790  -0.75099  -0.73230  -0.71495  -0.71081
 Alpha  occ. eigenvalues --   -0.70690  -0.69968  -0.69866  -0.68996  -0.68686
 Alpha  occ. eigenvalues --   -0.67744  -0.67069  -0.65985  -0.65401  -0.64706
 Alpha  occ. eigenvalues --   -0.64001  -0.63582  -0.62316  -0.61960  -0.61843
 Alpha  occ. eigenvalues --   -0.60985  -0.60718  -0.60299  -0.59657  -0.59275
 Alpha  occ. eigenvalues --   -0.58392  -0.57663  -0.57231  -0.56496  -0.55677
 Alpha  occ. eigenvalues --   -0.55604  -0.54843  -0.54431  -0.54358  -0.54183
 Alpha  occ. eigenvalues --   -0.53905  -0.53290  -0.53105  -0.52735  -0.52451
 Alpha  occ. eigenvalues --   -0.52255  -0.51905  -0.51666  -0.51359  -0.50691
 Alpha  occ. eigenvalues --   -0.50494  -0.50062  -0.49680  -0.49270  -0.48924
 Alpha  occ. eigenvalues --   -0.48678  -0.47630  -0.47214  -0.46949  -0.46437
 Alpha  occ. eigenvalues --   -0.46241  -0.45800  -0.45664  -0.44679  -0.44289
 Alpha  occ. eigenvalues --   -0.44180  -0.43818  -0.43656  -0.43095  -0.42059
 Alpha  occ. eigenvalues --   -0.41692  -0.40963  -0.40657  -0.40530  -0.39497
 Alpha  occ. eigenvalues --   -0.38815  -0.38624  -0.37906  -0.37430  -0.37145
 Alpha  occ. eigenvalues --   -0.36793  -0.35246  -0.34876  -0.34666  -0.34450
 Alpha  occ. eigenvalues --   -0.33144  -0.31221
 Alpha virt. eigenvalues --   -0.12987  -0.11743  -0.10588  -0.10144  -0.09597
 Alpha virt. eigenvalues --   -0.09401  -0.07934  -0.04611  -0.03883  -0.03119
 Alpha virt. eigenvalues --   -0.02889  -0.02808  -0.01594  -0.00851  -0.00138
 Alpha virt. eigenvalues --    0.00154   0.00403   0.00937   0.01339   0.01682
 Alpha virt. eigenvalues --    0.02066   0.02802   0.03096   0.03447   0.03945
 Alpha virt. eigenvalues --    0.04159   0.04190   0.04571   0.04902   0.05643
 Alpha virt. eigenvalues --    0.05768   0.05935   0.06007   0.06758   0.06996
 Alpha virt. eigenvalues --    0.07193   0.07687   0.08131   0.08380   0.08548
 Alpha virt. eigenvalues --    0.08876   0.08926   0.09222   0.09427   0.09705
 Alpha virt. eigenvalues --    0.10340   0.10815   0.10826   0.11169   0.11514
 Alpha virt. eigenvalues --    0.11808   0.12214   0.12364   0.12805   0.12917
 Alpha virt. eigenvalues --    0.13227   0.13787   0.13922   0.14487   0.14554
 Alpha virt. eigenvalues --    0.14983   0.15941   0.16141   0.16559   0.16781
 Alpha virt. eigenvalues --    0.17395   0.17728   0.18376   0.19670   0.20700
 Alpha virt. eigenvalues --    0.21054   0.21248   0.22079   0.22505   0.22754
 Alpha virt. eigenvalues --    0.23277   0.24221   0.24291   0.25564   0.25734
 Alpha virt. eigenvalues --    0.26606   0.27274   0.29223   0.29989   0.30713
 Alpha virt. eigenvalues --    0.30977   0.35563   0.36026   0.37588   0.38666
 Alpha virt. eigenvalues --    0.39499   0.39768   0.40184   0.41383   0.41900
 Alpha virt. eigenvalues --    0.42153   0.42646   0.43112   0.43235   0.43885
 Alpha virt. eigenvalues --    0.44200   0.44339   0.45071   0.45399   0.45695
 Alpha virt. eigenvalues --    0.46137   0.46495   0.47235   0.47319   0.47590
 Alpha virt. eigenvalues --    0.48361   0.48796   0.49127   0.49363   0.49966
 Alpha virt. eigenvalues --    0.50250   0.50770   0.51109   0.51653   0.51829
 Alpha virt. eigenvalues --    0.52125   0.52321   0.52473   0.53026   0.53091
 Alpha virt. eigenvalues --    0.53577   0.54117   0.54156   0.54848   0.55308
 Alpha virt. eigenvalues --    0.55371   0.56105   0.56929   0.57446   0.57572
 Alpha virt. eigenvalues --    0.57672   0.58173   0.59031   0.59555   0.59873
 Alpha virt. eigenvalues --    0.60146   0.60908   0.61359   0.62121   0.62632
 Alpha virt. eigenvalues --    0.62854   0.63801   0.64180   0.64291   0.65105
 Alpha virt. eigenvalues --    0.65214   0.66090   0.66314   0.67136   0.67808
 Alpha virt. eigenvalues --    0.68126   0.68444   0.69100   0.69627   0.70169
 Alpha virt. eigenvalues --    0.70793   0.70858   0.71460   0.71582   0.71971
 Alpha virt. eigenvalues --    0.72434   0.73373   0.73625   0.74084   0.74430
 Alpha virt. eigenvalues --    0.74588   0.74869   0.74921   0.75294   0.76042
 Alpha virt. eigenvalues --    0.76399   0.76469   0.77043   0.77437   0.77515
 Alpha virt. eigenvalues --    0.78031   0.78271   0.78371   0.78708   0.79478
 Alpha virt. eigenvalues --    0.79803   0.80090   0.80956   0.81281   0.81613
 Alpha virt. eigenvalues --    0.81804   0.82092   0.82185   0.82656   0.82826
 Alpha virt. eigenvalues --    0.83013   0.83814   0.84056   0.84839   0.84954
 Alpha virt. eigenvalues --    0.85110   0.85810   0.86149   0.86357   0.86785
 Alpha virt. eigenvalues --    0.87023   0.87334   0.87701   0.87815   0.88205
 Alpha virt. eigenvalues --    0.88715   0.89083   0.89858   0.90201   0.90892
 Alpha virt. eigenvalues --    0.90970   0.91498   0.92139   0.92943   0.93808
 Alpha virt. eigenvalues --    0.94148   0.95060   0.95513   0.96786   0.97007
 Alpha virt. eigenvalues --    0.98340   0.99204   0.99854   1.00482   1.00890
 Alpha virt. eigenvalues --    1.02155   1.02463   1.03118   1.04047   1.04757
 Alpha virt. eigenvalues --    1.05018   1.05924   1.06817   1.07285   1.08135
 Alpha virt. eigenvalues --    1.08698   1.09886   1.12076   1.12411   1.12940
 Alpha virt. eigenvalues --    1.13569   1.14659   1.15433   1.15866   1.16997
 Alpha virt. eigenvalues --    1.17119   1.17834   1.18341   1.18775   1.20237
 Alpha virt. eigenvalues --    1.21611   1.22375   1.22501   1.23052   1.24129
 Alpha virt. eigenvalues --    1.26017   1.26782   1.27294   1.27679   1.28283
 Alpha virt. eigenvalues --    1.29246   1.30289   1.30401   1.31856   1.32268
 Alpha virt. eigenvalues --    1.33017   1.33326   1.34003   1.34592   1.35053
 Alpha virt. eigenvalues --    1.35349   1.36208   1.37554   1.38194   1.38500
 Alpha virt. eigenvalues --    1.39309   1.39476   1.39606   1.39673   1.41524
 Alpha virt. eigenvalues --    1.42350   1.43682   1.45410   1.46336   1.46787
 Alpha virt. eigenvalues --    1.48122   1.49133   1.49987   1.50253   1.50905
 Alpha virt. eigenvalues --    1.52131   1.52499   1.53132   1.55041   1.55619
 Alpha virt. eigenvalues --    1.56721   1.57429   1.58618   1.59236   1.60098
 Alpha virt. eigenvalues --    1.61338   1.62045   1.63175   1.63787   1.64443
 Alpha virt. eigenvalues --    1.65041   1.65604   1.66410   1.67014   1.67404
 Alpha virt. eigenvalues --    1.67767   1.68752   1.69422   1.69717   1.70047
 Alpha virt. eigenvalues --    1.70464   1.71029   1.71380   1.72266   1.72475
 Alpha virt. eigenvalues --    1.72879   1.73640   1.74128   1.74718   1.75540
 Alpha virt. eigenvalues --    1.76538   1.76977   1.77309   1.78274   1.78797
 Alpha virt. eigenvalues --    1.79032   1.79590   1.80384   1.80547   1.81499
 Alpha virt. eigenvalues --    1.81985   1.82194   1.82610   1.82917   1.83536
 Alpha virt. eigenvalues --    1.85044   1.85606   1.86013   1.87254   1.87423
 Alpha virt. eigenvalues --    1.87890   1.88437   1.88977   1.89571   1.90085
 Alpha virt. eigenvalues --    1.90752   1.90960   1.91868   1.92141   1.93428
 Alpha virt. eigenvalues --    1.93561   1.93781   1.94049   1.94646   1.95498
 Alpha virt. eigenvalues --    1.96152   1.96477   1.97013   1.98185   1.98827
 Alpha virt. eigenvalues --    1.99271   1.99993   2.00240   2.00795   2.02127
 Alpha virt. eigenvalues --    2.03245   2.04070   2.04314   2.04646   2.05053
 Alpha virt. eigenvalues --    2.05840   2.06358   2.08267   2.09624   2.10653
 Alpha virt. eigenvalues --    2.11565   2.11834   2.12955   2.14217   2.14594
 Alpha virt. eigenvalues --    2.15328   2.16065   2.16483   2.17072   2.18868
 Alpha virt. eigenvalues --    2.18923   2.19543   2.20315   2.20672   2.21552
 Alpha virt. eigenvalues --    2.22903   2.23326   2.25280   2.25506   2.26328
 Alpha virt. eigenvalues --    2.26966   2.28291   2.29120   2.29497   2.30663
 Alpha virt. eigenvalues --    2.31316   2.32179   2.32703   2.33459   2.33556
 Alpha virt. eigenvalues --    2.33994   2.35218   2.36445   2.37425   2.37729
 Alpha virt. eigenvalues --    2.38545   2.38818   2.39364   2.40528   2.42272
 Alpha virt. eigenvalues --    2.42518   2.43339   2.43909   2.46154   2.46934
 Alpha virt. eigenvalues --    2.47713   2.48860   2.48979   2.50112   2.50795
 Alpha virt. eigenvalues --    2.51330   2.52110   2.52732   2.53517   2.54289
 Alpha virt. eigenvalues --    2.55090   2.55520   2.56297   2.58042   2.59404
 Alpha virt. eigenvalues --    2.60353   2.61146   2.62812   2.63047   2.63567
 Alpha virt. eigenvalues --    2.64353   2.64649   2.65508   2.66020   2.66359
 Alpha virt. eigenvalues --    2.66765   2.67357   2.69244   2.71202   2.72195
 Alpha virt. eigenvalues --    2.74064   2.76669   2.78239   2.80565   2.82722
 Alpha virt. eigenvalues --    2.86568   2.87214   2.89841   2.91238   2.92237
 Alpha virt. eigenvalues --    2.92879   2.93343   2.93868   2.95808   2.96647
 Alpha virt. eigenvalues --    2.97179   2.98633   3.00608   3.05432   3.08921
 Alpha virt. eigenvalues --    3.30957   3.69989   3.76039   3.79932   3.84260
 Alpha virt. eigenvalues --    3.87308   3.89326   3.94353   3.95465   3.95758
 Alpha virt. eigenvalues --    4.00927   4.01770   4.03424   4.05534   4.06550
 Alpha virt. eigenvalues --    4.07321   4.08566   4.11203   4.14188   4.17667
 Alpha virt. eigenvalues --    4.19418   4.20641   4.22024   4.22734   4.25075
 Alpha virt. eigenvalues --    4.27917   4.31456   4.32182   4.33911   4.35783
 Alpha virt. eigenvalues --    4.41183   4.44374   4.46890   4.48683   4.52203
 Alpha virt. eigenvalues --    4.53926   4.58155   4.61408   4.61857   4.65501
          Condensed to atoms (all electrons):
 Mulliken charges:
               1
     1  N   -0.804484
     2  C   -0.109320
     3  C    0.605867
     4  O   -0.464022
     5  C   -0.370733
     6  C    0.138446
     7  C   -0.196233
     8  C   -0.189351
     9  C   -0.125138
    10  C   -0.126164
    11  C   -0.130088
    12  H    0.449401
    13  H    0.423954
    14  H    0.216029
    15  H    0.209462
    16  H    0.167157
    17  H    0.145608
    18  H    0.144708
    19  H    0.159420
    20  H    0.157876
    21  H    0.159680
    22  H    0.430006
    23  N   -0.591028
    24  C   -0.080220
    25  C    0.613150
    26  O   -0.552101
    27  C   -0.289657
    28  C   -0.068416
    29  C   -0.447132
    30  C   -0.472397
    31  H    0.341844
    32  H    0.224751
    33  H    0.120516
    34  H    0.156895
    35  H    0.140508
    36  H    0.148532
    37  H    0.162488
    38  H    0.138489
    39  H    0.144322
    40  H    0.173993
    41  H    0.160998
    42  N   -0.605617
    43  C   -0.031826
    44  C    0.621111
    45  O   -0.593937
    46  C   -0.422299
    47  C    0.637338
    48  N   -0.736897
    49  O   -0.522034
    50  H    0.347083
    51  H    0.221853
    52  H    0.194096
    53  H    0.201035
    54  H    0.370557
    55  H    0.359517
    56  N   -0.626269
    57  C   -0.020296
    58  C    0.662335
    59  O   -0.528261
    60  C   -0.277228
    61  C   -0.280963
    62  C   -0.125576
    63  N   -0.636212
    64  C    0.576324
    65  N   -0.628635
    66  N   -0.762558
    67  O   -0.571535
    68  H    0.422549
    69  H    0.405826
    70  H    0.197077
    71  H    0.150894
    72  H    0.153184
    73  H    0.189257
    74  H    0.141366
    75  H    0.174081
    76  H    0.147318
    77  H    0.334059
    78  H    0.281125
    79  H    0.330128
    80  H    0.334413
 Sum of Mulliken charges =   1.00000
 Mulliken charges with hydrogens summed into heavy atoms:
               1
     1  N    0.498877
     2  C    0.106709
     3  C    0.605867
     4  O   -0.464022
     5  C    0.005887
     6  C    0.138446
     7  C   -0.050625
     8  C   -0.044643
     9  C    0.034281
    10  C    0.031713
    11  C    0.029593
    23  N   -0.249185
    24  C    0.144532
    25  C    0.613150
    26  O   -0.552101
    27  C   -0.012246
    28  C    0.072091
    29  C    0.002377
    30  C    0.006916
    42  N   -0.258534
    43  C    0.190027
    44  C    0.621111
    45  O   -0.593937
    46  C   -0.027167
    47  C    0.637338
    48  N   -0.006823
    49  O   -0.522034
    56  N   -0.220442
    57  C    0.176781
    58  C    0.662335
    59  O   -0.528261
    60  C    0.026850
    61  C    0.049659
    62  C    0.195823
    63  N   -0.302153
    64  C    0.576324
    65  N   -0.347509
    66  N   -0.098016
    67  O   -0.148987
 Electronic spatial extent (au):  <R**2>=         221973.8982
 Charge=              1.0000 electrons
 Dipole moment (field-independent basis, Debye):
    X=             -9.5129    Y=             58.9535    Z=            -37.8812  Tot=             70.7177
 Quadrupole moment (field-independent basis, Debye-Ang):
   XX=           -160.4012   YY=            528.1166   ZZ=            115.2781
   XY=           -111.1982   XZ=             68.2534   YZ=           -507.7395
 Traceless Quadrupole moment (field-independent basis, Debye-Ang):
   XX=           -321.3990   YY=            367.1188   ZZ=            -45.7197
   XY=           -111.1982   XZ=             68.2534   YZ=           -507.7395
 Octapole moment (field-independent basis, Debye-Ang**2):
  XXX=           1641.9152  YYY=           2242.7232  ZZZ=           1520.1836  XYY=           -669.1429
  XXY=          -1796.8549  XXZ=           1154.0996  XZZ=             -1.4499  YZZ=           2268.6864
  YYZ=          -5335.5886  XYZ=            864.4002
 Hexadecapole moment (field-independent basis, Debye-Ang**3):
 XXXX=         -20342.3999 YYYY=         -44052.1414 ZZZZ=         -48564.4974 XXXY=          17689.7135
 XXXZ=         -13507.2714 YYYX=           5602.0422 YYYZ=         -40459.3906 ZZZX=          -9240.4113
 ZZZY=           7396.1608 XXYY=         -24310.3550 XXZZ=         -13495.7143 YYZZ=          25362.8501
 XXYZ=          12831.2192 YYXZ=           5255.0704 ZZXY=          -1389.4446
 N-N= 4.947496406481D+03 E-N=-1.421219930500D+04  KE= 1.849299220505D+03
 Unable to Open any file for archive entry.
 1\1\GINC-LAC-312\SP\RB3LYP\6-31G(d)\C25H41N8O6(1+)\KENGMITH\11-Jun-202
 2\0\\# B3LYP/6-31G* empiricaldispersion=gd3 guess=read geom=check nosy
 mm integral(ultrafinegrid)\\Candidate Structure: Conf:34 Charge calc i
 n gas phase\\1,1\N,0,-3.7319670767,9.8341450352,-7.0659325221\C,0,-5.2
 322640312,9.6476681585,-7.0952660834\C,0,-5.6573388439,9.7887871123,-8
 .5691532052\O,0,-6.0698506656,8.8245263377,-9.1870582822\C,0,-5.903964
 6874,10.6062909392,-6.1021356666\C,0,-5.3199377096,10.5169399629,-4.70
 47143734\C,0,-5.2713001421,9.2925177345,-4.0212766613\C,0,-4.811162762
 2,11.6607659273,-4.0777041017\C,0,-4.7224097553,9.2153882345,-2.740878
 174\C,0,-4.2770368808,11.5882758158,-2.789305332\C,0,-4.2256172431,10.
 3645903963,-2.120431736\H,0,-3.4397995498,10.8316940124,-7.1917387855\
 H,0,-3.2756597882,9.3439900379,-7.8483484741\H,0,-5.4209820512,8.60836
 74052,-6.8244796986\H,0,-6.9726187286,10.3589910169,-6.0996375443\H,0,
 -5.8253342409,11.6372457062,-6.4661254728\H,0,-5.6830476583,8.39544589
 84,-4.4790930614\H,0,-4.8439027338,12.6169459137,-4.5945730561\H,0,-4.
 6966980687,8.2614188387,-2.2223708903\H,0,-3.9027818994,12.4878170472,
 -2.3098154373\H,0,-3.8093727543,10.3072058031,-1.1190176036\H,0,-3.294
 7850532,9.5321019353,-6.1858463342\N,0,-5.4427188183,11.028927616,-9.1
 2128449\C,0,-4.9384054524,11.1102385172,-10.5050212861\C,0,-3.41065621
 59,11.1642346218,-10.2946432871\O,0,-2.8104140882,10.1861575405,-9.844
 4746897\C,0,-5.597086845,12.2373548039,-11.2997163199\C,0,-7.125880272
 2,12.0888205281,-11.4517844816\C,0,-7.6802752336,13.2744143067,-12.253
 8881135\C,0,-7.522889764,10.7513432846,-12.0945171607\H,0,-5.037125889
 5,11.7364087511,-8.5156484485\H,0,-5.1510866035,10.1467480999,-10.9688
 537185\H,0,-5.398244218,13.2057406076,-10.8134653649\H,0,-5.1310864634
 ,12.2751264798,-12.2943526742\H,0,-7.5579847652,12.122798291,-10.44223
 82377\H,0,-7.2881081655,13.2714364505,-13.2789508439\H,0,-8.7723130791
 ,13.2243193963,-12.3172105423\H,0,-7.4153572426,14.2348182614,-11.7945
 892612\H,0,-7.0263606459,10.6187287859,-13.0648935618\H,0,-7.272708834
 ,9.8963651401,-11.4576828373\H,0,-8.6033615178,10.7217011692,-12.27098
 0534\N,0,-2.7906966291,12.3641750754,-10.4702939003\C,0,-1.5206611573,
 12.5935544785,-9.8067208738\C,0,-1.7083298869,12.4135050007,-8.2650274
 842\O,0,-2.8492811381,12.3413155605,-7.7679963453\C,0,-0.9501846046,13
 .9662602652,-10.2107450032\C,0,0.5781424465,14.0309618426,-10.10746459
 3\N,0,1.1527287807,15.0911007783,-10.7152719806\O,0,1.2405744429,13.18
 15039873,-9.508750446\H,0,-3.3738049523,13.1684227173,-10.6591546452\H
 ,0,-0.8279653902,11.8122737186,-10.1306586553\H,0,-1.2381802438,14.168
 0193715,-11.2497537976\H,0,-1.3817297217,14.7694111319,-9.5991104529\H
 ,0,2.1597230989,15.1807679762,-10.6767812478\H,0,0.6315317553,15.76516
 44174,-11.2566791016\N,0,-0.5628177559,12.3273239133,-7.581032992\C,0,
 -0.389606466,11.9962663347,-6.1515559\C,0,-0.354979042,10.4652598642,-
 6.0891309976\O,0,-1.3028257269,9.7369133496,-5.8506066799\C,0,-1.43338
 70914,12.6241754062,-5.2156261066\C,0,-0.9474357906,12.8130842141,-3.7
 713531612\C,0,-0.6206643178,11.5210435571,-3.0170239444\N,0,0.49085628
 44,10.7831670452,-3.6325275626\C,0,1.8031314661,11.2513483677,-3.44375
 59976\N,0,2.011822539,12.3647784121,-2.8467200575\N,0,2.7389526453,10.
 3497483372,-3.9625959086\O,0,0.8231830253,9.9763454229,-6.5369537949\H
 ,0,0.7225381538,9.0076480984,-6.6125268142\H,0,0.2904337109,12.4173858
 554,-8.1436568818\H,0,0.6066169172,12.3601760213,-5.8906082773\H,0,-2.
 3437704605,12.0212304815,-5.2309672513\H,0,-1.6983624828,13.6019790728
 ,-5.6301212292\H,0,-0.0688989636,13.4642514695,-3.7431541309\H,0,-1.73
 97525889,13.331175513,-3.2170239946\H,0,-0.3911356477,11.762639198,-1.
 9720846228\H,0,-1.4873467212,10.8526994481,-3.0387076192\H,0,0.4315023
 243,9.7811114932,-3.4836739757\H,0,3.0009043523,12.6169085579,-2.85941
 60151\H,0,3.6933605968,10.6885820736,-3.9489424708\H,0,2.4856647878,9.
 9740264713,-4.8708153885\\Version=ES64L-G16RevC.01\HF=-1866.7159015\RM
 SD=7.625e-10\Dipole=1.2569209,1.5714201,-1.1995438\Quadrupole=-238.952
 2876,272.9437935,-33.991506,-82.6731506,50.7447089,-377.4919079\PG=C01
  [X(C25H41N8O6)]\\@
 The archive entry for this job was punched.


 HOW IS IT THAT THE SKY FEEDS THE STARS?

                           -- LUCRETIUS
 Job cpu time:       0 days  0 hours  5 minutes 17.6 seconds.
 Elapsed time:       0 days  0 hours  1 minutes 20.3 seconds.
 File lengths (MBytes):  RWF=    344 Int=      0 D2E=      0 Chk=     48 Scr=     16
 Normal termination of Gaussian 16 at Sat Jun 11 21:07:45 2022.
