 Entering Gaussian System, Link 0=/opt/software/Gaussian/g16-AVX2-C.01/g16/g16
 Input=charge-conf-879.com
 Output=charge-conf-879.log
 Initial command:
 /opt/software/Gaussian/g16-AVX2-C.01/g16/l1.exe "/mnt/gs18/scratch/users/kengmith/Gau-50159.inp" -scrdir="/mnt/gs18/scratch/users/kengmith/"
 Entering Link 1 = /opt/software/Gaussian/g16-AVX2-C.01/g16/l1.exe PID=     50215.
  
 Copyright (c) 1988-2019, Gaussian, Inc.  All Rights Reserved.
  
 This is part of the Gaussian(R) 16 program.  It is based on
 the Gaussian(R) 09 system (copyright 2009, Gaussian, Inc.),
 the Gaussian(R) 03 system (copyright 2003, Gaussian, Inc.),
 the Gaussian(R) 98 system (copyright 1998, Gaussian, Inc.),
 the Gaussian(R) 94 system (copyright 1995, Gaussian, Inc.),
 the Gaussian 92(TM) system (copyright 1992, Gaussian, Inc.),
 the Gaussian 90(TM) system (copyright 1990, Gaussian, Inc.),
 the Gaussian 88(TM) system (copyright 1988, Gaussian, Inc.),
 the Gaussian 86(TM) system (copyright 1986, Carnegie Mellon
 University), and the Gaussian 82(TM) system (copyright 1983,
 Carnegie Mellon University). Gaussian is a federally registered
 trademark of Gaussian, Inc.
  
 This software contains proprietary and confidential information,
 including trade secrets, belonging to Gaussian, Inc.
  
 This software is provided under written license and may be
 used, copied, transmitted, or stored only in accord with that
 written license.
  
 The following legend is applicable only to US Government
 contracts under FAR:
  
                    RESTRICTED RIGHTS LEGEND
  
 Use, reproduction and disclosure by the US Government is
 subject to restrictions as set forth in subparagraphs (a)
 and (c) of the Commercial Computer Software - Restricted
 Rights clause in FAR 52.227-19.
  
 Gaussian, Inc.
 340 Quinnipiac St., Bldg. 40, Wallingford CT 06492
  
  
 ---------------------------------------------------------------
 Warning -- This program may not be used in any manner that
 competes with the business of Gaussian, Inc. or will provide
 assistance to any competitor of Gaussian, Inc.  The licensee
 of this program is prohibited from giving any competitor of
 Gaussian, Inc. access to this program.  By using this program,
 the user acknowledges that Gaussian, Inc. is engaged in the
 business of creating and licensing software in the field of
 computational chemistry and represents and warrants to the
 licensee that it is not a competitor of Gaussian, Inc. and that
 it will not use this program in any manner prohibited above.
 ---------------------------------------------------------------
  

 Cite this work as:
 Gaussian 16, Revision C.01,
 M. J. Frisch, G. W. Trucks, H. B. Schlegel, G. E. Scuseria, 
 M. A. Robb, J. R. Cheeseman, G. Scalmani, V. Barone, 
 G. A. Petersson, H. Nakatsuji, X. Li, M. Caricato, A. V. Marenich, 
 J. Bloino, B. G. Janesko, R. Gomperts, B. Mennucci, H. P. Hratchian, 
 J. V. Ortiz, A. F. Izmaylov, J. L. Sonnenberg, D. Williams-Young, 
 F. Ding, F. Lipparini, F. Egidi, J. Goings, B. Peng, A. Petrone, 
 T. Henderson, D. Ranasinghe, V. G. Zakrzewski, J. Gao, N. Rega, 
 G. Zheng, W. Liang, M. Hada, M. Ehara, K. Toyota, R. Fukuda, 
 J. Hasegawa, M. Ishida, T. Nakajima, Y. Honda, O. Kitao, H. Nakai, 
 T. Vreven, K. Throssell, J. A. Montgomery, Jr., J. E. Peralta, 
 F. Ogliaro, M. J. Bearpark, J. J. Heyd, E. N. Brothers, K. N. Kudin, 
 V. N. Staroverov, T. A. Keith, R. Kobayashi, J. Normand, 
 K. Raghavachari, A. P. Rendell, J. C. Burant, S. S. Iyengar, 
 J. Tomasi, M. Cossi, J. M. Millam, M. Klene, C. Adamo, R. Cammi, 
 J. W. Ochterski, R. L. Martin, K. Morokuma, O. Farkas, 
 J. B. Foresman, and D. J. Fox, Gaussian, Inc., Wallingford CT, 2019.
 
 ******************************************
 Gaussian 16:  ES64L-G16RevC.01  3-Jul-2019
                11-Jun-2022 
 ******************************************
 %mem=8gb
 %nproc=4
 Will use up to    4 processors via shared memory.
 %chk=conf-879.chk
 ----------------------------------------------------------------------
 # B3LYP/6-31G* empiricaldispersion=gd3 guess=read geom=check nosymm in
 tegral(ultrafinegrid)
 ----------------------------------------------------------------------
 1/29=2,38=1,172=1/1;
 2/12=2,15=1,40=1/2;
 3/5=1,6=6,7=1,11=2,14=-4,25=1,30=1,74=-5,75=-5,116=-2,124=31/1,2,3;
 4/5=1/1;
 5/5=2,38=6/2;
 6/7=2,8=2,9=2,10=2,28=1/1;
 99/5=1,9=1/99;
 ------------------------------------------------------
 Candidate Structure: Conf:879 Charge calc in gas phase
 ------------------------------------------------------
 Structure from the checkpoint file:  "conf-879.chk"
 Charge =  1 Multiplicity = 1
 Redundant internal coordinates found in file.  (old form).
 N,0,-1.5430618348,12.9769276916,-6.3262666618
 C,0,-2.8258378991,13.6619980475,-5.9622560807
 C,0,-3.510623129,12.6604703283,-5.002681349
 O,0,-2.8018852525,11.9704780871,-4.2736899761
 C,0,-3.6045522153,14.0478857815,-7.2296069792
 C,0,-2.7743663852,14.8669337296,-8.1952261284
 C,0,-2.3581178332,16.1606413686,-7.8549195104
 C,0,-2.3832343778,14.3273361968,-9.4269401513
 C,0,-1.5612813549,16.9004341588,-8.7294234609
 C,0,-1.5927978679,15.0697586651,-10.3053682454
 C,0,-1.1749984927,16.3539783162,-9.9551613035
 H,0,-1.1225387785,12.5944204055,-5.469715711
 H,0,-0.841084198,13.5628819072,-6.8408322245
 H,0,-2.5546982616,14.5591112907,-5.3960970021
 H,0,-4.485516915,14.6233166629,-6.9169567395
 H,0,-3.9579232706,13.1345452529,-7.7199204057
 H,0,-2.6697180082,16.5995140153,-6.9087834466
 H,0,-2.7086141702,13.3257269004,-9.701277598
 H,0,-1.2511637961,17.9054897458,-8.4577877402
 H,0,-1.2854101543,14.6429992292,-11.2542250596
 H,0,-0.5497850048,16.9231970332,-10.6358820369
 H,0,-1.752296286,12.1354389405,-6.9077804149
 N,0,-4.8540225454,12.5278523,-5.0690328664
 C,0,-5.5352866626,11.4253532243,-4.3736964622
 C,0,-4.9324813777,10.0650802813,-4.7805202957
 O,0,-4.9014354684,9.1232374638,-4.0028366035
 C,0,-7.0450065611,11.5042195053,-4.6605312388
 C,0,-7.89656072,10.3834535496,-4.0317041651
 C,0,-7.7190613199,10.3021946073,-2.5088322454
 C,0,-9.3695179658,10.5957977534,-4.4095401933
 H,0,-5.3977638589,13.1168490128,-5.6844566834
 H,0,-5.3400399124,11.5119777461,-3.3028727295
 H,0,-7.4060609632,12.4753908489,-4.2925387638
 H,0,-7.1933156758,11.4971133616,-5.7507760298
 H,0,-7.5663084026,9.4275395244,-4.4599840961
 H,0,-6.7059346538,9.9890904708,-2.2406959469
 H,0,-7.9287273537,11.2708090321,-2.0359442647
 H,0,-8.4137132731,9.570131581,-2.0831729293
 H,0,-9.7526815025,11.5314470744,-3.9827100115
 H,0,-9.5081014886,10.6404776748,-5.4967047537
 H,0,-9.9892880147,9.7787903312,-4.0253970834
 N,0,-4.4728187915,9.9749944845,-6.0675648573
 C,0,-3.4827785933,8.969273328,-6.3960371659
 C,0,-2.4611382362,9.6232316114,-7.3581484904
 O,0,-2.5887688956,10.8240996336,-7.6916751477
 C,0,-4.1520480717,7.6677451202,-6.9150434765
 C,0,-3.3375249996,6.4137833659,-6.6117844868
 N,0,-4.039679693,5.3162854743,-6.2652183472
 O,0,-2.1033395671,6.3917539447,-6.6984364069
 H,0,-4.3884378799,10.8233393959,-6.6124813648
 H,0,-2.9397330655,8.7179095024,-5.4754395208
 H,0,-5.1322747597,7.6091568175,-6.4358149716
 H,0,-4.3202439831,7.7189865396,-7.9980435597
 H,0,-3.530437128,4.4702287256,-6.0438359215
 H,0,-5.0316944646,5.3400187777,-6.0816497272
 N,0,-1.4718629018,8.823272375,-7.7574244356
 C,0,-0.328126819,9.2113584351,-8.5770375679
 C,0,0.6298939968,10.0920262786,-7.7630969405
 O,0,0.3207154583,10.8683597767,-6.8761739571
 C,0,-0.766053499,9.778809017,-9.9622173241
 C,0,0.3513212943,10.3896328932,-10.8401314665
 C,0,0.3900145674,11.9252578321,-10.8002022233
 N,0,0.4201755462,12.4088924752,-9.4244004911
 C,0,1.0273914384,13.5991687305,-9.0756448778
 N,0,1.6262981972,14.3358570393,-9.9272517046
 N,0,0.880374213,13.833104266,-7.6626824933
 O,0,1.8965913418,9.8622901042,-8.1321659562
 H,0,2.4801759463,10.4555289897,-7.622462404
 H,0,-1.5029933113,7.8566464579,-7.3884385559
 H,0,0.2283540009,8.2900193936,-8.769585372
 H,0,-1.5667027545,10.5055110404,-9.802007713
 H,0,-1.2282158023,8.9293809058,-10.4753228033
 H,0,1.3279818813,9.9913359797,-10.5477857564
 H,0,0.1896092251,10.0888252842,-11.8809536578
 H,0,1.2788234337,12.3078111068,-11.3046237118
 H,0,-0.4814965456,12.336320439,-11.3323002835
 H,0,-0.4231146841,12.2191554138,-8.8990828642
 H,0,2.1235829769,15.1095597726,-9.4865303195
 H,0,1.351452823,14.6886231247,-7.3809094112
 H,0,1.252932322,13.0430630399,-7.133676567
 Recover connectivity data from disk.
                           ----------------------------
                           !    Current Parameters    !
                           ! (Angstroms and Degrees)  !
 --------------------------                            --------------------------
 ! Name  Definition              Value                                          !
 --------------------------------------------------------------------------------
 ! R1    R(1,2)                  1.4991                                         !
 ! R2    R(1,12)                 1.028                                          !
 ! R3    R(1,13)                 1.0492                                         !
 ! R4    R(1,22)                 1.0441                                         !
 ! R5    R(2,3)                  1.5469                                         !
 ! R6    R(2,5)                  1.5367                                         !
 ! R7    R(2,14)                 1.0949                                         !
 ! R8    R(3,4)                  1.2288                                         !
 ! R9    R(3,23)                 1.3516                                         !
 ! R10   R(5,6)                  1.5141                                         !
 ! R11   R(5,15)                 1.0977                                         !
 ! R12   R(5,16)                 1.0952                                         !
 ! R13   R(6,7)                  1.401                                          !
 ! R14   R(6,8)                  1.4005                                         !
 ! R15   R(7,9)                  1.3953                                         !
 ! R16   R(7,17)                 1.0885                                         !
 ! R17   R(8,10)                 1.3956                                         !
 ! R18   R(8,18)                 1.0883                                         !
 ! R19   R(9,11)                 1.3965                                         !
 ! R20   R(9,19)                 1.0863                                         !
 ! R21   R(10,11)                1.3951                                         !
 ! R22   R(10,20)                1.0849                                         !
 ! R23   R(11,21)                1.0855                                         !
 ! R24   R(23,24)                1.4708                                         !
 ! R25   R(23,31)                1.0106                                         !
 ! R26   R(24,25)                1.5425                                         !
 ! R27   R(24,27)                1.5387                                         !
 ! R28   R(24,32)                1.0919                                         !
 ! R29   R(25,26)                1.2218                                         !
 ! R30   R(25,42)                1.3696                                         !
 ! R31   R(27,28)                1.5416                                         !
 ! R32   R(27,33)                1.0995                                         !
 ! R33   R(27,34)                1.1003                                         !
 ! R34   R(28,29)                1.5353                                         !
 ! R35   R(28,30)                1.5354                                         !
 ! R36   R(28,35)                1.0983                                         !
 ! R37   R(29,36)                1.0938                                         !
 ! R38   R(29,37)                1.0981                                         !
 ! R39   R(29,38)                1.0953                                         !
 ! R40   R(30,39)                1.0975                                         !
 ! R41   R(30,40)                1.0969                                         !
 ! R42   R(30,41)                1.0951                                         !
 ! R43   R(42,43)                1.449                                          !
 ! R44   R(42,50)                1.0118                                         !
 ! R45   R(43,44)                1.5482                                         !
 ! R46   R(43,46)                1.5528                                         !
 ! R47   R(43,51)                1.098                                          !
 ! R48   R(44,45)                1.2528                                         !
 ! R49   R(44,56)                1.3334                                         !
 ! R50   R(46,47)                1.5257                                         !
 ! R51   R(46,52)                1.0927                                         !
 ! R52   R(46,53)                1.0972                                         !
 ! R53   R(47,48)                1.3482                                         !
 ! R54   R(47,49)                1.2374                                         !
 ! R55   R(48,54)                1.012                                          !
 ! R56   R(48,55)                1.0091                                         !
 ! R57   R(56,57)                1.4596                                         !
 ! R58   R(56,69)                1.0351                                         !
 ! R59   R(57,58)                1.5349                                         !
 ! R60   R(57,60)                1.5596                                         !
 ! R61   R(57,70)                1.0934                                         !
 ! R62   R(58,59)                1.2186                                         !
 ! R63   R(58,67)                1.3392                                         !
 ! R64   R(60,61)                1.5467                                         !
 ! R65   R(60,71)                1.0931                                         !
 ! R66   R(60,72)                1.0947                                         !
 ! R67   R(61,62)                1.5366                                         !
 ! R68   R(61,73)                1.0945                                         !
 ! R69   R(61,74)                1.0954                                         !
 ! R70   R(62,63)                1.4586                                         !
 ! R71   R(62,75)                1.0912                                         !
 ! R72   R(62,76)                1.1007                                         !
 ! R73   R(63,64)                1.381                                          !
 ! R74   R(63,77)                1.0115                                         !
 ! R75   R(64,65)                1.2754                                         !
 ! R76   R(64,66)                1.4397                                         !
 ! R77   R(65,78)                1.0199                                         !
 ! R78   R(66,79)                1.0165                                         !
 ! R79   R(66,80)                1.0212                                         !
 ! R80   R(67,68)                0.9759                                         !
 ! A1    A(2,1,12)             108.5268                                         !
 ! A2    A(2,1,13)             115.8722                                         !
 ! A3    A(2,1,22)             109.3951                                         !
 ! A4    A(12,1,13)            110.0435                                         !
 ! A5    A(12,1,22)            104.2506                                         !
 ! A6    A(13,1,22)            108.1216                                         !
 ! A7    A(1,2,3)              103.5067                                         !
 ! A8    A(1,2,5)              110.3719                                         !
 ! A9    A(1,2,14)             106.7431                                         !
 ! A10   A(3,2,5)              116.7345                                         !
 ! A11   A(3,2,14)             108.6237                                         !
 ! A12   A(5,2,14)             110.2538                                         !
 ! A13   A(2,3,4)              118.4416                                         !
 ! A14   A(2,3,23)             118.2356                                         !
 ! A15   A(4,3,23)             123.1847                                         !
 ! A16   A(2,5,6)              112.579                                          !
 ! A17   A(2,5,15)             107.6633                                         !
 ! A18   A(2,5,16)             108.863                                          !
 ! A19   A(6,5,15)             109.7621                                         !
 ! A20   A(6,5,16)             110.0304                                         !
 ! A21   A(15,5,16)            107.8021                                         !
 ! A22   A(5,6,7)              120.499                                          !
 ! A23   A(5,6,8)              120.3725                                         !
 ! A24   A(7,6,8)              119.108                                          !
 ! A25   A(6,7,9)              120.4657                                         !
 ! A26   A(6,7,17)             119.8936                                         !
 ! A27   A(9,7,17)             119.6342                                         !
 ! A28   A(6,8,10)             120.4517                                         !
 ! A29   A(6,8,18)             119.5263                                         !
 ! A30   A(10,8,18)            120.0191                                         !
 ! A31   A(7,9,11)             120.0386                                         !
 ! A32   A(7,9,19)             119.7907                                         !
 ! A33   A(11,9,19)            120.1678                                         !
 ! A34   A(8,10,11)            120.0862                                         !
 ! A35   A(8,10,20)            120.1151                                         !
 ! A36   A(11,10,20)           119.7882                                         !
 ! A37   A(9,11,10)            119.8464                                         !
 ! A38   A(9,11,21)            120.3012                                         !
 ! A39   A(10,11,21)           119.8524                                         !
 ! A40   A(3,23,24)            120.7141                                         !
 ! A41   A(3,23,31)            120.4972                                         !
 ! A42   A(24,23,31)           118.3965                                         !
 ! A43   A(23,24,25)           110.815                                          !
 ! A44   A(23,24,27)           109.1425                                         !
 ! A45   A(23,24,32)           108.7444                                         !
 ! A46   A(25,24,27)           112.3006                                         !
 ! A47   A(25,24,32)           104.9949                                         !
 ! A48   A(27,24,32)           110.743                                          !
 ! A49   A(24,25,26)           121.4569                                         !
 ! A50   A(24,25,42)           115.9131                                         !
 ! A51   A(26,25,42)           122.6082                                         !
 ! A52   A(24,27,28)           115.3819                                         !
 ! A53   A(24,27,33)           107.7619                                         !
 ! A54   A(24,27,34)           108.4585                                         !
 ! A55   A(28,27,33)           108.9189                                         !
 ! A56   A(28,27,34)           108.9664                                         !
 ! A57   A(33,27,34)           107.0416                                         !
 ! A58   A(27,28,29)           112.2841                                         !
 ! A59   A(27,28,30)           109.2071                                         !
 ! A60   A(27,28,35)           107.9142                                         !
 ! A61   A(29,28,30)           111.2423                                         !
 ! A62   A(29,28,35)           107.8157                                         !
 ! A63   A(30,28,35)           108.2326                                         !
 ! A64   A(28,29,36)           111.4317                                         !
 ! A65   A(28,29,37)           111.0015                                         !
 ! A66   A(28,29,38)           110.3362                                         !
 ! A67   A(36,29,37)           108.8925                                         !
 ! A68   A(36,29,38)           107.509                                          !
 ! A69   A(37,29,38)           107.5244                                         !
 ! A70   A(28,30,39)           110.9243                                         !
 ! A71   A(28,30,40)           111.7616                                         !
 ! A72   A(28,30,41)           110.6979                                         !
 ! A73   A(39,30,40)           107.8569                                         !
 ! A74   A(39,30,41)           107.5802                                         !
 ! A75   A(40,30,41)           107.8528                                         !
 ! A76   A(25,42,43)           119.2083                                         !
 ! A77   A(25,42,50)           118.6153                                         !
 ! A78   A(43,42,50)           113.7589                                         !
 ! A79   A(42,43,44)           107.3714                                         !
 ! A80   A(42,43,46)           111.2871                                         !
 ! A81   A(42,43,51)           107.8642                                         !
 ! A82   A(44,43,46)           115.5143                                         !
 ! A83   A(44,43,51)           106.9394                                         !
 ! A84   A(46,43,51)           107.5488                                         !
 ! A85   A(43,44,45)           120.2035                                         !
 ! A86   A(43,44,56)           114.9758                                         !
 ! A87   A(45,44,56)           124.8134                                         !
 ! A88   A(43,46,47)           113.1005                                         !
 ! A89   A(43,46,52)           106.5588                                         !
 ! A90   A(43,46,53)           110.9063                                         !
 ! A91   A(47,46,52)           110.3453                                         !
 ! A92   A(47,46,53)           108.4465                                         !
 ! A93   A(52,46,53)           107.3313                                         !
 ! A94   A(46,47,48)           116.2383                                         !
 ! A95   A(46,47,49)           122.2204                                         !
 ! A96   A(48,47,49)           121.5309                                         !
 ! A97   A(47,48,54)           118.3413                                         !
 ! A98   A(47,48,55)           122.6558                                         !
 ! A99   A(54,48,55)           118.329                                          !
 ! A100  A(44,56,57)           126.1552                                         !
 ! A101  A(44,56,69)           115.5423                                         !
 ! A102  A(57,56,69)           118.1651                                         !
 ! A103  A(56,57,58)           110.1125                                         !
 ! A104  A(56,57,60)           112.0506                                         !
 ! A105  A(56,57,70)           105.8806                                         !
 ! A106  A(58,57,60)           115.9428                                         !
 ! A107  A(58,57,70)           105.0218                                         !
 ! A108  A(60,57,70)           107.0419                                         !
 ! A109  A(57,58,59)           126.3803                                         !
 ! A110  A(57,58,67)           110.2304                                         !
 ! A111  A(59,58,67)           123.3568                                         !
 ! A112  A(57,60,61)           116.4195                                         !
 ! A113  A(57,60,71)           108.5047                                         !
 ! A114  A(57,60,72)           104.6261                                         !
 ! A115  A(61,60,71)           110.4747                                         !
 ! A116  A(61,60,72)           110.2047                                         !
 ! A117  A(71,60,72)           105.9815                                         !
 ! A118  A(60,61,62)           113.4593                                         !
 ! A119  A(60,61,73)           110.445                                          !
 ! A120  A(60,61,74)           108.9179                                         !
 ! A121  A(62,61,73)           109.5271                                         !
 ! A122  A(62,61,74)           107.6278                                         !
 ! A123  A(73,61,74)           106.5939                                         !
 ! A124  A(61,62,63)           110.8779                                         !
 ! A125  A(61,62,75)           111.0291                                         !
 ! A126  A(61,62,76)           109.9195                                         !
 ! A127  A(63,62,75)           107.6331                                         !
 ! A128  A(63,62,76)           110.3954                                         !
 ! A129  A(75,62,76)           106.8887                                         !
 ! A130  A(62,63,64)           122.2131                                         !
 ! A131  A(62,63,77)           114.2314                                         !
 ! A132  A(64,63,77)           113.3974                                         !
 ! A133  A(63,64,65)           122.3914                                         !
 ! A134  A(63,64,66)           110.0596                                         !
 ! A135  A(65,64,66)           127.5465                                         !
 ! A136  A(64,65,78)           112.2481                                         !
 ! A137  A(64,66,79)           111.1915                                         !
 ! A138  A(64,66,80)           110.2087                                         !
 ! A139  A(79,66,80)           109.7835                                         !
 ! A140  A(58,67,68)           108.5064                                         !
 ! D1    D(12,1,2,3)           -45.0896                                         !
 ! D2    D(12,1,2,5)          -170.7314                                         !
 ! D3    D(12,1,2,14)           69.4446                                         !
 ! D4    D(13,1,2,3)          -169.4401                                         !
 ! D5    D(13,1,2,5)            64.918                                          !
 ! D6    D(13,1,2,14)          -54.9059                                         !
 ! D7    D(22,1,2,3)            68.0653                                         !
 ! D8    D(22,1,2,5)           -57.5766                                         !
 ! D9    D(22,1,2,14)         -177.4005                                         !
 ! D10   D(1,2,3,4)             32.963                                          !
 ! D11   D(1,2,3,23)          -142.9024                                         !
 ! D12   D(5,2,3,4)            154.4198                                         !
 ! D13   D(5,2,3,23)           -21.4456                                         !
 ! D14   D(14,2,3,4)           -80.2154                                         !
 ! D15   D(14,2,3,23)          103.9192                                         !
 ! D16   D(1,2,5,6)            -53.8602                                         !
 ! D17   D(1,2,5,15)          -174.9724                                         !
 ! D18   D(1,2,5,16)            68.4211                                         !
 ! D19   D(3,2,5,6)           -171.6356                                         !
 ! D20   D(3,2,5,15)            67.2522                                         !
 ! D21   D(3,2,5,16)           -49.3544                                         !
 ! D22   D(14,2,5,6)            63.8227                                         !
 ! D23   D(14,2,5,15)          -57.2895                                         !
 ! D24   D(14,2,5,16)         -173.8961                                         !
 ! D25   D(2,3,23,24)          168.434                                          !
 ! D26   D(2,3,23,31)           -4.263                                          !
 ! D27   D(4,3,23,24)           -7.2216                                         !
 ! D28   D(4,3,23,31)         -179.9186                                         !
 ! D29   D(2,5,6,7)            -66.7646                                         !
 ! D30   D(2,5,6,8)            111.5745                                         !
 ! D31   D(15,5,6,7)            53.1411                                         !
 ! D32   D(15,5,6,8)          -128.5198                                         !
 ! D33   D(16,5,6,7)           171.6151                                         !
 ! D34   D(16,5,6,8)           -10.0458                                         !
 ! D35   D(5,6,7,9)            178.1729                                         !
 ! D36   D(5,6,7,17)            -2.7548                                         !
 ! D37   D(8,6,7,9)             -0.187                                          !
 ! D38   D(8,6,7,17)           178.8853                                         !
 ! D39   D(5,6,8,10)          -178.5526                                         !
 ! D40   D(5,6,8,18)             2.0731                                         !
 ! D41   D(7,6,8,10)            -0.1905                                         !
 ! D42   D(7,6,8,18)          -179.5648                                         !
 ! D43   D(6,7,9,11)             0.1339                                         !
 ! D44   D(6,7,9,19)           179.5279                                         !
 ! D45   D(17,7,9,11)         -178.9408                                         !
 ! D46   D(17,7,9,19)            0.4532                                         !
 ! D47   D(6,8,10,11)            0.6222                                         !
 ! D48   D(6,8,10,20)          179.4413                                         !
 ! D49   D(18,8,10,11)         179.9934                                         !
 ! D50   D(18,8,10,20)          -1.1875                                         !
 ! D51   D(7,9,11,10)            0.2972                                         !
 ! D52   D(7,9,11,21)         -179.5978                                         !
 ! D53   D(19,9,11,10)        -179.0945                                         !
 ! D54   D(19,9,11,21)           1.0105                                         !
 ! D55   D(8,10,11,9)           -0.6734                                         !
 ! D56   D(8,10,11,21)         179.2221                                         !
 ! D57   D(20,10,11,9)        -179.4964                                         !
 ! D58   D(20,10,11,21)          0.3991                                         !
 ! D59   D(3,23,24,25)         -54.1664                                         !
 ! D60   D(3,23,24,27)        -178.3387                                         !
 ! D61   D(3,23,24,32)          60.7509                                         !
 ! D62   D(31,23,24,25)        118.6811                                         !
 ! D63   D(31,23,24,27)         -5.4912                                         !
 ! D64   D(31,23,24,32)       -126.4016                                         !
 ! D65   D(23,24,25,26)        148.734                                          !
 ! D66   D(23,24,25,42)        -32.9253                                         !
 ! D67   D(27,24,25,26)        -88.9154                                         !
 ! D68   D(27,24,25,42)         89.4253                                         !
 ! D69   D(32,24,25,26)         31.4932                                         !
 ! D70   D(32,24,25,42)       -150.1661                                         !
 ! D71   D(23,24,27,28)        178.2198                                         !
 ! D72   D(23,24,27,33)        -59.8549                                         !
 ! D73   D(23,24,27,34)         55.6983                                         !
 ! D74   D(25,24,27,28)         54.9265                                         !
 ! D75   D(25,24,27,33)        176.8518                                         !
 ! D76   D(25,24,27,34)        -67.595                                          !
 ! D77   D(32,24,27,28)        -62.0977                                         !
 ! D78   D(32,24,27,33)         59.8277                                         !
 ! D79   D(32,24,27,34)        175.3808                                         !
 ! D80   D(24,25,42,43)        157.5628                                         !
 ! D81   D(24,25,42,50)         11.3806                                         !
 ! D82   D(26,25,42,43)        -24.1174                                         !
 ! D83   D(26,25,42,50)       -170.2997                                         !
 ! D84   D(24,27,28,29)         56.322                                          !
 ! D85   D(24,27,28,30)       -179.8015                                         !
 ! D86   D(24,27,28,35)        -62.3617                                         !
 ! D87   D(33,27,28,29)        -64.9802                                         !
 ! D88   D(33,27,28,30)         58.8963                                         !
 ! D89   D(33,27,28,35)        176.3361                                         !
 ! D90   D(34,27,28,29)        178.5723                                         !
 ! D91   D(34,27,28,30)        -57.5513                                         !
 ! D92   D(34,27,28,35)         59.8886                                         !
 ! D93   D(27,28,29,36)        -66.599                                          !
 ! D94   D(27,28,29,37)         54.954                                          !
 ! D95   D(27,28,29,38)        174.0491                                         !
 ! D96   D(30,28,29,36)        170.6658                                         !
 ! D97   D(30,28,29,37)        -67.7811                                         !
 ! D98   D(30,28,29,38)         51.3139                                         !
 ! D99   D(35,28,29,36)         52.1427                                         !
 ! D100  D(35,28,29,37)        173.6957                                         !
 ! D101  D(35,28,29,38)        -67.2092                                         !
 ! D102  D(27,28,30,39)        -64.0627                                         !
 ! D103  D(27,28,30,40)         56.3426                                         !
 ! D104  D(27,28,30,41)        176.5876                                         !
 ! D105  D(29,28,30,39)         60.4262                                         !
 ! D106  D(29,28,30,40)       -179.1685                                         !
 ! D107  D(29,28,30,41)        -58.9236                                         !
 ! D108  D(35,28,30,39)        178.6984                                         !
 ! D109  D(35,28,30,40)        -60.8963                                         !
 ! D110  D(35,28,30,41)         59.3487                                         !
 ! D111  D(25,42,43,44)       -139.3396                                         !
 ! D112  D(25,42,43,46)         93.3412                                         !
 ! D113  D(25,42,43,51)        -24.4055                                         !
 ! D114  D(50,42,43,44)          8.3969                                         !
 ! D115  D(50,42,43,46)       -118.9223                                         !
 ! D116  D(50,42,43,51)        123.331                                          !
 ! D117  D(42,43,44,45)          0.7743                                         !
 ! D118  D(42,43,44,56)        179.8351                                         !
 ! D119  D(46,43,44,45)        125.5807                                         !
 ! D120  D(46,43,44,56)        -55.3585                                         !
 ! D121  D(51,43,44,45)       -114.7746                                         !
 ! D122  D(51,43,44,56)         64.2862                                         !
 ! D123  D(42,43,46,47)       -150.7427                                         !
 ! D124  D(42,43,46,52)        -29.3323                                         !
 ! D125  D(42,43,46,53)         87.172                                          !
 ! D126  D(44,43,46,47)         86.5048                                         !
 ! D127  D(44,43,46,52)       -152.0848                                         !
 ! D128  D(44,43,46,53)        -35.5805                                         !
 ! D129  D(51,43,46,47)        -32.8053                                         !
 ! D130  D(51,43,46,52)         88.605                                          !
 ! D131  D(51,43,46,53)       -154.8907                                         !
 ! D132  D(43,44,56,57)       -175.0607                                         !
 ! D133  D(43,44,56,69)          0.5749                                         !
 ! D134  D(45,44,56,57)          3.9507                                         !
 ! D135  D(45,44,56,69)        179.5863                                         !
 ! D136  D(43,46,47,48)        141.6922                                         !
 ! D137  D(43,46,47,49)        -39.4672                                         !
 ! D138  D(52,46,47,48)         22.4418                                         !
 ! D139  D(52,46,47,49)       -158.7176                                         !
 ! D140  D(53,46,47,48)        -94.8558                                         !
 ! D141  D(53,46,47,49)         83.9848                                         !
 ! D142  D(46,47,48,54)       -179.1055                                         !
 ! D143  D(46,47,48,55)         -8.6788                                         !
 ! D144  D(49,47,48,54)          2.0453                                         !
 ! D145  D(49,47,48,55)        172.472                                          !
 ! D146  D(44,56,57,58)         71.3219                                         !
 ! D147  D(44,56,57,60)        -59.2937                                         !
 ! D148  D(44,56,57,70)       -175.6519                                         !
 ! D149  D(69,56,57,58)       -104.2111                                         !
 ! D150  D(69,56,57,60)        125.1733                                         !
 ! D151  D(69,56,57,70)          8.815                                          !
 ! D152  D(56,57,58,59)        -31.8631                                         !
 ! D153  D(56,57,58,67)        146.1071                                         !
 ! D154  D(60,57,58,59)         96.655                                          !
 ! D155  D(60,57,58,67)        -85.3747                                         !
 ! D156  D(70,57,58,59)       -145.4404                                         !
 ! D157  D(70,57,58,67)         32.5299                                         !
 ! D158  D(56,57,60,61)        172.3913                                         !
 ! D159  D(56,57,60,71)         47.0698                                         !
 ! D160  D(56,57,60,72)        -65.7232                                         !
 ! D161  D(58,57,60,61)         44.8281                                         !
 ! D162  D(58,57,60,71)        -80.4933                                         !
 ! D163  D(58,57,60,72)        166.7136                                         !
 ! D164  D(70,57,60,61)        -71.9538                                         !
 ! D165  D(70,57,60,71)        162.7247                                         !
 ! D166  D(70,57,60,72)         49.9317                                         !
 ! D167  D(57,58,67,68)        178.0716                                         !
 ! D168  D(59,58,67,68)         -3.8848                                         !
 ! D169  D(57,60,61,62)       -100.9687                                         !
 ! D170  D(57,60,61,73)         22.4426                                         !
 ! D171  D(57,60,61,74)        139.1834                                         !
 ! D172  D(71,60,61,62)         23.3502                                         !
 ! D173  D(71,60,61,73)        146.7616                                         !
 ! D174  D(71,60,61,74)        -96.4977                                         !
 ! D175  D(72,60,61,62)        140.1308                                         !
 ! D176  D(72,60,61,73)        -96.4579                                         !
 ! D177  D(72,60,61,74)         20.2829                                         !
 ! D178  D(60,61,62,63)         51.6886                                         !
 ! D179  D(60,61,62,75)        171.2908                                         !
 ! D180  D(60,61,62,76)        -70.6512                                         !
 ! D181  D(73,61,62,63)        -72.224                                          !
 ! D182  D(73,61,62,75)         47.3782                                         !
 ! D183  D(73,61,62,76)        165.4361                                         !
 ! D184  D(74,61,62,63)        172.268                                          !
 ! D185  D(74,61,62,75)        -68.1297                                         !
 ! D186  D(74,61,62,76)         49.9282                                         !
 ! D187  D(61,62,63,64)        150.6432                                         !
 ! D188  D(61,62,63,77)        -66.3914                                         !
 ! D189  D(75,62,63,64)         29.0269                                         !
 ! D190  D(75,62,63,77)        171.9923                                         !
 ! D191  D(76,62,63,64)        -87.2944                                         !
 ! D192  D(76,62,63,77)         55.671                                          !
 ! D193  D(62,63,64,65)         -1.6402                                         !
 ! D194  D(62,63,64,66)        178.8886                                         !
 ! D195  D(77,63,64,65)       -144.882                                          !
 ! D196  D(77,63,64,66)         35.6468                                         !
 ! D197  D(63,64,65,78)       -172.3384                                         !
 ! D198  D(66,64,65,78)          7.0351                                         !
 ! D199  D(63,64,66,79)        177.8861                                         !
 ! D200  D(63,64,66,80)         55.9115                                         !
 ! D201  D(65,64,66,79)         -1.5507                                         !
 ! D202  D(65,64,66,80)       -123.5253                                         !
 --------------------------------------------------------------------------------
 Symmetry turned off by external request.
 Stoichiometry    C25H41N8O6(1+)
 Framework group  C1[X(C25H41N8O6)]
 Deg. of freedom   234
 Full point group                 C1      NOp   1
                          Input orientation:                          
 ---------------------------------------------------------------------
 Center     Atomic      Atomic             Coordinates (Angstroms)
 Number     Number       Type             X           Y           Z
 ---------------------------------------------------------------------
      1          7           0       -1.543062   12.976928   -6.326267
      2          6           0       -2.825838   13.661998   -5.962256
      3          6           0       -3.510623   12.660470   -5.002681
      4          8           0       -2.801885   11.970478   -4.273690
      5          6           0       -3.604552   14.047886   -7.229607
      6          6           0       -2.774366   14.866934   -8.195226
      7          6           0       -2.358118   16.160641   -7.854920
      8          6           0       -2.383234   14.327336   -9.426940
      9          6           0       -1.561281   16.900434   -8.729423
     10          6           0       -1.592798   15.069759  -10.305368
     11          6           0       -1.174998   16.353978   -9.955161
     12          1           0       -1.122539   12.594420   -5.469716
     13          1           0       -0.841084   13.562882   -6.840832
     14          1           0       -2.554698   14.559111   -5.396097
     15          1           0       -4.485517   14.623317   -6.916957
     16          1           0       -3.957923   13.134545   -7.719920
     17          1           0       -2.669718   16.599514   -6.908783
     18          1           0       -2.708614   13.325727   -9.701278
     19          1           0       -1.251164   17.905490   -8.457788
     20          1           0       -1.285410   14.642999  -11.254225
     21          1           0       -0.549785   16.923197  -10.635882
     22          1           0       -1.752296   12.135439   -6.907780
     23          7           0       -4.854023   12.527852   -5.069033
     24          6           0       -5.535287   11.425353   -4.373696
     25          6           0       -4.932481   10.065080   -4.780520
     26          8           0       -4.901435    9.123237   -4.002837
     27          6           0       -7.045007   11.504220   -4.660531
     28          6           0       -7.896561   10.383454   -4.031704
     29          6           0       -7.719061   10.302195   -2.508832
     30          6           0       -9.369518   10.595798   -4.409540
     31          1           0       -5.397764   13.116849   -5.684457
     32          1           0       -5.340040   11.511978   -3.302873
     33          1           0       -7.406061   12.475391   -4.292539
     34          1           0       -7.193316   11.497113   -5.750776
     35          1           0       -7.566308    9.427540   -4.459984
     36          1           0       -6.705935    9.989090   -2.240696
     37          1           0       -7.928727   11.270809   -2.035944
     38          1           0       -8.413713    9.570132   -2.083173
     39          1           0       -9.752682   11.531447   -3.982710
     40          1           0       -9.508101   10.640478   -5.496705
     41          1           0       -9.989288    9.778790   -4.025397
     42          7           0       -4.472819    9.974994   -6.067565
     43          6           0       -3.482779    8.969273   -6.396037
     44          6           0       -2.461138    9.623232   -7.358148
     45          8           0       -2.588769   10.824100   -7.691675
     46          6           0       -4.152048    7.667745   -6.915043
     47          6           0       -3.337525    6.413783   -6.611784
     48          7           0       -4.039680    5.316285   -6.265218
     49          8           0       -2.103340    6.391754   -6.698436
     50          1           0       -4.388438   10.823339   -6.612481
     51          1           0       -2.939733    8.717910   -5.475440
     52          1           0       -5.132275    7.609157   -6.435815
     53          1           0       -4.320244    7.718987   -7.998044
     54          1           0       -3.530437    4.470229   -6.043836
     55          1           0       -5.031694    5.340019   -6.081650
     56          7           0       -1.471863    8.823272   -7.757424
     57          6           0       -0.328127    9.211358   -8.577038
     58          6           0        0.629894   10.092026   -7.763097
     59          8           0        0.320715   10.868360   -6.876174
     60          6           0       -0.766053    9.778809   -9.962217
     61          6           0        0.351321   10.389633  -10.840131
     62          6           0        0.390015   11.925258  -10.800202
     63          7           0        0.420176   12.408892   -9.424400
     64          6           0        1.027391   13.599169   -9.075645
     65          7           0        1.626298   14.335857   -9.927252
     66          7           0        0.880374   13.833104   -7.662682
     67          8           0        1.896591    9.862290   -8.132166
     68          1           0        2.480176   10.455529   -7.622462
     69          1           0       -1.502993    7.856646   -7.388439
     70          1           0        0.228354    8.290019   -8.769585
     71          1           0       -1.566703   10.505511   -9.802008
     72          1           0       -1.228216    8.929381  -10.475323
     73          1           0        1.327982    9.991336  -10.547786
     74          1           0        0.189609   10.088825  -11.880954
     75          1           0        1.278823   12.307811  -11.304624
     76          1           0       -0.481497   12.336320  -11.332300
     77          1           0       -0.423115   12.219155   -8.899083
     78          1           0        2.123583   15.109560   -9.486530
     79          1           0        1.351453   14.688623   -7.380909
     80          1           0        1.252932   13.043063   -7.133677
 ---------------------------------------------------------------------
 Rotational constants (GHZ):           0.1240778           0.0695146           0.0503435
 Standard basis: 6-31G(d) (6D, 7F)
   667 basis functions,  1256 primitive gaussians,   667 cartesian basis functions
   147 alpha electrons      147 beta electrons
       nuclear repulsion energy      5003.1259017988 Hartrees.
 NAtoms=   80 NActive=   80 NUniq=   80 SFac= 1.00D+00 NAtFMM=   60 NAOKFM=T Big=T
 Integral buffers will be    131072 words long.
 Raffenetti 2 integral format.
 Two-electron integral symmetry is turned off.
 Nuclear repulsion after empirical dispersion term =     5003.0050684138 Hartrees.
 One-electron integrals computed using PRISM.
 NBasis=   667 RedAO= T EigKep=  4.59D-04  NBF=   667
 NBsUse=   667 1.00D-06 EigRej= -1.00D+00 NBFU=   667
 Initial guess from the checkpoint file:  "conf-879.chk"
 B after Tr=     0.000000    0.000000    0.000000
         Rot=    1.000000    0.000000    0.000000    0.000000 Ang=   0.00 deg.
 Requested convergence on RMS density matrix=1.00D-08 within 128 cycles.
 Requested convergence on MAX density matrix=1.00D-06.
 Requested convergence on             energy=1.00D-06.
 No special actions if energy rises.
 SCF Done:  E(RB3LYP) =  -1866.73100821     A.U. after    3 cycles
            NFock=  3  Conv=0.71D-09     -V/T= 2.0094

 **********************************************************************

            Population analysis using the SCF Density.

 **********************************************************************

 Alpha  occ. eigenvalues --  -19.31391 -19.26164 -19.24979 -19.24258 -19.22763
 Alpha  occ. eigenvalues --  -19.21120 -14.53769 -14.48745 -14.47295 -14.46346
 Alpha  occ. eigenvalues --  -14.46153 -14.45287 -14.44200 -14.38629 -10.44293
 Alpha  occ. eigenvalues --  -10.41610 -10.41516 -10.40210 -10.38227 -10.38021
 Alpha  occ. eigenvalues --  -10.37885 -10.35607 -10.34664 -10.33510 -10.32262
 Alpha  occ. eigenvalues --  -10.30716 -10.30464 -10.30234 -10.29691 -10.28943
 Alpha  occ. eigenvalues --  -10.28890 -10.28597 -10.28544 -10.28333 -10.28140
 Alpha  occ. eigenvalues --  -10.27960 -10.26954 -10.24528 -10.23933  -1.22549
 Alpha  occ. eigenvalues --   -1.16856  -1.16051  -1.14292  -1.13478  -1.13081
 Alpha  occ. eigenvalues --   -1.09453  -1.07472  -1.05079  -1.04528  -1.02231
 Alpha  occ. eigenvalues --   -1.01140  -0.98899  -0.95828  -0.94511  -0.91568
 Alpha  occ. eigenvalues --   -0.90805  -0.89637  -0.88027  -0.85230  -0.84646
 Alpha  occ. eigenvalues --   -0.84147  -0.82879  -0.79133  -0.78247  -0.77724
 Alpha  occ. eigenvalues --   -0.75527  -0.74938  -0.73392  -0.71795  -0.71347
 Alpha  occ. eigenvalues --   -0.70497  -0.69903  -0.69253  -0.68794  -0.68462
 Alpha  occ. eigenvalues --   -0.67933  -0.67360  -0.66938  -0.65575  -0.64430
 Alpha  occ. eigenvalues --   -0.64091  -0.63069  -0.62977  -0.61915  -0.61581
 Alpha  occ. eigenvalues --   -0.61335  -0.60762  -0.59820  -0.59214  -0.58605
 Alpha  occ. eigenvalues --   -0.58453  -0.58113  -0.57070  -0.56249  -0.56046
 Alpha  occ. eigenvalues --   -0.55870  -0.55428  -0.55281  -0.55038  -0.54384
 Alpha  occ. eigenvalues --   -0.54252  -0.53390  -0.52687  -0.52336  -0.52129
 Alpha  occ. eigenvalues --   -0.51854  -0.51469  -0.51055  -0.50822  -0.50777
 Alpha  occ. eigenvalues --   -0.50476  -0.50188  -0.49970  -0.49659  -0.49073
 Alpha  occ. eigenvalues --   -0.48555  -0.48112  -0.47568  -0.47372  -0.46497
 Alpha  occ. eigenvalues --   -0.45467  -0.45378  -0.45285  -0.45019  -0.44659
 Alpha  occ. eigenvalues --   -0.44148  -0.44064  -0.43949  -0.43731  -0.42703
 Alpha  occ. eigenvalues --   -0.40967  -0.40701  -0.40357  -0.40115  -0.39018
 Alpha  occ. eigenvalues --   -0.38682  -0.38391  -0.38203  -0.37874  -0.37312
 Alpha  occ. eigenvalues --   -0.36759  -0.35433  -0.35396  -0.34798  -0.34296
 Alpha  occ. eigenvalues --   -0.34127  -0.32268
 Alpha virt. eigenvalues --   -0.12175  -0.11358  -0.10101  -0.09978  -0.09880
 Alpha virt. eigenvalues --   -0.08293  -0.07349  -0.05655  -0.05062  -0.04001
 Alpha virt. eigenvalues --   -0.02796  -0.02251  -0.01962  -0.01349  -0.00465
 Alpha virt. eigenvalues --   -0.00175   0.00273   0.00968   0.01514   0.01966
 Alpha virt. eigenvalues --    0.02726   0.02988   0.03210   0.03593   0.03854
 Alpha virt. eigenvalues --    0.03986   0.04099   0.04544   0.04855   0.05281
 Alpha virt. eigenvalues --    0.05523   0.05957   0.06090   0.06538   0.06921
 Alpha virt. eigenvalues --    0.07098   0.07570   0.07720   0.08137   0.08321
 Alpha virt. eigenvalues --    0.08855   0.09292   0.09726   0.09886   0.10271
 Alpha virt. eigenvalues --    0.10410   0.10957   0.11161   0.11283   0.11691
 Alpha virt. eigenvalues --    0.11942   0.12152   0.13039   0.13223   0.13380
 Alpha virt. eigenvalues --    0.13921   0.14485   0.14903   0.15214   0.15334
 Alpha virt. eigenvalues --    0.15847   0.16252   0.16746   0.17349   0.17449
 Alpha virt. eigenvalues --    0.17837   0.17962   0.18443   0.19145   0.20063
 Alpha virt. eigenvalues --    0.20625   0.21406   0.21749   0.23041   0.23212
 Alpha virt. eigenvalues --    0.23523   0.24802   0.25248   0.25846   0.26604
 Alpha virt. eigenvalues --    0.27016   0.27941   0.30585   0.30711   0.32630
 Alpha virt. eigenvalues --    0.33173   0.33707   0.34782   0.36690   0.38381
 Alpha virt. eigenvalues --    0.39373   0.40077   0.40879   0.41200   0.41971
 Alpha virt. eigenvalues --    0.42212   0.42635   0.43319   0.43355   0.43518
 Alpha virt. eigenvalues --    0.44334   0.44512   0.44632   0.44874   0.45315
 Alpha virt. eigenvalues --    0.45574   0.46034   0.46170   0.46922   0.47219
 Alpha virt. eigenvalues --    0.47680   0.48681   0.48827   0.49330   0.49647
 Alpha virt. eigenvalues --    0.49951   0.50568   0.50824   0.51043   0.51534
 Alpha virt. eigenvalues --    0.51780   0.52080   0.52365   0.52537   0.53057
 Alpha virt. eigenvalues --    0.53189   0.53761   0.54564   0.55073   0.55539
 Alpha virt. eigenvalues --    0.55765   0.56354   0.56663   0.56824   0.57066
 Alpha virt. eigenvalues --    0.57395   0.58054   0.58363   0.58812   0.59783
 Alpha virt. eigenvalues --    0.60260   0.60846   0.60976   0.61757   0.62285
 Alpha virt. eigenvalues --    0.62795   0.63478   0.64031   0.64388   0.64690
 Alpha virt. eigenvalues --    0.65225   0.65735   0.66155   0.66426   0.68009
 Alpha virt. eigenvalues --    0.68491   0.69010   0.69432   0.69590   0.69818
 Alpha virt. eigenvalues --    0.70156   0.70467   0.70818   0.71467   0.71913
 Alpha virt. eigenvalues --    0.72188   0.73096   0.73487   0.73845   0.74962
 Alpha virt. eigenvalues --    0.75234   0.75641   0.75689   0.76259   0.76437
 Alpha virt. eigenvalues --    0.76952   0.77081   0.77169   0.77615   0.77724
 Alpha virt. eigenvalues --    0.77997   0.78494   0.78582   0.78988   0.79153
 Alpha virt. eigenvalues --    0.79568   0.79979   0.80375   0.80834   0.81449
 Alpha virt. eigenvalues --    0.81595   0.82095   0.82301   0.82658   0.82707
 Alpha virt. eigenvalues --    0.83207   0.83342   0.83786   0.84336   0.84646
 Alpha virt. eigenvalues --    0.84982   0.85850   0.85982   0.86415   0.86682
 Alpha virt. eigenvalues --    0.87173   0.87581   0.88090   0.88624   0.89082
 Alpha virt. eigenvalues --    0.89259   0.89892   0.90564   0.90787   0.91492
 Alpha virt. eigenvalues --    0.91888   0.92109   0.92412   0.93662   0.93862
 Alpha virt. eigenvalues --    0.94074   0.95004   0.96131   0.96429   0.96542
 Alpha virt. eigenvalues --    0.98076   0.99077   0.99761   1.00288   1.00922
 Alpha virt. eigenvalues --    1.01959   1.02833   1.04194   1.04621   1.05473
 Alpha virt. eigenvalues --    1.05933   1.06717   1.07803   1.08250   1.08766
 Alpha virt. eigenvalues --    1.09585   1.10241   1.10835   1.11348   1.11850
 Alpha virt. eigenvalues --    1.13136   1.13624   1.14029   1.14998   1.15577
 Alpha virt. eigenvalues --    1.16642   1.17134   1.18725   1.19190   1.20748
 Alpha virt. eigenvalues --    1.21100   1.21941   1.22432   1.24329   1.24955
 Alpha virt. eigenvalues --    1.25318   1.26431   1.26835   1.27434   1.28857
 Alpha virt. eigenvalues --    1.29298   1.29830   1.30830   1.31083   1.31765
 Alpha virt. eigenvalues --    1.33061   1.33782   1.34269   1.34412   1.35395
 Alpha virt. eigenvalues --    1.36554   1.36917   1.37959   1.38220   1.38574
 Alpha virt. eigenvalues --    1.39488   1.39791   1.40454   1.41243   1.42152
 Alpha virt. eigenvalues --    1.42299   1.43016   1.44078   1.45187   1.45247
 Alpha virt. eigenvalues --    1.47201   1.49239   1.50052   1.50537   1.51084
 Alpha virt. eigenvalues --    1.52723   1.52875   1.54113   1.56290   1.56663
 Alpha virt. eigenvalues --    1.57802   1.58383   1.58585   1.60543   1.60948
 Alpha virt. eigenvalues --    1.61639   1.62623   1.63132   1.64266   1.64664
 Alpha virt. eigenvalues --    1.65068   1.65966   1.66440   1.67141   1.67851
 Alpha virt. eigenvalues --    1.68290   1.69283   1.69388   1.69804   1.70110
 Alpha virt. eigenvalues --    1.70836   1.71110   1.71334   1.71543   1.72077
 Alpha virt. eigenvalues --    1.72387   1.72805   1.73687   1.74025   1.74470
 Alpha virt. eigenvalues --    1.75309   1.75956   1.76396   1.76963   1.78405
 Alpha virt. eigenvalues --    1.78513   1.78858   1.79941   1.81014   1.81321
 Alpha virt. eigenvalues --    1.81931   1.82162   1.82720   1.83218   1.83935
 Alpha virt. eigenvalues --    1.83956   1.85224   1.85536   1.86314   1.87402
 Alpha virt. eigenvalues --    1.88195   1.88703   1.89165   1.89653   1.89833
 Alpha virt. eigenvalues --    1.90898   1.91075   1.91366   1.91451   1.92232
 Alpha virt. eigenvalues --    1.92473   1.93155   1.94395   1.94682   1.95696
 Alpha virt. eigenvalues --    1.96141   1.96607   1.97869   1.98217   1.98945
 Alpha virt. eigenvalues --    1.99326   2.00736   2.01900   2.02281   2.03383
 Alpha virt. eigenvalues --    2.04021   2.04185   2.04550   2.05112   2.06035
 Alpha virt. eigenvalues --    2.06575   2.08287   2.09267   2.09849   2.10175
 Alpha virt. eigenvalues --    2.10395   2.11528   2.12427   2.13698   2.14673
 Alpha virt. eigenvalues --    2.15440   2.15567   2.17217   2.17881   2.18571
 Alpha virt. eigenvalues --    2.19494   2.19984   2.20545   2.21695   2.21835
 Alpha virt. eigenvalues --    2.22372   2.23205   2.24083   2.24724   2.26240
 Alpha virt. eigenvalues --    2.26510   2.27234   2.27341   2.28160   2.29078
 Alpha virt. eigenvalues --    2.29531   2.30616   2.30819   2.32686   2.34182
 Alpha virt. eigenvalues --    2.34673   2.35517   2.36446   2.37985   2.38479
 Alpha virt. eigenvalues --    2.38830   2.39340   2.41048   2.42539   2.42909
 Alpha virt. eigenvalues --    2.43492   2.44293   2.44984   2.46218   2.46854
 Alpha virt. eigenvalues --    2.47213   2.48065   2.49067   2.49893   2.50671
 Alpha virt. eigenvalues --    2.51033   2.51772   2.51957   2.52632   2.53942
 Alpha virt. eigenvalues --    2.55195   2.56119   2.56524   2.57281   2.59065
 Alpha virt. eigenvalues --    2.60014   2.61124   2.61480   2.62739   2.63106
 Alpha virt. eigenvalues --    2.64371   2.64693   2.65129   2.65789   2.67396
 Alpha virt. eigenvalues --    2.68250   2.68450   2.68780   2.72150   2.73197
 Alpha virt. eigenvalues --    2.74471   2.75405   2.76696   2.78900   2.82692
 Alpha virt. eigenvalues --    2.85098   2.86956   2.89566   2.90463   2.91900
 Alpha virt. eigenvalues --    2.93431   2.93534   2.94456   2.95817   2.96894
 Alpha virt. eigenvalues --    2.99293   3.00241   3.04402   3.07735   3.09709
 Alpha virt. eigenvalues --    3.31560   3.71084   3.77052   3.79212   3.84834
 Alpha virt. eigenvalues --    3.88134   3.91010   3.93450   3.96639   3.97924
 Alpha virt. eigenvalues --    4.00288   4.02121   4.04197   4.05231   4.06278
 Alpha virt. eigenvalues --    4.08302   4.09699   4.11138   4.12805   4.14452
 Alpha virt. eigenvalues --    4.18845   4.21101   4.22378   4.22931   4.23289
 Alpha virt. eigenvalues --    4.27075   4.28978   4.29583   4.33461   4.35414
 Alpha virt. eigenvalues --    4.37697   4.40010   4.46632   4.49451   4.52144
 Alpha virt. eigenvalues --    4.53838   4.56828   4.61515   4.62096   4.64599
          Condensed to atoms (all electrons):
 Mulliken charges:
               1
     1  N   -0.826969
     2  C   -0.092972
     3  C    0.638359
     4  O   -0.515038
     5  C   -0.401941
     6  C    0.145692
     7  C   -0.187442
     8  C   -0.211167
     9  C   -0.135501
    10  C   -0.112785
    11  C   -0.121072
    12  H    0.406633
    13  H    0.441898
    14  H    0.212987
    15  H    0.178649
    16  H    0.186405
    17  H    0.134468
    18  H    0.142228
    19  H    0.154926
    20  H    0.161007
    21  H    0.160826
    22  H    0.465339
    23  N   -0.653800
    24  C   -0.014267
    25  C    0.622634
    26  O   -0.512374
    27  C   -0.308587
    28  C   -0.076536
    29  C   -0.462170
    30  C   -0.446512
    31  H    0.351281
    32  H    0.210002
    33  H    0.156037
    34  H    0.136259
    35  H    0.142036
    36  H    0.175019
    37  H    0.140232
    38  H    0.157568
    39  H    0.149021
    40  H    0.140966
    41  H    0.160029
    42  N   -0.618312
    43  C   -0.047500
    44  C    0.621532
    45  O   -0.616907
    46  C   -0.376999
    47  C    0.637775
    48  N   -0.731676
    49  O   -0.535737
    50  H    0.345112
    51  H    0.220546
    52  H    0.192348
    53  H    0.192538
    54  H    0.367261
    55  H    0.362226
    56  N   -0.612705
    57  C   -0.059661
    58  C    0.632971
    59  O   -0.517171
    60  C   -0.300936
    61  C   -0.288483
    62  C   -0.135644
    63  N   -0.615661
    64  C    0.586486
    65  N   -0.618106
    66  N   -0.818024
    67  O   -0.534830
    68  H    0.422929
    69  H    0.417143
    70  H    0.204213
    71  H    0.176739
    72  H    0.172608
    73  H    0.175118
    74  H    0.164098
    75  H    0.203695
    76  H    0.144837
    77  H    0.329212
    78  H    0.283776
    79  H    0.337440
    80  H    0.346382
 Sum of Mulliken charges =   1.00000
 Mulliken charges with hydrogens summed into heavy atoms:
               1
     1  N    0.486901
     2  C    0.120015
     3  C    0.638359
     4  O   -0.515038
     5  C   -0.036887
     6  C    0.145692
     7  C   -0.052973
     8  C   -0.068940
     9  C    0.019424
    10  C    0.048222
    11  C    0.039754
    23  N   -0.302519
    24  C    0.195735
    25  C    0.622634
    26  O   -0.512374
    27  C   -0.016292
    28  C    0.065500
    29  C    0.010649
    30  C    0.003504
    42  N   -0.273200
    43  C    0.173045
    44  C    0.621532
    45  O   -0.616907
    46  C    0.007887
    47  C    0.637775
    48  N   -0.002189
    49  O   -0.535737
    56  N   -0.195563
    57  C    0.144552
    58  C    0.632971
    59  O   -0.517171
    60  C    0.048410
    61  C    0.050733
    62  C    0.212888
    63  N   -0.286449
    64  C    0.586486
    65  N   -0.334330
    66  N   -0.134202
    67  O   -0.111901
 Electronic spatial extent (au):  <R**2>=         216720.9290
 Charge=              1.0000 electrons
 Dipole moment (field-independent basis, Debye):
    X=            -12.0193    Y=             55.7512    Z=            -35.0357  Tot=             66.9339
 Quadrupole moment (field-independent basis, Debye-Ang):
   XX=           -142.5496   YY=            492.8547   ZZ=             29.3897
   XY=           -117.9694   XZ=             76.8698   YZ=           -396.1347
 Traceless Quadrupole moment (field-independent basis, Debye-Ang):
   XX=           -269.1145   YY=            366.2898   ZZ=            -97.1753
   XY=           -117.9694   XZ=             76.8698   YZ=           -396.1347
 Octapole moment (field-independent basis, Debye-Ang**2):
  XXX=           1336.5239  YYY=           2079.3376  ZZZ=           2896.9793  XYY=           -760.1566
  XXY=          -1733.6548  XXZ=           1140.8895  XZZ=             96.0059  YZZ=            239.4479
  YYZ=          -3347.1457  XYZ=            731.1236
 Hexadecapole moment (field-independent basis, Debye-Ang**3):
 XXXX=         -17150.3960 YYYY=         -47875.4611 ZZZZ=         -59876.8109 XXXY=          14745.3573
 XXXZ=          -7191.5256 YYYX=           2433.6560 YYYZ=          -9970.1343 ZZZX=          -6012.2419
 ZZZY=          35638.0614 XXYY=         -24973.3596 XXZZ=         -13384.1430 YYZZ=          -9473.0750
 XXYZ=          14234.0587 YYXZ=           4878.6559 ZZXY=           1709.2885
 N-N= 5.003005068414D+03 E-N=-1.432313470654D+04  KE= 1.849304812283D+03
 Unable to Open any file for archive entry.
 1\1\GINC-VIM-000\SP\RB3LYP\6-31G(d)\C25H41N8O6(1+)\KENGMITH\11-Jun-202
 2\0\\# B3LYP/6-31G* empiricaldispersion=gd3 guess=read geom=check nosy
 mm integral(ultrafinegrid)\\Candidate Structure: Conf:879 Charge calc 
 in gas phase\\1,1\N,0,-1.5430618348,12.9769276916,-6.3262666618\C,0,-2
 .8258378991,13.6619980475,-5.9622560807\C,0,-3.510623129,12.6604703283
 ,-5.002681349\O,0,-2.8018852525,11.9704780871,-4.2736899761\C,0,-3.604
 5522153,14.0478857815,-7.2296069792\C,0,-2.7743663852,14.8669337296,-8
 .1952261284\C,0,-2.3581178332,16.1606413686,-7.8549195104\C,0,-2.38323
 43778,14.3273361968,-9.4269401513\C,0,-1.5612813549,16.9004341588,-8.7
 294234609\C,0,-1.5927978679,15.0697586651,-10.3053682454\C,0,-1.174998
 4927,16.3539783162,-9.9551613035\H,0,-1.1225387785,12.5944204055,-5.46
 9715711\H,0,-0.841084198,13.5628819072,-6.8408322245\H,0,-2.5546982616
 ,14.5591112907,-5.3960970021\H,0,-4.485516915,14.6233166629,-6.9169567
 395\H,0,-3.9579232706,13.1345452529,-7.7199204057\H,0,-2.6697180082,16
 .5995140153,-6.9087834466\H,0,-2.7086141702,13.3257269004,-9.701277598
 \H,0,-1.2511637961,17.9054897458,-8.4577877402\H,0,-1.2854101543,14.64
 29992292,-11.2542250596\H,0,-0.5497850048,16.9231970332,-10.6358820369
 \H,0,-1.752296286,12.1354389405,-6.9077804149\N,0,-4.8540225454,12.527
 8523,-5.0690328664\C,0,-5.5352866626,11.4253532243,-4.3736964622\C,0,-
 4.9324813777,10.0650802813,-4.7805202957\O,0,-4.9014354684,9.123237463
 8,-4.0028366035\C,0,-7.0450065611,11.5042195053,-4.6605312388\C,0,-7.8
 9656072,10.3834535496,-4.0317041651\C,0,-7.7190613199,10.3021946073,-2
 .5088322454\C,0,-9.3695179658,10.5957977534,-4.4095401933\H,0,-5.39776
 38589,13.1168490128,-5.6844566834\H,0,-5.3400399124,11.5119777461,-3.3
 028727295\H,0,-7.4060609632,12.4753908489,-4.2925387638\H,0,-7.1933156
 758,11.4971133616,-5.7507760298\H,0,-7.5663084026,9.4275395244,-4.4599
 840961\H,0,-6.7059346538,9.9890904708,-2.2406959469\H,0,-7.9287273537,
 11.2708090321,-2.0359442647\H,0,-8.4137132731,9.570131581,-2.083172929
 3\H,0,-9.7526815025,11.5314470744,-3.9827100115\H,0,-9.5081014886,10.6
 404776748,-5.4967047537\H,0,-9.9892880147,9.7787903312,-4.0253970834\N
 ,0,-4.4728187915,9.9749944845,-6.0675648573\C,0,-3.4827785933,8.969273
 328,-6.3960371659\C,0,-2.4611382362,9.6232316114,-7.3581484904\O,0,-2.
 5887688956,10.8240996336,-7.6916751477\C,0,-4.1520480717,7.6677451202,
 -6.9150434765\C,0,-3.3375249996,6.4137833659,-6.6117844868\N,0,-4.0396
 79693,5.3162854743,-6.2652183472\O,0,-2.1033395671,6.3917539447,-6.698
 4364069\H,0,-4.3884378799,10.8233393959,-6.6124813648\H,0,-2.939733065
 5,8.7179095024,-5.4754395208\H,0,-5.1322747597,7.6091568175,-6.4358149
 716\H,0,-4.3202439831,7.7189865396,-7.9980435597\H,0,-3.530437128,4.47
 02287256,-6.0438359215\H,0,-5.0316944646,5.3400187777,-6.0816497272\N,
 0,-1.4718629018,8.823272375,-7.7574244356\C,0,-0.328126819,9.211358435
 1,-8.5770375679\C,0,0.6298939968,10.0920262786,-7.7630969405\O,0,0.320
 7154583,10.8683597767,-6.8761739571\C,0,-0.766053499,9.778809017,-9.96
 22173241\C,0,0.3513212943,10.3896328932,-10.8401314665\C,0,0.390014567
 4,11.9252578321,-10.8002022233\N,0,0.4201755462,12.4088924752,-9.42440
 04911\C,0,1.0273914384,13.5991687305,-9.0756448778\N,0,1.6262981972,14
 .3358570393,-9.9272517046\N,0,0.880374213,13.833104266,-7.6626824933\O
 ,0,1.8965913418,9.8622901042,-8.1321659562\H,0,2.4801759463,10.4555289
 897,-7.622462404\H,0,-1.5029933113,7.8566464579,-7.3884385559\H,0,0.22
 83540009,8.2900193936,-8.769585372\H,0,-1.5667027545,10.5055110404,-9.
 802007713\H,0,-1.2282158023,8.9293809058,-10.4753228033\H,0,1.32798188
 13,9.9913359797,-10.5477857564\H,0,0.1896092251,10.0888252842,-11.8809
 536578\H,0,1.2788234337,12.3078111068,-11.3046237118\H,0,-0.4814965456
 ,12.336320439,-11.3323002835\H,0,-0.4231146841,12.2191554138,-8.899082
 8642\H,0,2.1235829769,15.1095597726,-9.4865303195\H,0,1.351452823,14.6
 886231247,-7.3809094112\H,0,1.252932322,13.0430630399,-7.133676567\\Ve
 rsion=ES64L-G16RevC.01\HF=-1866.7310082\RMSD=7.080e-10\Dipole=0.157497
 ,0.4682184,-0.3863362\Quadrupole=-200.080047,272.3274791,-72.2474321,-
 87.7073535,57.1507859,-294.5164732\PG=C01 [X(C25H41N8O6)]\\@
 The archive entry for this job was punched.


 AND ALL THIS SCIENCE I DON'T UNDERSTAND
 IT'S JUST MY JOB FIVE DAYS A WEEK

                           -- ELTON JOHN, "ROCKET MAN"
 Job cpu time:       0 days  0 hours  5 minutes 58.5 seconds.
 Elapsed time:       0 days  0 hours  1 minutes 30.4 seconds.
 File lengths (MBytes):  RWF=    344 Int=      0 D2E=      0 Chk=     56 Scr=     16
 Normal termination of Gaussian 16 at Sat Jun 11 21:07:54 2022.
