 Entering Gaussian System, Link 0=/opt/software/Gaussian/g16-AVX2-C.01/g16/g16
 Input=charge-conf-418.com
 Output=charge-conf-418.log
 Initial command:
 /opt/software/Gaussian/g16-AVX2-C.01/g16/l1.exe "/mnt/gs18/scratch/users/kengmith/Gau-24338.inp" -scrdir="/mnt/gs18/scratch/users/kengmith/"
 Entering Link 1 = /opt/software/Gaussian/g16-AVX2-C.01/g16/l1.exe PID=     24348.
  
 Copyright (c) 1988-2019, Gaussian, Inc.  All Rights Reserved.
  
 This is part of the Gaussian(R) 16 program.  It is based on
 the Gaussian(R) 09 system (copyright 2009, Gaussian, Inc.),
 the Gaussian(R) 03 system (copyright 2003, Gaussian, Inc.),
 the Gaussian(R) 98 system (copyright 1998, Gaussian, Inc.),
 the Gaussian(R) 94 system (copyright 1995, Gaussian, Inc.),
 the Gaussian 92(TM) system (copyright 1992, Gaussian, Inc.),
 the Gaussian 90(TM) system (copyright 1990, Gaussian, Inc.),
 the Gaussian 88(TM) system (copyright 1988, Gaussian, Inc.),
 the Gaussian 86(TM) system (copyright 1986, Carnegie Mellon
 University), and the Gaussian 82(TM) system (copyright 1983,
 Carnegie Mellon University). Gaussian is a federally registered
 trademark of Gaussian, Inc.
  
 This software contains proprietary and confidential information,
 including trade secrets, belonging to Gaussian, Inc.
  
 This software is provided under written license and may be
 used, copied, transmitted, or stored only in accord with that
 written license.
  
 The following legend is applicable only to US Government
 contracts under FAR:
  
                    RESTRICTED RIGHTS LEGEND
  
 Use, reproduction and disclosure by the US Government is
 subject to restrictions as set forth in subparagraphs (a)
 and (c) of the Commercial Computer Software - Restricted
 Rights clause in FAR 52.227-19.
  
 Gaussian, Inc.
 340 Quinnipiac St., Bldg. 40, Wallingford CT 06492
  
  
 ---------------------------------------------------------------
 Warning -- This program may not be used in any manner that
 competes with the business of Gaussian, Inc. or will provide
 assistance to any competitor of Gaussian, Inc.  The licensee
 of this program is prohibited from giving any competitor of
 Gaussian, Inc. access to this program.  By using this program,
 the user acknowledges that Gaussian, Inc. is engaged in the
 business of creating and licensing software in the field of
 computational chemistry and represents and warrants to the
 licensee that it is not a competitor of Gaussian, Inc. and that
 it will not use this program in any manner prohibited above.
 ---------------------------------------------------------------
  

 Cite this work as:
 Gaussian 16, Revision C.01,
 M. J. Frisch, G. W. Trucks, H. B. Schlegel, G. E. Scuseria, 
 M. A. Robb, J. R. Cheeseman, G. Scalmani, V. Barone, 
 G. A. Petersson, H. Nakatsuji, X. Li, M. Caricato, A. V. Marenich, 
 J. Bloino, B. G. Janesko, R. Gomperts, B. Mennucci, H. P. Hratchian, 
 J. V. Ortiz, A. F. Izmaylov, J. L. Sonnenberg, D. Williams-Young, 
 F. Ding, F. Lipparini, F. Egidi, J. Goings, B. Peng, A. Petrone, 
 T. Henderson, D. Ranasinghe, V. G. Zakrzewski, J. Gao, N. Rega, 
 G. Zheng, W. Liang, M. Hada, M. Ehara, K. Toyota, R. Fukuda, 
 J. Hasegawa, M. Ishida, T. Nakajima, Y. Honda, O. Kitao, H. Nakai, 
 T. Vreven, K. Throssell, J. A. Montgomery, Jr., J. E. Peralta, 
 F. Ogliaro, M. J. Bearpark, J. J. Heyd, E. N. Brothers, K. N. Kudin, 
 V. N. Staroverov, T. A. Keith, R. Kobayashi, J. Normand, 
 K. Raghavachari, A. P. Rendell, J. C. Burant, S. S. Iyengar, 
 J. Tomasi, M. Cossi, J. M. Millam, M. Klene, C. Adamo, R. Cammi, 
 J. W. Ochterski, R. L. Martin, K. Morokuma, O. Farkas, 
 J. B. Foresman, and D. J. Fox, Gaussian, Inc., Wallingford CT, 2019.
 
 ******************************************
 Gaussian 16:  ES64L-G16RevC.01  3-Jul-2019
                11-Jun-2022 
 ******************************************
 %mem=8gb
 %nproc=4
 Will use up to    4 processors via shared memory.
 %chk=conf-418.chk
 ----------------------------------------------------------------------
 # B3LYP/6-31G* empiricaldispersion=gd3 guess=read geom=check nosymm in
 tegral(ultrafinegrid)
 ----------------------------------------------------------------------
 1/29=2,38=1,172=1/1;
 2/12=2,15=1,40=1/2;
 3/5=1,6=6,7=1,11=2,14=-4,25=1,30=1,74=-5,75=-5,116=-2,124=31/1,2,3;
 4/5=1/1;
 5/5=2,38=6/2;
 6/7=2,8=2,9=2,10=2,28=1/1;
 99/5=1,9=1/99;
 ------------------------------------------------------
 Candidate Structure: Conf:418 Charge calc in gas phase
 ------------------------------------------------------
 Structure from the checkpoint file:  "conf-418.chk"
 Charge =  1 Multiplicity = 1
 Redundant internal coordinates found in file.  (old form).
 N,0,-4.8871097014,11.1306728593,-6.7284456034
 C,0,-5.0338510838,12.5526067324,-6.2702880442
 C,0,-4.6683976295,13.3758547878,-7.5255845182
 O,0,-4.8254030491,12.8675276854,-8.6341566507
 C,0,-4.1637886616,12.7700588464,-5.0133727545
 C,0,-4.3437944079,11.639039392,-4.0205243962
 C,0,-5.497192762,11.5602222625,-3.2289914285
 C,0,-3.4033386392,10.5984376842,-3.9628501152
 C,0,-5.7071992786,10.4590436665,-2.3959440242
 C,0,-3.6122308267,9.4970900154,-3.1300428317
 C,0,-4.7700736837,9.4245723945,-2.3522393109
 H,0,-5.3034251121,11.0109593429,-7.6624172269
 H,0,-5.2617050531,10.4527310741,-6.0599416645
 H,0,-6.0925467736,12.7019297991,-6.0340044035
 H,0,-4.4478525674,13.7291245856,-4.5642175542
 H,0,-3.115613229,12.8377183789,-5.3220637979
 H,0,-6.2292635548,12.3652007216,-3.256269386
 H,0,-2.502487519,10.655372124,-4.5716979383
 H,0,-6.6020837198,10.4111864216,-1.7822820278
 H,0,-2.8860954734,8.6912624364,-3.1025712572
 H,0,-4.9374144413,8.5598492305,-1.7181297042
 H,0,-3.8753393761,10.9354880015,-6.8553785729
 N,0,-4.1346285474,14.6014260071,-7.3408053121
 C,0,-3.6493055613,15.391827153,-8.4841775542
 C,0,-2.6230402412,14.5894082664,-9.3090077542
 O,0,-2.5764384396,14.677711069,-10.5227479677
 C,0,-3.0683398054,16.7206921009,-7.9709436551
 C,0,-2.4647169554,17.6342887756,-9.0565562114
 C,0,-3.4724401502,17.9632322742,-10.167439008
 C,0,-1.9252780657,18.9123330163,-8.3986477109
 H,0,-4.0540389804,14.9922637394,-6.4114674213
 H,0,-4.4827679373,15.570214686,-9.1667530957
 H,0,-3.8735936692,17.2634440521,-7.4549854571
 H,0,-2.2963726059,16.4975322411,-7.219765447
 H,0,-1.6196933706,17.1018069693,-9.5142178405
 H,0,-3.045531808,18.6927080408,-10.8637457237
 H,0,-3.7377541754,17.0736983191,-10.7462831758
 H,0,-4.3886460882,18.4013963981,-9.7499415677
 H,0,-1.4354180074,19.5516171461,-9.1404231271
 H,0,-2.7387521822,19.4931894128,-7.9456820067
 H,0,-1.1938579314,18.6876992215,-7.6127495967
 N,0,-1.7418535875,13.8249414189,-8.5718808025
 C,0,-1.0938497091,12.6865824941,-9.1932022273
 C,0,-1.6569370665,11.4057391241,-8.543407568
 O,0,-2.2371571347,11.4513130007,-7.4423618263
 C,0,0.4494251116,12.7707528088,-9.096922575
 C,0,1.1643266717,11.9653252358,-10.1836513102
 N,0,2.4335138861,12.338029323,-10.4479208035
 O,0,0.6284954033,11.0236628671,-10.7781012414
 H,0,-1.9790952176,13.6812538724,-7.5980533699
 H,0,-1.3710723458,12.7011208363,-10.251675186
 H,0,0.7186703375,13.8286782671,-9.1792446347
 H,0,0.8025886869,12.4319957354,-8.1137881555
 H,0,2.9446703423,11.8361501022,-11.1627534883
 H,0,2.8656633327,13.1483036674,-10.0287324759
 N,0,-1.5051112608,10.2665827394,-9.2471148199
 C,0,-1.8022278452,8.9547315687,-8.6516806505
 C,0,-3.27636526,8.9540480382,-8.2122104843
 O,0,-3.6887302567,8.5279668331,-7.154471277
 C,0,-0.8510956907,8.5726076322,-7.5082382611
 C,0,-0.8469048069,7.0653729,-7.1596082933
 C,0,-0.7397915735,6.8174153315,-5.6448081021
 N,0,-1.9918312679,7.1180977279,-4.9530567756
 C,0,-2.9025399559,6.0747686181,-4.7536071346
 N,0,-2.4914868449,4.8644733894,-4.6670576765
 N,0,-4.2158916535,6.5451940586,-4.5629522654
 O,0,-4.1490273646,9.5123716669,-9.0777849759
 H,0,-3.6733037092,9.91541079,-9.829205364
 H,0,-0.8173230468,10.3241550509,-10.0145198192
 H,0,-1.7134655908,8.2270216698,-9.4682045688
 H,0,-1.1204843945,9.1813407489,-6.6390362359
 H,0,0.1550351997,8.8882186843,-7.8053838383
 H,0,-1.7650562543,6.5796120079,-7.5111099338
 H,0,-0.0145774876,6.5771004838,-7.6798831449
 H,0,-0.5092955643,5.7712554757,-5.4399168671
 H,0,0.0651617006,7.4298750391,-5.217995784
 H,0,-2.4396739967,7.9607621815,-5.2916476135
 H,0,-3.259174432,4.216684816,-4.4914140554
 H,0,-4.9009770945,5.7986494626,-4.5488651477
 H,0,-4.4914708646,7.2705332606,-5.2181801026
 Recover connectivity data from disk.
                           ----------------------------
                           !    Current Parameters    !
                           ! (Angstroms and Degrees)  !
 --------------------------                            --------------------------
 ! Name  Definition              Value                                          !
 --------------------------------------------------------------------------------
 ! R1    R(1,2)                  1.5011                                         !
 ! R2    R(1,12)                 1.0295                                         !
 ! R3    R(1,13)                 1.0231                                         !
 ! R4    R(1,22)                 1.0382                                         !
 ! R5    R(2,3)                  1.545                                          !
 ! R6    R(2,5)                  1.5441                                         !
 ! R7    R(2,14)                 1.095                                          !
 ! R8    R(3,4)                  1.2296                                         !
 ! R9    R(3,23)                 1.3495                                         !
 ! R10   R(5,6)                  1.5157                                         !
 ! R11   R(5,15)                 1.0965                                         !
 ! R12   R(5,16)                 1.0948                                         !
 ! R13   R(6,7)                  1.4011                                         !
 ! R14   R(6,8)                  1.4038                                         !
 ! R15   R(7,9)                  1.3967                                         !
 ! R16   R(7,17)                 1.0884                                         !
 ! R17   R(8,10)                 1.3965                                         !
 ! R18   R(8,18)                 1.0888                                         !
 ! R19   R(9,11)                 1.3965                                         !
 ! R20   R(9,19)                 1.0861                                         !
 ! R21   R(10,11)                1.3967                                         !
 ! R22   R(10,20)                1.0851                                         !
 ! R23   R(11,21)                1.0853                                         !
 ! R24   R(23,24)                1.4723                                         !
 ! R25   R(23,31)                1.0114                                         !
 ! R26   R(24,25)                1.5419                                         !
 ! R27   R(24,27)                1.5384                                         !
 ! R28   R(24,32)                1.092                                          !
 ! R29   R(25,26)                1.2178                                         !
 ! R30   R(25,42)                1.3799                                         !
 ! R31   R(27,28)                1.5419                                         !
 ! R32   R(27,33)                1.0996                                         !
 ! R33   R(27,34)                1.1                                            !
 ! R34   R(28,29)                1.5355                                         !
 ! R35   R(28,30)                1.5353                                         !
 ! R36   R(28,35)                1.0987                                         !
 ! R37   R(29,36)                1.0951                                         !
 ! R38   R(29,37)                1.0939                                         !
 ! R39   R(29,38)                1.0981                                         !
 ! R40   R(30,39)                1.0949                                         !
 ! R41   R(30,40)                1.0974                                         !
 ! R42   R(30,41)                1.0968                                         !
 ! R43   R(42,43)                1.4498                                         !
 ! R44   R(42,50)                1.0126                                         !
 ! R45   R(43,44)                1.5427                                         !
 ! R46   R(43,46)                1.5486                                         !
 ! R47   R(43,51)                1.0943                                         !
 ! R48   R(44,45)                1.2454                                         !
 ! R49   R(44,56)                1.3476                                         !
 ! R50   R(46,47)                1.53                                           !
 ! R51   R(46,52)                1.0947                                         !
 ! R52   R(46,53)                1.0982                                         !
 ! R53   R(47,48)                1.3489                                         !
 ! R54   R(47,49)                1.2358                                         !
 ! R55   R(48,54)                1.012                                          !
 ! R56   R(48,55)                1.0095                                         !
 ! R57   R(56,57)                1.471                                          !
 ! R58   R(56,69)                1.0321                                         !
 ! R59   R(57,58)                1.5383                                         !
 ! R60   R(57,60)                1.5356                                         !
 ! R61   R(57,70)                1.0973                                         !
 ! R62   R(58,59)                1.2126                                         !
 ! R63   R(58,67)                1.35                                           !
 ! R64   R(60,61)                1.547                                          !
 ! R65   R(60,71)                1.0948                                         !
 ! R66   R(60,72)                1.0955                                         !
 ! R67   R(61,62)                1.5387                                         !
 ! R68   R(61,73)                1.0966                                         !
 ! R69   R(61,74)                1.0963                                         !
 ! R70   R(62,63)                1.4617                                         !
 ! R71   R(62,75)                1.0907                                         !
 ! R72   R(62,76)                1.0978                                         !
 ! R73   R(63,64)                1.3992                                         !
 ! R74   R(63,77)                1.0126                                         !
 ! R75   R(64,65)                1.2811                                         !
 ! R76   R(64,66)                1.408                                          !
 ! R77   R(65,78)                1.0197                                         !
 ! R78   R(66,79)                1.0133                                         !
 ! R79   R(66,80)                1.0156                                         !
 ! R80   R(67,68)                0.9764                                         !
 ! A1    A(2,1,12)             110.3343                                         !
 ! A2    A(2,1,13)             113.1068                                         !
 ! A3    A(2,1,22)             108.0993                                         !
 ! A4    A(12,1,13)            111.5698                                         !
 ! A5    A(12,1,22)            105.1471                                         !
 ! A6    A(13,1,22)            108.1864                                         !
 ! A7    A(1,2,3)              103.5111                                         !
 ! A8    A(1,2,5)              109.0729                                         !
 ! A9    A(1,2,14)             106.8314                                         !
 ! A10   A(3,2,5)              116.9401                                         !
 ! A11   A(3,2,14)             109.3515                                         !
 ! A12   A(5,2,14)             110.4846                                         !
 ! A13   A(2,3,4)              118.8172                                         !
 ! A14   A(2,3,23)             117.7898                                         !
 ! A15   A(4,3,23)             123.3255                                         !
 ! A16   A(2,5,6)              111.1749                                         !
 ! A17   A(2,5,15)             108.0989                                         !
 ! A18   A(2,5,16)             108.5829                                         !
 ! A19   A(6,5,15)             110.7074                                         !
 ! A20   A(6,5,16)             110.1526                                         !
 ! A21   A(15,5,16)            108.0285                                         !
 ! A22   A(5,6,7)              120.6506                                         !
 ! A23   A(5,6,8)              120.0326                                         !
 ! A24   A(7,6,8)              119.1168                                         !
 ! A25   A(6,7,9)              120.3377                                         !
 ! A26   A(6,7,17)             119.8631                                         !
 ! A27   A(9,7,17)             119.797                                          !
 ! A28   A(6,8,10)             120.5908                                         !
 ! A29   A(6,8,18)             119.509                                          !
 ! A30   A(10,8,18)            119.8998                                         !
 ! A31   A(7,9,11)             120.1193                                         !
 ! A32   A(7,9,19)             119.7108                                         !
 ! A33   A(11,9,19)            120.1699                                         !
 ! A34   A(8,10,11)            119.8048                                         !
 ! A35   A(8,10,20)            120.0457                                         !
 ! A36   A(11,10,20)           120.1386                                         !
 ! A37   A(9,11,10)            120.0259                                         !
 ! A38   A(9,11,21)            120.3331                                         !
 ! A39   A(10,11,21)           119.6407                                         !
 ! A40   A(3,23,24)            120.7715                                         !
 ! A41   A(3,23,31)            120.5499                                         !
 ! A42   A(24,23,31)           118.677                                          !
 ! A43   A(23,24,25)           110.8217                                         !
 ! A44   A(23,24,27)           109.2158                                         !
 ! A45   A(23,24,32)           108.7564                                         !
 ! A46   A(25,24,27)           112.1251                                         !
 ! A47   A(25,24,32)           104.9899                                         !
 ! A48   A(27,24,32)           110.8338                                         !
 ! A49   A(24,25,26)           121.3913                                         !
 ! A50   A(24,25,42)           115.3133                                         !
 ! A51   A(26,25,42)           123.2371                                         !
 ! A52   A(24,27,28)           115.1341                                         !
 ! A53   A(24,27,33)           107.838                                          !
 ! A54   A(24,27,34)           108.5177                                         !
 ! A55   A(28,27,33)           108.9398                                         !
 ! A56   A(28,27,34)           109.0422                                         !
 ! A57   A(33,27,34)           107.0751                                         !
 ! A58   A(27,28,29)           112.2949                                         !
 ! A59   A(27,28,30)           109.2115                                         !
 ! A60   A(27,28,35)           107.8916                                         !
 ! A61   A(29,28,30)           111.2399                                         !
 ! A62   A(29,28,35)           107.8924                                         !
 ! A63   A(30,28,35)           108.1624                                         !
 ! A64   A(28,29,36)           110.2959                                         !
 ! A65   A(28,29,37)           111.5788                                         !
 ! A66   A(28,29,38)           110.9778                                         !
 ! A67   A(36,29,37)           107.4432                                         !
 ! A68   A(36,29,38)           107.5311                                         !
 ! A69   A(37,29,38)           108.8622                                         !
 ! A70   A(28,30,39)           110.6651                                         !
 ! A71   A(28,30,40)           110.9177                                         !
 ! A72   A(28,30,41)           111.7679                                         !
 ! A73   A(39,30,40)           107.5915                                         !
 ! A74   A(39,30,41)           107.8571                                         !
 ! A75   A(40,30,41)           107.8762                                         !
 ! A76   A(25,42,43)           119.438                                          !
 ! A77   A(25,42,50)           116.2786                                         !
 ! A78   A(43,42,50)           113.921                                          !
 ! A79   A(42,43,44)           107.9548                                         !
 ! A80   A(42,43,46)           112.0936                                         !
 ! A81   A(42,43,51)           106.9106                                         !
 ! A82   A(44,43,46)           112.501                                          !
 ! A83   A(44,43,51)           109.0257                                         !
 ! A84   A(46,43,51)           108.1733                                         !
 ! A85   A(43,44,45)           120.8009                                         !
 ! A86   A(43,44,56)           116.1538                                         !
 ! A87   A(45,44,56)           123.0315                                         !
 ! A88   A(43,46,47)           113.1348                                         !
 ! A89   A(43,46,52)           107.0348                                         !
 ! A90   A(43,46,53)           111.0621                                         !
 ! A91   A(47,46,52)           109.901                                          !
 ! A92   A(47,46,53)           108.858                                          !
 ! A93   A(52,46,53)           106.6377                                         !
 ! A94   A(46,47,48)           115.6804                                         !
 ! A95   A(46,47,49)           122.6975                                         !
 ! A96   A(48,47,49)           121.6182                                         !
 ! A97   A(47,48,54)           118.4635                                         !
 ! A98   A(47,48,55)           122.903                                          !
 ! A99   A(54,48,55)           118.3697                                         !
 ! A100  A(44,56,57)           121.316                                          !
 ! A101  A(44,56,69)           114.5947                                         !
 ! A102  A(57,56,69)           119.0331                                         !
 ! A103  A(56,57,58)           108.0357                                         !
 ! A104  A(56,57,60)           113.4673                                         !
 ! A105  A(56,57,70)           105.8954                                         !
 ! A106  A(58,57,60)           112.3784                                         !
 ! A107  A(58,57,70)           106.8464                                         !
 ! A108  A(60,57,70)           109.8124                                         !
 ! A109  A(57,58,59)           125.1176                                         !
 ! A110  A(57,58,67)           115.8562                                         !
 ! A111  A(59,58,67)           118.9981                                         !
 ! A112  A(57,60,61)           114.3253                                         !
 ! A113  A(57,60,71)           107.4818                                         !
 ! A114  A(57,60,72)           107.1684                                         !
 ! A115  A(61,60,71)           111.3128                                         !
 ! A116  A(61,60,72)           109.8349                                         !
 ! A117  A(71,60,72)           106.3278                                         !
 ! A118  A(60,61,62)           112.2746                                         !
 ! A119  A(60,61,73)           110.9206                                         !
 ! A120  A(60,61,74)           109.2102                                         !
 ! A121  A(62,61,73)           107.6056                                         !
 ! A122  A(62,61,74)           110.0342                                         !
 ! A123  A(73,61,74)           106.6343                                         !
 ! A124  A(61,62,63)           111.9087                                         !
 ! A125  A(61,62,75)           110.7459                                         !
 ! A126  A(61,62,76)           110.1136                                         !
 ! A127  A(63,62,75)           106.824                                          !
 ! A128  A(63,62,76)           109.2266                                         !
 ! A129  A(75,62,76)           107.8861                                         !
 ! A130  A(62,63,64)           118.1383                                         !
 ! A131  A(62,63,77)           113.0659                                         !
 ! A132  A(64,63,77)           112.3548                                         !
 ! A133  A(63,64,65)           120.3472                                         !
 ! A134  A(63,64,66)           112.1661                                         !
 ! A135  A(65,64,66)           127.2839                                         !
 ! A136  A(64,65,78)           111.7296                                         !
 ! A137  A(64,66,79)           112.7275                                         !
 ! A138  A(64,66,80)           113.8516                                         !
 ! A139  A(79,66,80)           110.5907                                         !
 ! A140  A(58,67,68)           110.438                                          !
 ! D1    D(12,1,2,3)           -43.5641                                         !
 ! D2    D(12,1,2,5)          -168.7407                                         !
 ! D3    D(12,1,2,14)           71.8233                                         !
 ! D4    D(13,1,2,3)          -169.3238                                         !
 ! D5    D(13,1,2,5)            65.4995                                         !
 ! D6    D(13,1,2,14)          -53.9365                                         !
 ! D7    D(22,1,2,3)            70.9108                                         !
 ! D8    D(22,1,2,5)           -54.2659                                         !
 ! D9    D(22,1,2,14)         -173.7019                                         !
 ! D10   D(1,2,3,4)             25.8156                                         !
 ! D11   D(1,2,3,23)          -151.2967                                         !
 ! D12   D(5,2,3,4)            145.7558                                         !
 ! D13   D(5,2,3,23)           -31.3564                                         !
 ! D14   D(14,2,3,4)           -87.7638                                         !
 ! D15   D(14,2,3,23)           95.124                                          !
 ! D16   D(1,2,5,6)            -45.8966                                         !
 ! D17   D(1,2,5,15)          -167.6011                                         !
 ! D18   D(1,2,5,16)            75.4374                                         !
 ! D19   D(3,2,5,6)           -162.8336                                         !
 ! D20   D(3,2,5,15)            75.4618                                         !
 ! D21   D(3,2,5,16)           -41.4997                                         !
 ! D22   D(14,2,5,6)            71.247                                          !
 ! D23   D(14,2,5,15)          -50.4576                                         !
 ! D24   D(14,2,5,16)         -167.419                                          !
 ! D25   D(2,3,23,24)          174.3966                                         !
 ! D26   D(2,3,23,31)           -5.1482                                         !
 ! D27   D(4,3,23,24)           -2.5752                                         !
 ! D28   D(4,3,23,31)          177.88                                           !
 ! D29   D(2,5,6,7)            -75.8533                                         !
 ! D30   D(2,5,6,8)             98.9626                                         !
 ! D31   D(15,5,6,7)            44.3183                                         !
 ! D32   D(15,5,6,8)          -140.8659                                         !
 ! D33   D(16,5,6,7)           163.7358                                         !
 ! D34   D(16,5,6,8)           -21.4484                                         !
 ! D35   D(5,6,7,9)            174.7689                                         !
 ! D36   D(5,6,7,17)            -5.7857                                         !
 ! D37   D(8,6,7,9)             -0.094                                          !
 ! D38   D(8,6,7,17)           179.3515                                         !
 ! D39   D(5,6,8,10)          -174.814                                          !
 ! D40   D(5,6,8,18)             5.3931                                         !
 ! D41   D(7,6,8,10)             0.0812                                         !
 ! D42   D(7,6,8,18)          -179.7117                                         !
 ! D43   D(6,7,9,11)            -0.335                                          !
 ! D44   D(6,7,9,19)           179.641                                          !
 ! D45   D(17,7,9,11)         -179.7808                                         !
 ! D46   D(17,7,9,19)            0.1951                                         !
 ! D47   D(6,8,10,11)            0.3596                                         !
 ! D48   D(6,8,10,20)          179.1591                                         !
 ! D49   D(18,8,10,11)        -179.8483                                         !
 ! D50   D(18,8,10,20)          -1.0488                                         !
 ! D51   D(7,9,11,10)            0.7785                                         !
 ! D52   D(7,9,11,21)         -179.0199                                         !
 ! D53   D(19,9,11,10)        -179.1974                                         !
 ! D54   D(19,9,11,21)           1.0043                                         !
 ! D55   D(8,10,11,9)           -0.7889                                         !
 ! D56   D(8,10,11,21)         179.0108                                         !
 ! D57   D(20,10,11,9)        -179.5873                                         !
 ! D58   D(20,10,11,21)          0.2125                                         !
 ! D59   D(3,23,24,25)         -54.6655                                         !
 ! D60   D(3,23,24,27)        -178.671                                          !
 ! D61   D(3,23,24,32)          60.2563                                         !
 ! D62   D(31,23,24,25)        124.8877                                         !
 ! D63   D(31,23,24,27)          0.8823                                         !
 ! D64   D(31,23,24,32)       -120.1905                                         !
 ! D65   D(23,24,25,26)        143.3792                                         !
 ! D66   D(23,24,25,42)        -39.3126                                         !
 ! D67   D(27,24,25,26)        -94.295                                          !
 ! D68   D(27,24,25,42)         83.0131                                         !
 ! D69   D(32,24,25,26)         26.1238                                         !
 ! D70   D(32,24,25,42)       -156.5681                                         !
 ! D71   D(23,24,27,28)        177.5824                                         !
 ! D72   D(23,24,27,33)        -60.5742                                         !
 ! D73   D(23,24,27,34)         55.0888                                         !
 ! D74   D(25,24,27,28)         54.3481                                         !
 ! D75   D(25,24,27,33)        176.1915                                         !
 ! D76   D(25,24,27,34)        -68.1455                                         !
 ! D77   D(32,24,27,28)        -62.6175                                         !
 ! D78   D(32,24,27,33)         59.2258                                         !
 ! D79   D(32,24,27,34)        174.8888                                         !
 ! D80   D(24,25,42,43)        157.105                                          !
 ! D81   D(24,25,42,50)         14.174                                          !
 ! D82   D(26,25,42,43)        -25.6423                                         !
 ! D83   D(26,25,42,50)       -168.5732                                         !
 ! D84   D(24,27,28,29)         56.2573                                         !
 ! D85   D(24,27,28,30)       -179.8587                                         !
 ! D86   D(24,27,28,35)        -62.5128                                         !
 ! D87   D(33,27,28,29)        -64.9894                                         !
 ! D88   D(33,27,28,30)         58.8946                                         !
 ! D89   D(33,27,28,35)        176.2405                                         !
 ! D90   D(34,27,28,29)        178.4693                                         !
 ! D91   D(34,27,28,30)        -57.6467                                         !
 ! D92   D(34,27,28,35)         59.6992                                         !
 ! D93   D(27,28,29,36)        174.208                                          !
 ! D94   D(27,28,29,37)        -66.454                                          !
 ! D95   D(27,28,29,38)         55.1457                                         !
 ! D96   D(30,28,29,36)         51.4612                                         !
 ! D97   D(30,28,29,37)        170.7991                                         !
 ! D98   D(30,28,29,38)        -67.6011                                         !
 ! D99   D(35,28,29,36)        -67.0224                                         !
 ! D100  D(35,28,29,37)         52.3155                                         !
 ! D101  D(35,28,29,38)        173.9153                                         !
 ! D102  D(27,28,30,39)        176.5164                                         !
 ! D103  D(27,28,30,40)        -64.1454                                         !
 ! D104  D(27,28,30,41)         56.2841                                         !
 ! D105  D(29,28,30,39)        -58.9796                                         !
 ! D106  D(29,28,30,40)         60.3586                                         !
 ! D107  D(29,28,30,41)       -179.2119                                         !
 ! D108  D(35,28,30,39)         59.3415                                         !
 ! D109  D(35,28,30,40)        178.6797                                         !
 ! D110  D(35,28,30,41)        -60.8908                                         !
 ! D111  D(25,42,43,44)       -111.2571                                         !
 ! D112  D(25,42,43,46)        124.2911                                         !
 ! D113  D(25,42,43,51)          5.9164                                         !
 ! D114  D(50,42,43,44)         32.4958                                         !
 ! D115  D(50,42,43,46)        -91.956                                          !
 ! D116  D(50,42,43,51)        149.6694                                         !
 ! D117  D(42,43,44,45)        -18.7591                                         !
 ! D118  D(42,43,44,56)        159.9305                                         !
 ! D119  D(46,43,44,45)        105.4481                                         !
 ! D120  D(46,43,44,56)        -75.8624                                         !
 ! D121  D(51,43,44,45)       -134.5559                                         !
 ! D122  D(51,43,44,56)         44.1337                                         !
 ! D123  D(42,43,46,47)       -156.0757                                         !
 ! D124  D(42,43,46,52)        -34.8736                                         !
 ! D125  D(42,43,46,53)         81.1594                                         !
 ! D126  D(44,43,46,47)         82.0363                                         !
 ! D127  D(44,43,46,52)       -156.7616                                         !
 ! D128  D(44,43,46,53)        -40.7286                                         !
 ! D129  D(51,43,46,47)        -38.4518                                         !
 ! D130  D(51,43,46,52)         82.7503                                         !
 ! D131  D(51,43,46,53)       -161.2166                                         !
 ! D132  D(43,44,56,57)        170.1689                                         !
 ! D133  D(43,44,56,69)         15.5827                                         !
 ! D134  D(45,44,56,57)        -11.1738                                         !
 ! D135  D(45,44,56,69)       -165.76                                           !
 ! D136  D(43,46,47,48)        158.3437                                         !
 ! D137  D(43,46,47,49)        -22.36                                           !
 ! D138  D(52,46,47,48)         38.7744                                         !
 ! D139  D(52,46,47,49)       -141.9293                                         !
 ! D140  D(53,46,47,48)        -77.676                                          !
 ! D141  D(53,46,47,49)        101.6203                                         !
 ! D142  D(46,47,48,54)       -179.7245                                         !
 ! D143  D(46,47,48,55)         -5.7262                                         !
 ! D144  D(49,47,48,54)          0.971                                          !
 ! D145  D(49,47,48,55)        174.9693                                         !
 ! D146  D(44,56,57,58)         59.0556                                         !
 ! D147  D(44,56,57,60)        -66.2444                                         !
 ! D148  D(44,56,57,70)        173.2367                                         !
 ! D149  D(69,56,57,58)       -147.451                                          !
 ! D150  D(69,56,57,60)         87.249                                          !
 ! D151  D(69,56,57,70)        -33.2698                                         !
 ! D152  D(56,57,58,59)       -135.7412                                         !
 ! D153  D(56,57,58,67)         42.3052                                         !
 ! D154  D(60,57,58,59)         -9.7986                                         !
 ! D155  D(60,57,58,67)        168.2479                                         !
 ! D156  D(70,57,58,59)        110.7091                                         !
 ! D157  D(70,57,58,67)        -71.2445                                         !
 ! D158  D(56,57,60,61)       -162.1278                                         !
 ! D159  D(56,57,60,71)         73.7777                                         !
 ! D160  D(56,57,60,72)        -40.1632                                         !
 ! D161  D(58,57,60,61)         74.9321                                         !
 ! D162  D(58,57,60,71)        -49.1624                                         !
 ! D163  D(58,57,60,72)       -163.1033                                         !
 ! D164  D(70,57,60,61)        -43.8488                                         !
 ! D165  D(70,57,60,71)       -167.9432                                         !
 ! D166  D(70,57,60,72)         78.1158                                         !
 ! D167  D(57,58,67,68)         -5.5843                                         !
 ! D168  D(59,58,67,68)        172.5888                                         !
 ! D169  D(57,60,61,62)       -141.5238                                         !
 ! D170  D(57,60,61,73)        -21.0924                                         !
 ! D171  D(57,60,61,74)         96.1486                                         !
 ! D172  D(71,60,61,62)        -19.5025                                         !
 ! D173  D(71,60,61,73)        100.9289                                         !
 ! D174  D(71,60,61,74)       -141.8301                                         !
 ! D175  D(72,60,61,62)         97.9835                                         !
 ! D176  D(72,60,61,73)       -141.5851                                         !
 ! D177  D(72,60,61,74)        -24.3442                                         !
 ! D178  D(60,61,62,63)         73.9394                                         !
 ! D179  D(60,61,62,75)       -166.9872                                         !
 ! D180  D(60,61,62,76)        -47.7472                                         !
 ! D181  D(73,61,62,63)        -48.3916                                         !
 ! D182  D(73,61,62,75)         70.6818                                         !
 ! D183  D(73,61,62,76)       -170.0782                                         !
 ! D184  D(74,61,62,63)       -164.2014                                         !
 ! D185  D(74,61,62,75)        -45.128                                          !
 ! D186  D(74,61,62,76)         74.112                                          !
 ! D187  D(61,62,63,64)         92.7477                                         !
 ! D188  D(61,62,63,77)        -41.402                                          !
 ! D189  D(75,62,63,64)        -28.6166                                         !
 ! D190  D(75,62,63,77)       -162.7662                                         !
 ! D191  D(76,62,63,64)       -145.057                                          !
 ! D192  D(76,62,63,77)         80.7933                                         !
 ! D193  D(62,63,64,65)         27.4238                                         !
 ! D194  D(62,63,64,66)       -157.3856                                         !
 ! D195  D(77,63,64,65)        161.8784                                         !
 ! D196  D(77,63,64,66)        -22.931                                          !
 ! D197  D(63,64,65,78)        178.0929                                         !
 ! D198  D(66,64,65,78)          3.6931                                         !
 ! D199  D(63,64,66,79)        171.8704                                         !
 ! D200  D(63,64,66,80)         44.8501                                         !
 ! D201  D(65,64,66,79)        -13.3471                                         !
 ! D202  D(65,64,66,80)       -140.3674                                         !
 --------------------------------------------------------------------------------
 Symmetry turned off by external request.
 Stoichiometry    C25H41N8O6(1+)
 Framework group  C1[X(C25H41N8O6)]
 Deg. of freedom   234
 Full point group                 C1      NOp   1
                          Input orientation:                          
 ---------------------------------------------------------------------
 Center     Atomic      Atomic             Coordinates (Angstroms)
 Number     Number       Type             X           Y           Z
 ---------------------------------------------------------------------
      1          7           0       -4.887110   11.130673   -6.728446
      2          6           0       -5.033851   12.552607   -6.270288
      3          6           0       -4.668398   13.375855   -7.525585
      4          8           0       -4.825403   12.867528   -8.634157
      5          6           0       -4.163789   12.770059   -5.013373
      6          6           0       -4.343794   11.639039   -4.020524
      7          6           0       -5.497193   11.560222   -3.228991
      8          6           0       -3.403339   10.598438   -3.962850
      9          6           0       -5.707199   10.459044   -2.395944
     10          6           0       -3.612231    9.497090   -3.130043
     11          6           0       -4.770074    9.424572   -2.352239
     12          1           0       -5.303425   11.010959   -7.662417
     13          1           0       -5.261705   10.452731   -6.059942
     14          1           0       -6.092547   12.701930   -6.034004
     15          1           0       -4.447853   13.729125   -4.564218
     16          1           0       -3.115613   12.837718   -5.322064
     17          1           0       -6.229264   12.365201   -3.256269
     18          1           0       -2.502488   10.655372   -4.571698
     19          1           0       -6.602084   10.411186   -1.782282
     20          1           0       -2.886095    8.691262   -3.102571
     21          1           0       -4.937414    8.559849   -1.718130
     22          1           0       -3.875339   10.935488   -6.855379
     23          7           0       -4.134629   14.601426   -7.340805
     24          6           0       -3.649306   15.391827   -8.484178
     25          6           0       -2.623040   14.589408   -9.309008
     26          8           0       -2.576438   14.677711  -10.522748
     27          6           0       -3.068340   16.720692   -7.970944
     28          6           0       -2.464717   17.634289   -9.056556
     29          6           0       -3.472440   17.963232  -10.167439
     30          6           0       -1.925278   18.912333   -8.398648
     31          1           0       -4.054039   14.992264   -6.411467
     32          1           0       -4.482768   15.570215   -9.166753
     33          1           0       -3.873594   17.263444   -7.454985
     34          1           0       -2.296373   16.497532   -7.219765
     35          1           0       -1.619693   17.101807   -9.514218
     36          1           0       -3.045532   18.692708  -10.863746
     37          1           0       -3.737754   17.073698  -10.746283
     38          1           0       -4.388646   18.401396   -9.749942
     39          1           0       -1.435418   19.551617   -9.140423
     40          1           0       -2.738752   19.493189   -7.945682
     41          1           0       -1.193858   18.687699   -7.612750
     42          7           0       -1.741854   13.824941   -8.571881
     43          6           0       -1.093850   12.686582   -9.193202
     44          6           0       -1.656937   11.405739   -8.543408
     45          8           0       -2.237157   11.451313   -7.442362
     46          6           0        0.449425   12.770753   -9.096923
     47          6           0        1.164327   11.965325  -10.183651
     48          7           0        2.433514   12.338029  -10.447921
     49          8           0        0.628495   11.023663  -10.778101
     50          1           0       -1.979095   13.681254   -7.598053
     51          1           0       -1.371072   12.701121  -10.251675
     52          1           0        0.718670   13.828678   -9.179245
     53          1           0        0.802589   12.431996   -8.113788
     54          1           0        2.944670   11.836150  -11.162753
     55          1           0        2.865663   13.148304  -10.028732
     56          7           0       -1.505111   10.266583   -9.247115
     57          6           0       -1.802228    8.954732   -8.651681
     58          6           0       -3.276365    8.954048   -8.212210
     59          8           0       -3.688730    8.527967   -7.154471
     60          6           0       -0.851096    8.572608   -7.508238
     61          6           0       -0.846905    7.065373   -7.159608
     62          6           0       -0.739792    6.817415   -5.644808
     63          7           0       -1.991831    7.118098   -4.953057
     64          6           0       -2.902540    6.074769   -4.753607
     65          7           0       -2.491487    4.864473   -4.667058
     66          7           0       -4.215892    6.545194   -4.562952
     67          8           0       -4.149027    9.512372   -9.077785
     68          1           0       -3.673304    9.915411   -9.829205
     69          1           0       -0.817323   10.324155  -10.014520
     70          1           0       -1.713466    8.227022   -9.468205
     71          1           0       -1.120484    9.181341   -6.639036
     72          1           0        0.155035    8.888219   -7.805384
     73          1           0       -1.765056    6.579612   -7.511110
     74          1           0       -0.014577    6.577100   -7.679883
     75          1           0       -0.509296    5.771255   -5.439917
     76          1           0        0.065162    7.429875   -5.217996
     77          1           0       -2.439674    7.960762   -5.291648
     78          1           0       -3.259174    4.216685   -4.491414
     79          1           0       -4.900977    5.798649   -4.548865
     80          1           0       -4.491471    7.270533   -5.218180
 ---------------------------------------------------------------------
 Rotational constants (GHZ):           0.1270267           0.0633129           0.0478751
 Standard basis: 6-31G(d) (6D, 7F)
   667 basis functions,  1256 primitive gaussians,   667 cartesian basis functions
   147 alpha electrons      147 beta electrons
       nuclear repulsion energy      4936.9870755114 Hartrees.
 NAtoms=   80 NActive=   80 NUniq=   80 SFac= 1.00D+00 NAtFMM=   60 NAOKFM=T Big=T
 Integral buffers will be    131072 words long.
 Raffenetti 2 integral format.
 Two-electron integral symmetry is turned off.
 Nuclear repulsion after empirical dispersion term =     4936.8708771778 Hartrees.
 One-electron integrals computed using PRISM.
 NBasis=   667 RedAO= T EigKep=  4.63D-04  NBF=   667
 NBsUse=   667 1.00D-06 EigRej= -1.00D+00 NBFU=   667
 Initial guess from the checkpoint file:  "conf-418.chk"
 B after Tr=     0.000000    0.000000    0.000000
         Rot=    1.000000    0.000000    0.000000    0.000000 Ang=   0.00 deg.
 Requested convergence on RMS density matrix=1.00D-08 within 128 cycles.
 Requested convergence on MAX density matrix=1.00D-06.
 Requested convergence on             energy=1.00D-06.
 No special actions if energy rises.
 SCF Done:  E(RB3LYP) =  -1866.71289972     A.U. after    3 cycles
            NFock=  3  Conv=0.93D-09     -V/T= 2.0094

 **********************************************************************

            Population analysis using the SCF Density.

 **********************************************************************

 Alpha  occ. eigenvalues --  -19.32633 -19.27303 -19.27007 -19.25580 -19.24018
 Alpha  occ. eigenvalues --  -19.22248 -14.56751 -14.49984 -14.49199 -14.47457
 Alpha  occ. eigenvalues --  -14.46650 -14.41225 -14.40803 -14.34348 -10.45493
 Alpha  occ. eigenvalues --  -10.43061 -10.42995 -10.41563 -10.39416 -10.39409
 Alpha  occ. eigenvalues --  -10.36848 -10.35850 -10.34527 -10.34159 -10.33280
 Alpha  occ. eigenvalues --  -10.32320 -10.30944 -10.29614 -10.29514 -10.29447
 Alpha  occ. eigenvalues --  -10.29427 -10.28938 -10.28444 -10.28386 -10.28161
 Alpha  occ. eigenvalues --  -10.27669 -10.27234 -10.25112 -10.24559  -1.23614
 Alpha  occ. eigenvalues --   -1.18446  -1.17880  -1.15541  -1.15159  -1.14285
 Alpha  occ. eigenvalues --   -1.11987  -1.06264  -1.06100  -1.03721  -1.03531
 Alpha  occ. eigenvalues --   -1.02320  -0.96425  -0.95295  -0.92624  -0.91589
 Alpha  occ. eigenvalues --   -0.90516  -0.90231  -0.89032  -0.86123  -0.84552
 Alpha  occ. eigenvalues --   -0.83922  -0.83732  -0.79823  -0.78614  -0.76682
 Alpha  occ. eigenvalues --   -0.76175  -0.75452  -0.74216  -0.73182  -0.72479
 Alpha  occ. eigenvalues --   -0.71893  -0.70920  -0.70206  -0.69906  -0.69609
 Alpha  occ. eigenvalues --   -0.69193  -0.68806  -0.67545  -0.65707  -0.64986
 Alpha  occ. eigenvalues --   -0.64891  -0.64238  -0.63893  -0.61914  -0.61456
 Alpha  occ. eigenvalues --   -0.61268  -0.60525  -0.59781  -0.59462  -0.59161
 Alpha  occ. eigenvalues --   -0.59027  -0.58054  -0.57373  -0.57246  -0.56402
 Alpha  occ. eigenvalues --   -0.56289  -0.56089  -0.55738  -0.55114  -0.55079
 Alpha  occ. eigenvalues --   -0.54487  -0.53758  -0.53430  -0.53044  -0.52602
 Alpha  occ. eigenvalues --   -0.52042  -0.51820  -0.51649  -0.51403  -0.51121
 Alpha  occ. eigenvalues --   -0.50759  -0.50492  -0.49850  -0.49638  -0.49594
 Alpha  occ. eigenvalues --   -0.49071  -0.48515  -0.48371  -0.47448  -0.46475
 Alpha  occ. eigenvalues --   -0.46287  -0.46037  -0.45905  -0.45264  -0.44825
 Alpha  occ. eigenvalues --   -0.44448  -0.44181  -0.43772  -0.43505  -0.42507
 Alpha  occ. eigenvalues --   -0.41680  -0.41491  -0.41071  -0.40846  -0.40643
 Alpha  occ. eigenvalues --   -0.39873  -0.39536  -0.39208  -0.38647  -0.38087
 Alpha  occ. eigenvalues --   -0.36754  -0.35325  -0.35266  -0.34893  -0.33481
 Alpha  occ. eigenvalues --   -0.31053  -0.28601
 Alpha virt. eigenvalues --   -0.13156  -0.12937  -0.12024  -0.10668  -0.10421
 Alpha virt. eigenvalues --   -0.09520  -0.08530  -0.06244  -0.04886  -0.03880
 Alpha virt. eigenvalues --   -0.03184  -0.02829  -0.01813  -0.01344  -0.00742
 Alpha virt. eigenvalues --   -0.00152  -0.00007   0.00247   0.00621   0.00850
 Alpha virt. eigenvalues --    0.01707   0.01969   0.02435   0.02963   0.02992
 Alpha virt. eigenvalues --    0.03100   0.03624   0.03711   0.04696   0.04909
 Alpha virt. eigenvalues --    0.05279   0.05532   0.05915   0.06081   0.06392
 Alpha virt. eigenvalues --    0.06843   0.07017   0.07306   0.07687   0.07924
 Alpha virt. eigenvalues --    0.08487   0.08676   0.08877   0.09249   0.09552
 Alpha virt. eigenvalues --    0.09730   0.10176   0.10507   0.11101   0.11410
 Alpha virt. eigenvalues --    0.11936   0.12066   0.12296   0.12448   0.12720
 Alpha virt. eigenvalues --    0.12937   0.13114   0.14034   0.14199   0.14550
 Alpha virt. eigenvalues --    0.15185   0.15384   0.15694   0.16680   0.16989
 Alpha virt. eigenvalues --    0.17170   0.17589   0.18739   0.18870   0.19857
 Alpha virt. eigenvalues --    0.20529   0.21710   0.22313   0.22379   0.22863
 Alpha virt. eigenvalues --    0.23003   0.24085   0.24877   0.25254   0.25751
 Alpha virt. eigenvalues --    0.26835   0.27958   0.28531   0.29816   0.30353
 Alpha virt. eigenvalues --    0.31605   0.33683   0.36614   0.37215   0.37660
 Alpha virt. eigenvalues --    0.38342   0.39552   0.39961   0.41189   0.41387
 Alpha virt. eigenvalues --    0.42035   0.42089   0.42519   0.43505   0.43691
 Alpha virt. eigenvalues --    0.43935   0.44249   0.44465   0.44547   0.45241
 Alpha virt. eigenvalues --    0.45530   0.45884   0.46421   0.46668   0.47252
 Alpha virt. eigenvalues --    0.47620   0.48116   0.48239   0.48520   0.49560
 Alpha virt. eigenvalues --    0.49768   0.50260   0.50485   0.50660   0.51036
 Alpha virt. eigenvalues --    0.51483   0.52028   0.52347   0.52471   0.52708
 Alpha virt. eigenvalues --    0.53171   0.53717   0.54003   0.54404   0.54967
 Alpha virt. eigenvalues --    0.55282   0.55465   0.55993   0.56362   0.56788
 Alpha virt. eigenvalues --    0.56983   0.57301   0.57610   0.57702   0.58423
 Alpha virt. eigenvalues --    0.59012   0.59525   0.60074   0.60318   0.61088
 Alpha virt. eigenvalues --    0.61874   0.62353   0.63310   0.63702   0.63798
 Alpha virt. eigenvalues --    0.64415   0.65318   0.66080   0.66536   0.67208
 Alpha virt. eigenvalues --    0.68015   0.68325   0.68656   0.69060   0.69116
 Alpha virt. eigenvalues --    0.69440   0.70153   0.70402   0.70838   0.71218
 Alpha virt. eigenvalues --    0.71521   0.72622   0.73035   0.73334   0.74002
 Alpha virt. eigenvalues --    0.74363   0.74764   0.75053   0.75227   0.75597
 Alpha virt. eigenvalues --    0.75806   0.76056   0.76351   0.76692   0.77020
 Alpha virt. eigenvalues --    0.77377   0.77764   0.78030   0.78181   0.78544
 Alpha virt. eigenvalues --    0.79132   0.79588   0.80155   0.80533   0.80754
 Alpha virt. eigenvalues --    0.81425   0.81522   0.81947   0.82666   0.82845
 Alpha virt. eigenvalues --    0.83005   0.83446   0.83860   0.83911   0.84210
 Alpha virt. eigenvalues --    0.85151   0.85278   0.85409   0.86016   0.86165
 Alpha virt. eigenvalues --    0.86493   0.86821   0.87173   0.87960   0.88222
 Alpha virt. eigenvalues --    0.88499   0.89082   0.89825   0.90237   0.91045
 Alpha virt. eigenvalues --    0.91275   0.91814   0.92067   0.92550   0.93351
 Alpha virt. eigenvalues --    0.94272   0.94757   0.94997   0.96133   0.97004
 Alpha virt. eigenvalues --    0.97592   0.97927   0.98641   1.00325   1.01267
 Alpha virt. eigenvalues --    1.01665   1.02151   1.03041   1.03676   1.04141
 Alpha virt. eigenvalues --    1.04661   1.05882   1.06389   1.06884   1.07178
 Alpha virt. eigenvalues --    1.07796   1.08788   1.09742   1.10692   1.11162
 Alpha virt. eigenvalues --    1.12256   1.13199   1.13907   1.14091   1.14793
 Alpha virt. eigenvalues --    1.16441   1.17047   1.17498   1.18302   1.19368
 Alpha virt. eigenvalues --    1.20145   1.20675   1.21316   1.22024   1.23288
 Alpha virt. eigenvalues --    1.24222   1.24863   1.26379   1.26923   1.27135
 Alpha virt. eigenvalues --    1.28108   1.28966   1.29551   1.29943   1.30383
 Alpha virt. eigenvalues --    1.30667   1.31793   1.32544   1.34215   1.34999
 Alpha virt. eigenvalues --    1.35321   1.35709   1.36171   1.37238   1.37863
 Alpha virt. eigenvalues --    1.38566   1.38922   1.39397   1.40114   1.40539
 Alpha virt. eigenvalues --    1.40878   1.41683   1.42558   1.43891   1.45832
 Alpha virt. eigenvalues --    1.45851   1.47655   1.49063   1.50151   1.51070
 Alpha virt. eigenvalues --    1.53046   1.53609   1.54014   1.54890   1.55380
 Alpha virt. eigenvalues --    1.56720   1.57080   1.58742   1.59806   1.60353
 Alpha virt. eigenvalues --    1.60577   1.62225   1.63020   1.63549   1.63763
 Alpha virt. eigenvalues --    1.64268   1.64922   1.65023   1.66226   1.66403
 Alpha virt. eigenvalues --    1.66681   1.67875   1.68214   1.68847   1.69146
 Alpha virt. eigenvalues --    1.70084   1.70194   1.70941   1.71598   1.71679
 Alpha virt. eigenvalues --    1.72375   1.72674   1.73454   1.74378   1.74520
 Alpha virt. eigenvalues --    1.74973   1.75606   1.75989   1.76325   1.77384
 Alpha virt. eigenvalues --    1.78254   1.79186   1.79416   1.79741   1.80318
 Alpha virt. eigenvalues --    1.80789   1.82208   1.82342   1.82598   1.82919
 Alpha virt. eigenvalues --    1.83436   1.83725   1.85234   1.85605   1.86208
 Alpha virt. eigenvalues --    1.87330   1.87790   1.88066   1.88853   1.89111
 Alpha virt. eigenvalues --    1.89647   1.90061   1.90619   1.91213   1.91620
 Alpha virt. eigenvalues --    1.92224   1.93230   1.93881   1.94499   1.95074
 Alpha virt. eigenvalues --    1.95193   1.96016   1.96275   1.96746   1.97645
 Alpha virt. eigenvalues --    1.98278   1.99166   1.99770   2.01455   2.01905
 Alpha virt. eigenvalues --    2.02293   2.03131   2.03233   2.04358   2.05037
 Alpha virt. eigenvalues --    2.05251   2.07614   2.07853   2.09428   2.09630
 Alpha virt. eigenvalues --    2.09898   2.11446   2.12391   2.12625   2.13323
 Alpha virt. eigenvalues --    2.14637   2.15737   2.16442   2.17353   2.17816
 Alpha virt. eigenvalues --    2.18399   2.19345   2.20246   2.20762   2.20914
 Alpha virt. eigenvalues --    2.21800   2.23448   2.23581   2.24233   2.24431
 Alpha virt. eigenvalues --    2.25845   2.27262   2.28371   2.29124   2.30477
 Alpha virt. eigenvalues --    2.31101   2.31457   2.32069   2.32577   2.33593
 Alpha virt. eigenvalues --    2.33779   2.34451   2.35375   2.36231   2.36583
 Alpha virt. eigenvalues --    2.37450   2.38522   2.39771   2.40533   2.41691
 Alpha virt. eigenvalues --    2.42695   2.44052   2.45631   2.46349   2.46402
 Alpha virt. eigenvalues --    2.46709   2.48115   2.48447   2.49463   2.49640
 Alpha virt. eigenvalues --    2.50388   2.50730   2.50748   2.51213   2.53285
 Alpha virt. eigenvalues --    2.53371   2.55327   2.55642   2.55905   2.56835
 Alpha virt. eigenvalues --    2.57269   2.58367   2.60856   2.61811   2.63117
 Alpha virt. eigenvalues --    2.63368   2.64188   2.64717   2.65096   2.66113
 Alpha virt. eigenvalues --    2.67375   2.68132   2.69982   2.70758   2.72438
 Alpha virt. eigenvalues --    2.73176   2.74718   2.77064   2.77719   2.81689
 Alpha virt. eigenvalues --    2.82561   2.84842   2.89278   2.90760   2.92179
 Alpha virt. eigenvalues --    2.92687   2.93578   2.94475   2.95756   2.96144
 Alpha virt. eigenvalues --    2.96221   2.98409   3.01493   3.06162   3.06931
 Alpha virt. eigenvalues --    3.30730   3.69735   3.76510   3.79003   3.81338
 Alpha virt. eigenvalues --    3.85603   3.87532   3.90820   3.93960   3.95985
 Alpha virt. eigenvalues --    3.98702   3.99827   4.01149   4.03606   4.04189
 Alpha virt. eigenvalues --    4.07420   4.08301   4.09618   4.13152   4.15368
 Alpha virt. eigenvalues --    4.19569   4.20353   4.22028   4.22331   4.23912
 Alpha virt. eigenvalues --    4.25601   4.28692   4.31044   4.32174   4.34173
 Alpha virt. eigenvalues --    4.37153   4.40931   4.44902   4.47236   4.50399
 Alpha virt. eigenvalues --    4.50839   4.55636   4.57824   4.61535   4.62353
          Condensed to atoms (all electrons):
 Mulliken charges:
               1
     1  N   -0.778233
     2  C   -0.104223
     3  C    0.661695
     4  O   -0.527309
     5  C   -0.396752
     6  C    0.123025
     7  C   -0.191079
     8  C   -0.226128
     9  C   -0.128336
    10  C   -0.131273
    11  C   -0.124302
    12  H    0.426248
    13  H    0.411777
    14  H    0.222466
    15  H    0.180281
    16  H    0.187241
    17  H    0.137937
    18  H    0.147185
    19  H    0.160493
    20  H    0.195569
    21  H    0.168463
    22  H    0.462241
    23  N   -0.656440
    24  C   -0.017233
    25  C    0.618435
    26  O   -0.492457
    27  C   -0.309092
    28  C   -0.080401
    29  C   -0.463225
    30  C   -0.446740
    31  H    0.352476
    32  H    0.210385
    33  H    0.156655
    34  H    0.137351
    35  H    0.145527
    36  H    0.161432
    37  H    0.174907
    38  H    0.141190
    39  H    0.162900
    40  H    0.150186
    41  H    0.141022
    42  N   -0.602198
    43  C   -0.069484
    44  C    0.622352
    45  O   -0.589139
    46  C   -0.390211
    47  C    0.635707
    48  N   -0.732775
    49  O   -0.534157
    50  H    0.338999
    51  H    0.224999
    52  H    0.199911
    53  H    0.194299
    54  H    0.370659
    55  H    0.361254
    56  N   -0.650529
    57  C   -0.079449
    58  C    0.628892
    59  O   -0.485472
    60  C   -0.275712
    61  C   -0.281956
    62  C   -0.154131
    63  N   -0.596899
    64  C    0.576904
    65  N   -0.637043
    66  N   -0.767324
    67  O   -0.574201
    68  H    0.444009
    69  H    0.411892
    70  H    0.207198
    71  H    0.163317
    72  H    0.159186
    73  H    0.158818
    74  H    0.157819
    75  H    0.215156
    76  H    0.141433
    77  H    0.322160
    78  H    0.275301
    79  H    0.322955
    80  H    0.323596
 Sum of Mulliken charges =   1.00000
 Mulliken charges with hydrogens summed into heavy atoms:
               1
     1  N    0.522033
     2  C    0.118243
     3  C    0.661695
     4  O   -0.527309
     5  C   -0.029231
     6  C    0.123025
     7  C   -0.053142
     8  C   -0.078943
     9  C    0.032157
    10  C    0.064296
    11  C    0.044161
    23  N   -0.303965
    24  C    0.193152
    25  C    0.618435
    26  O   -0.492457
    27  C   -0.015086
    28  C    0.065126
    29  C    0.014303
    30  C    0.007368
    42  N   -0.263199
    43  C    0.155515
    44  C    0.622352
    45  O   -0.589139
    46  C    0.003999
    47  C    0.635707
    48  N   -0.000862
    49  O   -0.534157
    56  N   -0.238637
    57  C    0.127749
    58  C    0.628892
    59  O   -0.485472
    60  C    0.046791
    61  C    0.034681
    62  C    0.202458
    63  N   -0.274739
    64  C    0.576904
    65  N   -0.361742
    66  N   -0.120773
    67  O   -0.130191
 Electronic spatial extent (au):  <R**2>=         223904.1832
 Charge=              1.0000 electrons
 Dipole moment (field-independent basis, Debye):
    X=            -12.7735    Y=             60.3017    Z=            -34.9455  Tot=             70.8565
 Quadrupole moment (field-independent basis, Debye-Ang):
   XX=           -127.6670   YY=            553.4558   ZZ=             35.0563
   XY=           -143.2347   XZ=             50.7008   YZ=           -426.1612
 Traceless Quadrupole moment (field-independent basis, Debye-Ang):
   XX=           -281.2820   YY=            399.8408   ZZ=           -118.5587
   XY=           -143.2347   XZ=             50.7008   YZ=           -426.1612
 Octapole moment (field-independent basis, Debye-Ang**2):
  XXX=           1381.2496  YYY=           2681.0297  ZZZ=           2905.4482  XYY=          -1162.5817
  XXY=          -1491.9759  XXZ=           1076.7902  XZZ=            514.9766  YZZ=            468.2558
  YYZ=          -3816.0493  XYZ=            535.2065
 Hexadecapole moment (field-independent basis, Debye-Ang**3):
 XXXX=         -12163.5839 YYYY=         -48903.3982 ZZZZ=         -63218.0088 XXXY=          16435.6796
 XXXZ=          -9560.2416 YYYX=          -2475.8356 YYYZ=         -14421.4340 ZZZX=         -13041.4167
 ZZZY=          36669.9399 XXYY=         -21660.4333 XXZZ=         -12018.2373 YYZZ=          -7348.3425
 XXYZ=          13243.5956 YYXZ=           2770.0891 ZZXY=           6818.5909
 N-N= 4.936870877178D+03 E-N=-1.418961120656D+04  KE= 1.849291384066D+03
 Unable to Open any file for archive entry.
 1\1\GINC-LAC-314\SP\RB3LYP\6-31G(d)\C25H41N8O6(1+)\KENGMITH\11-Jun-202
 2\0\\# B3LYP/6-31G* empiricaldispersion=gd3 guess=read geom=check nosy
 mm integral(ultrafinegrid)\\Candidate Structure: Conf:418 Charge calc 
 in gas phase\\1,1\N,0,-4.8871097014,11.1306728593,-6.7284456034\C,0,-5
 .0338510838,12.5526067324,-6.2702880442\C,0,-4.6683976295,13.375854787
 8,-7.5255845182\O,0,-4.8254030491,12.8675276854,-8.6341566507\C,0,-4.1
 637886616,12.7700588464,-5.0133727545\C,0,-4.3437944079,11.639039392,-
 4.0205243962\C,0,-5.497192762,11.5602222625,-3.2289914285\C,0,-3.40333
 86392,10.5984376842,-3.9628501152\C,0,-5.7071992786,10.4590436665,-2.3
 959440242\C,0,-3.6122308267,9.4970900154,-3.1300428317\C,0,-4.77007368
 37,9.4245723945,-2.3522393109\H,0,-5.3034251121,11.0109593429,-7.66241
 72269\H,0,-5.2617050531,10.4527310741,-6.0599416645\H,0,-6.0925467736,
 12.7019297991,-6.0340044035\H,0,-4.4478525674,13.7291245856,-4.5642175
 542\H,0,-3.115613229,12.8377183789,-5.3220637979\H,0,-6.2292635548,12.
 3652007216,-3.256269386\H,0,-2.502487519,10.655372124,-4.5716979383\H,
 0,-6.6020837198,10.4111864216,-1.7822820278\H,0,-2.8860954734,8.691262
 4364,-3.1025712572\H,0,-4.9374144413,8.5598492305,-1.7181297042\H,0,-3
 .8753393761,10.9354880015,-6.8553785729\N,0,-4.1346285474,14.601426007
 1,-7.3408053121\C,0,-3.6493055613,15.391827153,-8.4841775542\C,0,-2.62
 30402412,14.5894082664,-9.3090077542\O,0,-2.5764384396,14.677711069,-1
 0.5227479677\C,0,-3.0683398054,16.7206921009,-7.9709436551\C,0,-2.4647
 169554,17.6342887756,-9.0565562114\C,0,-3.4724401502,17.9632322742,-10
 .167439008\C,0,-1.9252780657,18.9123330163,-8.3986477109\H,0,-4.054038
 9804,14.9922637394,-6.4114674213\H,0,-4.4827679373,15.570214686,-9.166
 7530957\H,0,-3.8735936692,17.2634440521,-7.4549854571\H,0,-2.296372605
 9,16.4975322411,-7.219765447\H,0,-1.6196933706,17.1018069693,-9.514217
 8405\H,0,-3.045531808,18.6927080408,-10.8637457237\H,0,-3.7377541754,1
 7.0736983191,-10.7462831758\H,0,-4.3886460882,18.4013963981,-9.7499415
 677\H,0,-1.4354180074,19.5516171461,-9.1404231271\H,0,-2.7387521822,19
 .4931894128,-7.9456820067\H,0,-1.1938579314,18.6876992215,-7.612749596
 7\N,0,-1.7418535875,13.8249414189,-8.5718808025\C,0,-1.0938497091,12.6
 865824941,-9.1932022273\C,0,-1.6569370665,11.4057391241,-8.543407568\O
 ,0,-2.2371571347,11.4513130007,-7.4423618263\C,0,0.4494251116,12.77075
 28088,-9.096922575\C,0,1.1643266717,11.9653252358,-10.1836513102\N,0,2
 .4335138861,12.338029323,-10.4479208035\O,0,0.6284954033,11.0236628671
 ,-10.7781012414\H,0,-1.9790952176,13.6812538724,-7.5980533699\H,0,-1.3
 710723458,12.7011208363,-10.251675186\H,0,0.7186703375,13.8286782671,-
 9.1792446347\H,0,0.8025886869,12.4319957354,-8.1137881555\H,0,2.944670
 3423,11.8361501022,-11.1627534883\H,0,2.8656633327,13.1483036674,-10.0
 287324759\N,0,-1.5051112608,10.2665827394,-9.2471148199\C,0,-1.8022278
 452,8.9547315687,-8.6516806505\C,0,-3.27636526,8.9540480382,-8.2122104
 843\O,0,-3.6887302567,8.5279668331,-7.154471277\C,0,-0.8510956907,8.57
 26076322,-7.5082382611\C,0,-0.8469048069,7.0653729,-7.1596082933\C,0,-
 0.7397915735,6.8174153315,-5.6448081021\N,0,-1.9918312679,7.1180977279
 ,-4.9530567756\C,0,-2.9025399559,6.0747686181,-4.7536071346\N,0,-2.491
 4868449,4.8644733894,-4.6670576765\N,0,-4.2158916535,6.5451940586,-4.5
 629522654\O,0,-4.1490273646,9.5123716669,-9.0777849759\H,0,-3.67330370
 92,9.91541079,-9.829205364\H,0,-0.8173230468,10.3241550509,-10.0145198
 192\H,0,-1.7134655908,8.2270216698,-9.4682045688\H,0,-1.1204843945,9.1
 813407489,-6.6390362359\H,0,0.1550351997,8.8882186843,-7.8053838383\H,
 0,-1.7650562543,6.5796120079,-7.5111099338\H,0,-0.0145774876,6.5771004
 838,-7.6798831449\H,0,-0.5092955643,5.7712554757,-5.4399168671\H,0,0.0
 651617006,7.4298750391,-5.217995784\H,0,-2.4396739967,7.9607621815,-5.
 2916476135\H,0,-3.259174432,4.216684816,-4.4914140554\H,0,-4.900977094
 5,5.7986494626,-4.5488651477\H,0,-4.4914708646,7.2705332606,-5.2181801
 026\\Version=ES64L-G16RevC.01\HF=-1866.7128997\RMSD=9.326e-10\Dipole=0
 .0281396,2.0029748,-0.0518956\Quadrupole=-209.1262842,297.2718008,-88.
 1455166,-106.4914856,37.6947924,-316.840437\PG=C01 [X(C25H41N8O6)]\\@
 The archive entry for this job was punched.


 DO NOT LET SELFISH MEN OR GREEDY INTERESTS SKIN YOUR COUNTRY OF ITS
 BEAUTY, ITS RICHES, OR ITS ROMANCE. -- THEODORE ROOSEVELT
 Job cpu time:       0 days  0 hours  5 minutes 16.5 seconds.
 Elapsed time:       0 days  0 hours  1 minutes 20.5 seconds.
 File lengths (MBytes):  RWF=    344 Int=      0 D2E=      0 Chk=     48 Scr=     16
 Normal termination of Gaussian 16 at Sat Jun 11 21:07:44 2022.
