 Entering Gaussian System, Link 0=/opt/software/Gaussian/g16-AVX2-C.01/g16/g16
 Input=charge-conf-611.com
 Output=charge-conf-611.log
 Initial command:
 /opt/software/Gaussian/g16-AVX2-C.01/g16/l1.exe "/mnt/gs18/scratch/users/kengmith/Gau-7404.inp" -scrdir="/mnt/gs18/scratch/users/kengmith/"
 Entering Link 1 = /opt/software/Gaussian/g16-AVX2-C.01/g16/l1.exe PID=      7414.
  
 Copyright (c) 1988-2019, Gaussian, Inc.  All Rights Reserved.
  
 This is part of the Gaussian(R) 16 program.  It is based on
 the Gaussian(R) 09 system (copyright 2009, Gaussian, Inc.),
 the Gaussian(R) 03 system (copyright 2003, Gaussian, Inc.),
 the Gaussian(R) 98 system (copyright 1998, Gaussian, Inc.),
 the Gaussian(R) 94 system (copyright 1995, Gaussian, Inc.),
 the Gaussian 92(TM) system (copyright 1992, Gaussian, Inc.),
 the Gaussian 90(TM) system (copyright 1990, Gaussian, Inc.),
 the Gaussian 88(TM) system (copyright 1988, Gaussian, Inc.),
 the Gaussian 86(TM) system (copyright 1986, Carnegie Mellon
 University), and the Gaussian 82(TM) system (copyright 1983,
 Carnegie Mellon University). Gaussian is a federally registered
 trademark of Gaussian, Inc.
  
 This software contains proprietary and confidential information,
 including trade secrets, belonging to Gaussian, Inc.
  
 This software is provided under written license and may be
 used, copied, transmitted, or stored only in accord with that
 written license.
  
 The following legend is applicable only to US Government
 contracts under FAR:
  
                    RESTRICTED RIGHTS LEGEND
  
 Use, reproduction and disclosure by the US Government is
 subject to restrictions as set forth in subparagraphs (a)
 and (c) of the Commercial Computer Software - Restricted
 Rights clause in FAR 52.227-19.
  
 Gaussian, Inc.
 340 Quinnipiac St., Bldg. 40, Wallingford CT 06492
  
  
 ---------------------------------------------------------------
 Warning -- This program may not be used in any manner that
 competes with the business of Gaussian, Inc. or will provide
 assistance to any competitor of Gaussian, Inc.  The licensee
 of this program is prohibited from giving any competitor of
 Gaussian, Inc. access to this program.  By using this program,
 the user acknowledges that Gaussian, Inc. is engaged in the
 business of creating and licensing software in the field of
 computational chemistry and represents and warrants to the
 licensee that it is not a competitor of Gaussian, Inc. and that
 it will not use this program in any manner prohibited above.
 ---------------------------------------------------------------
  

 Cite this work as:
 Gaussian 16, Revision C.01,
 M. J. Frisch, G. W. Trucks, H. B. Schlegel, G. E. Scuseria, 
 M. A. Robb, J. R. Cheeseman, G. Scalmani, V. Barone, 
 G. A. Petersson, H. Nakatsuji, X. Li, M. Caricato, A. V. Marenich, 
 J. Bloino, B. G. Janesko, R. Gomperts, B. Mennucci, H. P. Hratchian, 
 J. V. Ortiz, A. F. Izmaylov, J. L. Sonnenberg, D. Williams-Young, 
 F. Ding, F. Lipparini, F. Egidi, J. Goings, B. Peng, A. Petrone, 
 T. Henderson, D. Ranasinghe, V. G. Zakrzewski, J. Gao, N. Rega, 
 G. Zheng, W. Liang, M. Hada, M. Ehara, K. Toyota, R. Fukuda, 
 J. Hasegawa, M. Ishida, T. Nakajima, Y. Honda, O. Kitao, H. Nakai, 
 T. Vreven, K. Throssell, J. A. Montgomery, Jr., J. E. Peralta, 
 F. Ogliaro, M. J. Bearpark, J. J. Heyd, E. N. Brothers, K. N. Kudin, 
 V. N. Staroverov, T. A. Keith, R. Kobayashi, J. Normand, 
 K. Raghavachari, A. P. Rendell, J. C. Burant, S. S. Iyengar, 
 J. Tomasi, M. Cossi, J. M. Millam, M. Klene, C. Adamo, R. Cammi, 
 J. W. Ochterski, R. L. Martin, K. Morokuma, O. Farkas, 
 J. B. Foresman, and D. J. Fox, Gaussian, Inc., Wallingford CT, 2019.
 
 ******************************************
 Gaussian 16:  ES64L-G16RevC.01  3-Jul-2019
                11-Jun-2022 
 ******************************************
 %mem=8gb
 %nproc=4
 Will use up to    4 processors via shared memory.
 %chk=conf-611.chk
 ----------------------------------------------------------------------
 # B3LYP/6-31G* empiricaldispersion=gd3 guess=read geom=check nosymm in
 tegral(ultrafinegrid)
 ----------------------------------------------------------------------
 1/29=2,38=1,172=1/1;
 2/12=2,15=1,40=1/2;
 3/5=1,6=6,7=1,11=2,14=-4,25=1,30=1,74=-5,75=-5,116=-2,124=31/1,2,3;
 4/5=1/1;
 5/5=2,38=6/2;
 6/7=2,8=2,9=2,10=2,28=1/1;
 99/5=1,9=1/99;
 ------------------------------------------------------
 Candidate Structure: Conf:611 Charge calc in gas phase
 ------------------------------------------------------
 Structure from the checkpoint file:  "conf-611.chk"
 Charge =  1 Multiplicity = 1
 Redundant internal coordinates found in file.  (old form).
 N,0,-1.7681035778,11.8448821316,-4.9118076858
 C,0,-3.0433098639,12.3354347846,-4.2927560239
 C,0,-4.0652542491,11.2342674644,-4.6617319224
 O,0,-3.659238428,10.0856848634,-4.8220005475
 C,0,-3.3521035168,13.7657909273,-4.7847813995
 C,0,-2.1127562582,14.6375250515,-4.7884623473
 C,0,-1.5829265708,15.1474179238,-3.5953332968
 C,0,-1.4288798032,14.8643845081,-5.9914355841
 C,0,-0.3910730558,15.8742898604,-3.6058463995
 C,0,-0.2353113069,15.5890892876,-6.0013585898
 C,0,0.2862355723,16.0936008358,-4.8083829723
 H,0,-1.6482945314,10.8438925707,-4.7149302016
 H,0,-0.9456397068,12.3747646926,-4.6153919668
 H,0,-2.8897381847,12.330439665,-3.2083823829
 H,0,-4.1210039993,14.1893694024,-4.1276069048
 H,0,-3.7619757757,13.7074074058,-5.7966515555
 H,0,-2.1094548739,14.9870848549,-2.6565090078
 H,0,-1.8350833398,14.4683689617,-6.9184347984
 H,0,0.0053754158,16.2736247017,-2.6769523767
 H,0,0.2818409799,15.7623973379,-6.9409268609
 H,0,1.2123311705,16.6606087704,-4.8146965648
 H,0,-1.8456167542,11.907505729,-5.9539141565
 N,0,-5.3517318816,11.5993514826,-4.8477199709
 C,0,-6.3353465824,10.6428963908,-5.3818916035
 C,0,-5.8681578302,10.0684682117,-6.7368796392
 O,0,-6.1036528178,8.9143800708,-7.0510378307
 C,0,-7.7056534983,11.3338867434,-5.4868409254
 C,0,-8.8323960139,10.4698897001,-6.0875403556
 C,0,-9.0320657687,9.1562593116,-5.3180416371
 C,0,-10.1292353402,11.2904707788,-6.1333612286
 H,0,-5.6421571999,12.5548510357,-4.6893254087
 H,0,-6.3843053801,9.7826618249,-4.7115165288
 H,0,-8.0002069327,11.6540245875,-4.4770145484
 H,0,-7.5914986242,12.2444073768,-6.0938914677
 H,0,-8.550424178,10.2165621162,-7.1185701243
 H,0,-9.2096376424,9.3483689113,-4.2515498795
 H,0,-9.9028795231,8.6169183985,-5.7057308352
 H,0,-8.165195696,8.496920221,-5.4194855544
 H,0,-9.9998786319,12.224266328,-6.6941224349
 H,0,-10.931580803,10.719612421,-6.612371825
 H,0,-10.4651659848,11.5494493175,-5.1211673958
 N,0,-5.2264925818,10.9612928418,-7.5639789597
 C,0,-4.3159326904,10.4726551532,-8.5826792598
 C,0,-2.9231639891,11.0846280169,-8.2890435212
 O,0,-2.8032395597,11.9538197658,-7.3976253912
 C,0,-4.8388015338,10.7501503455,-10.0145840731
 C,0,-4.3295062169,9.7387102783,-11.0411963968
 N,0,-5.1152033707,9.5526226671,-12.1233592961
 O,0,-3.2595569258,9.1361540169,-10.9063346923
 H,0,-4.9159165606,11.8253846749,-7.1370296735
 H,0,-4.2417614615,9.3865551945,-8.458424351
 H,0,-5.9318176981,10.7216010892,-9.9698874791
 H,0,-4.5610301784,11.7583540891,-10.3486832773
 H,0,-4.8168804812,8.8888998201,-12.826298141
 H,0,-6.0296838145,9.9696267153,-12.2142590471
 N,0,-1.9151368686,10.6176069261,-9.0260515194
 C,0,-0.4910632394,10.9690910676,-8.8579154401
 C,0,-0.007260816,10.1952467477,-7.6271101814
 O,0,0.0448002806,10.6300964292,-6.4898622538
 C,0,-0.223072897,12.4822596724,-8.7693384353
 C,0,1.1711493916,12.9124903197,-9.2472220394
 C,0,2.3375554922,12.3798471467,-8.4095425749
 N,0,2.4129035445,10.9129135656,-8.4296578647
 C,0,2.9184064706,10.2781178113,-9.5776742942
 N,0,3.1974499342,10.9628966526,-10.6231764512
 N,0,3.0595476344,8.9014884668,-9.3711778708
 O,0,0.1871667648,8.8868326868,-7.9039190347
 H,0,0.3482232728,8.4336534176,-7.0538165084
 H,0,-2.1694993281,9.9070649112,-9.7272672351
 H,0,0.0126923523,10.5533787907,-9.7325911205
 H,0,-0.386595186,12.8142779576,-7.7416652857
 H,0,-0.9776405025,12.9812255087,-9.3871544712
 H,0,1.3290390709,12.6186029308,-10.2889332656
 H,0,1.2141977052,14.0092110641,-9.2197695991
 H,0,3.2736962528,12.820652324,-8.7726091809
 H,0,2.2003492006,12.6678938992,-7.3609110186
 H,0,2.8149025941,10.5225442777,-7.5838088579
 H,0,3.4686935217,10.3626743709,-11.4029536037
 H,0,3.3187212735,8.3827816693,-10.2016930145
 H,0,2.2705036701,8.4770795381,-8.8939735604
 Recover connectivity data from disk.
                           ----------------------------
                           !    Current Parameters    !
                           ! (Angstroms and Degrees)  !
 --------------------------                            --------------------------
 ! Name  Definition              Value                                          !
 --------------------------------------------------------------------------------
 ! R1    R(1,2)                  1.5                                            !
 ! R2    R(1,12)                 1.0272                                         !
 ! R3    R(1,13)                 1.0223                                         !
 ! R4    R(1,22)                 1.0469                                         !
 ! R5    R(2,3)                  1.547                                          !
 ! R6    R(2,5)                  1.5438                                         !
 ! R7    R(2,14)                 1.0952                                         !
 ! R8    R(3,4)                  1.2287                                         !
 ! R9    R(3,23)                 1.3501                                         !
 ! R10   R(5,6)                  1.5152                                         !
 ! R11   R(5,15)                 1.0966                                         !
 ! R12   R(5,16)                 1.0933                                         !
 ! R13   R(6,7)                  1.4015                                         !
 ! R14   R(6,8)                  1.4022                                         !
 ! R15   R(7,9)                  1.3961                                         !
 ! R16   R(7,17)                 1.0883                                         !
 ! R17   R(8,10)                 1.3964                                         !
 ! R18   R(8,18)                 1.0868                                         !
 ! R19   R(9,11)                 1.3975                                         !
 ! R20   R(9,19)                 1.086                                          !
 ! R21   R(10,11)                1.3963                                         !
 ! R22   R(10,20)                1.0864                                         !
 ! R23   R(11,21)                1.0859                                         !
 ! R24   R(23,24)                1.4723                                         !
 ! R25   R(23,31)                1.0111                                         !
 ! R26   R(24,25)                1.5441                                         !
 ! R27   R(24,27)                1.5383                                         !
 ! R28   R(24,32)                1.0917                                         !
 ! R29   R(25,26)                1.219                                          !
 ! R30   R(25,42)                1.3759                                         !
 ! R31   R(27,28)                1.5417                                         !
 ! R32   R(27,33)                1.0995                                         !
 ! R33   R(27,34)                1.1003                                         !
 ! R34   R(28,29)                1.5355                                         !
 ! R35   R(28,30)                1.5353                                         !
 ! R36   R(28,35)                1.0985                                         !
 ! R37   R(29,36)                1.0981                                         !
 ! R38   R(29,37)                1.0952                                         !
 ! R39   R(29,38)                1.0938                                         !
 ! R40   R(30,39)                1.0969                                         !
 ! R41   R(30,40)                1.095                                          !
 ! R42   R(30,41)                1.0975                                         !
 ! R43   R(42,43)                1.4511                                         !
 ! R44   R(42,50)                1.0126                                         !
 ! R45   R(43,44)                1.5494                                         !
 ! R46   R(43,46)                1.5494                                         !
 ! R47   R(43,51)                1.0957                                         !
 ! R48   R(44,45)                1.2508                                         !
 ! R49   R(44,56)                1.3332                                         !
 ! R50   R(46,47)                1.5285                                         !
 ! R51   R(46,52)                1.0943                                         !
 ! R52   R(46,53)                1.0978                                         !
 ! R53   R(47,48)                1.3502                                         !
 ! R54   R(47,49)                1.2353                                         !
 ! R55   R(48,54)                1.0118                                         !
 ! R56   R(48,55)                1.0092                                         !
 ! R57   R(56,57)                1.4764                                         !
 ! R58   R(56,69)                1.0302                                         !
 ! R59   R(57,58)                1.5322                                         !
 ! R60   R(57,60)                1.5393                                         !
 ! R61   R(57,70)                1.0916                                         !
 ! R62   R(58,59)                1.2187                                         !
 ! R63   R(58,67)                1.3514                                         !
 ! R64   R(60,61)                1.5354                                         !
 ! R65   R(60,71)                1.0923                                         !
 ! R66   R(60,72)                1.0955                                         !
 ! R67   R(61,62)                1.5316                                         !
 ! R68   R(61,73)                1.0938                                         !
 ! R69   R(61,74)                1.0979                                         !
 ! R70   R(62,63)                1.469                                          !
 ! R71   R(62,75)                1.0966                                         !
 ! R72   R(62,76)                1.0961                                         !
 ! R73   R(63,64)                1.4059                                         !
 ! R74   R(63,77)                1.0146                                         !
 ! R75   R(64,65)                1.2806                                         !
 ! R76   R(64,66)                1.3992                                         !
 ! R77   R(65,78)                1.0207                                         !
 ! R78   R(66,79)                1.0129                                         !
 ! R79   R(66,80)                1.0151                                         !
 ! R80   R(67,68)                0.9767                                         !
 ! A1    A(2,1,12)             109.8009                                         !
 ! A2    A(2,1,13)             113.2525                                         !
 ! A3    A(2,1,22)             109.1666                                         !
 ! A4    A(12,1,13)            110.8362                                         !
 ! A5    A(12,1,22)            104.9354                                         !
 ! A6    A(13,1,22)            108.4936                                         !
 ! A7    A(1,2,3)              103.3197                                         !
 ! A8    A(1,2,5)              109.9691                                         !
 ! A9    A(1,2,14)             106.7334                                         !
 ! A10   A(3,2,5)              116.831                                          !
 ! A11   A(3,2,14)             108.9985                                         !
 ! A12   A(5,2,14)             110.3546                                         !
 ! A13   A(2,3,4)              118.569                                          !
 ! A14   A(2,3,23)             118.0238                                         !
 ! A15   A(4,3,23)             123.343                                          !
 ! A16   A(2,5,6)              111.7284                                         !
 ! A17   A(2,5,15)             107.8865                                         !
 ! A18   A(2,5,16)             108.6921                                         !
 ! A19   A(6,5,15)             110.655                                          !
 ! A20   A(6,5,16)             109.5795                                         !
 ! A21   A(15,5,16)            108.205                                          !
 ! A22   A(5,6,7)              121.0943                                         !
 ! A23   A(5,6,8)              119.608                                          !
 ! A24   A(7,6,8)              119.1502                                         !
 ! A25   A(6,7,9)              120.3815                                         !
 ! A26   A(6,7,17)             119.8612                                         !
 ! A27   A(9,7,17)             119.7527                                         !
 ! A28   A(6,8,10)             120.4591                                         !
 ! A29   A(6,8,18)             119.374                                          !
 ! A30   A(10,8,18)            120.1668                                         !
 ! A31   A(7,9,11)             120.13                                           !
 ! A32   A(7,9,19)             119.7787                                         !
 ! A33   A(11,9,19)            120.0905                                         !
 ! A34   A(8,10,11)            120.0467                                         !
 ! A35   A(8,10,20)            119.7238                                         !
 ! A36   A(11,10,20)           120.2288                                         !
 ! A37   A(9,11,10)            119.8318                                         !
 ! A38   A(9,11,21)            120.0189                                         !
 ! A39   A(10,11,21)           120.1481                                         !
 ! A40   A(3,23,24)            120.7234                                         !
 ! A41   A(3,23,31)            120.5055                                         !
 ! A42   A(24,23,31)           118.6091                                         !
 ! A43   A(23,24,25)           110.9724                                         !
 ! A44   A(23,24,27)           109.1521                                         !
 ! A45   A(23,24,32)           108.6066                                         !
 ! A46   A(25,24,27)           112.1339                                         !
 ! A47   A(25,24,32)           105.0279                                         !
 ! A48   A(27,24,32)           110.8492                                         !
 ! A49   A(24,25,26)           121.3249                                         !
 ! A50   A(24,25,42)           115.2919                                         !
 ! A51   A(26,25,42)           123.334                                          !
 ! A52   A(24,27,28)           115.2069                                         !
 ! A53   A(24,27,33)           107.8645                                         !
 ! A54   A(24,27,34)           108.4789                                         !
 ! A55   A(28,27,33)           108.9792                                         !
 ! A56   A(28,27,34)           108.9427                                         !
 ! A57   A(33,27,34)           107.0713                                         !
 ! A58   A(27,28,29)           112.2857                                         !
 ! A59   A(27,28,30)           109.2335                                         !
 ! A60   A(27,28,35)           107.899                                          !
 ! A61   A(29,28,30)           111.2457                                         !
 ! A62   A(29,28,35)           107.8458                                         !
 ! A63   A(30,28,35)           108.1833                                         !
 ! A64   A(28,29,36)           110.9824                                         !
 ! A65   A(28,29,37)           110.3223                                         !
 ! A66   A(28,29,38)           111.479                                          !
 ! A67   A(36,29,37)           107.5399                                         !
 ! A68   A(36,29,38)           108.8855                                         !
 ! A69   A(37,29,38)           107.485                                          !
 ! A70   A(28,30,39)           111.7553                                         !
 ! A71   A(28,30,40)           110.691                                          !
 ! A72   A(28,30,41)           110.9248                                         !
 ! A73   A(39,30,40)           107.8534                                         !
 ! A74   A(39,30,41)           107.8611                                         !
 ! A75   A(40,30,41)           107.589                                          !
 ! A76   A(25,42,43)           119.7464                                         !
 ! A77   A(25,42,50)           116.3159                                         !
 ! A78   A(43,42,50)           113.0096                                         !
 ! A79   A(42,43,44)           107.3391                                         !
 ! A80   A(42,43,46)           112.1302                                         !
 ! A81   A(42,43,51)           107.2569                                         !
 ! A82   A(44,43,46)           114.0639                                         !
 ! A83   A(44,43,51)           108.0098                                         !
 ! A84   A(46,43,51)           107.7684                                         !
 ! A85   A(43,44,45)           119.7179                                         !
 ! A86   A(43,44,56)           115.8837                                         !
 ! A87   A(45,44,56)           124.3962                                         !
 ! A88   A(43,46,47)           112.9388                                         !
 ! A89   A(43,46,52)           107.1361                                         !
 ! A90   A(43,46,53)           111.1204                                         !
 ! A91   A(47,46,52)           110.0583                                         !
 ! A92   A(47,46,53)           108.6018                                         !
 ! A93   A(52,46,53)           106.8045                                         !
 ! A94   A(46,47,48)           115.8249                                         !
 ! A95   A(46,47,49)           122.5497                                         !
 ! A96   A(48,47,49)           121.6198                                         !
 ! A97   A(47,48,54)           118.4038                                         !
 ! A98   A(47,48,55)           122.8577                                         !
 ! A99   A(54,48,55)           118.4038                                         !
 ! A100  A(44,56,57)           125.6579                                         !
 ! A101  A(44,56,69)           115.5443                                         !
 ! A102  A(57,56,69)           118.6771                                         !
 ! A103  A(56,57,58)           106.0096                                         !
 ! A104  A(56,57,60)           114.1115                                         !
 ! A105  A(56,57,70)           105.2603                                         !
 ! A106  A(58,57,60)           113.2834                                         !
 ! A107  A(58,57,70)           107.7936                                         !
 ! A108  A(60,57,70)           109.8847                                         !
 ! A109  A(57,58,59)           125.6536                                         !
 ! A110  A(57,58,67)           111.7068                                         !
 ! A111  A(59,58,67)           122.0368                                         !
 ! A112  A(57,60,61)           114.5603                                         !
 ! A113  A(57,60,71)           109.0801                                         !
 ! A114  A(57,60,72)           107.1805                                         !
 ! A115  A(61,60,71)           110.0969                                         !
 ! A116  A(61,60,72)           108.8034                                         !
 ! A117  A(71,60,72)           106.8008                                         !
 ! A118  A(60,61,62)           115.0785                                         !
 ! A119  A(60,61,73)           110.6226                                         !
 ! A120  A(60,61,74)           107.9227                                         !
 ! A121  A(62,61,73)           108.5116                                         !
 ! A122  A(62,61,74)           107.6889                                         !
 ! A123  A(73,61,74)           106.6509                                         !
 ! A124  A(61,62,63)           112.262                                          !
 ! A125  A(61,62,75)           109.2232                                         !
 ! A126  A(61,62,76)           109.6648                                         !
 ! A127  A(63,62,75)           110.6767                                         !
 ! A128  A(63,62,76)           106.3762                                         !
 ! A129  A(75,62,76)           108.5407                                         !
 ! A130  A(62,63,64)           118.7196                                         !
 ! A131  A(62,63,77)           113.1481                                         !
 ! A132  A(64,63,77)           111.3813                                         !
 ! A133  A(63,64,65)           120.2379                                         !
 ! A134  A(63,64,66)           111.1012                                         !
 ! A135  A(65,64,66)           128.656                                          !
 ! A136  A(64,65,78)           111.5409                                         !
 ! A137  A(64,66,79)           114.12                                           !
 ! A138  A(64,66,80)           113.7238                                         !
 ! A139  A(79,66,80)           111.7303                                         !
 ! A140  A(58,67,68)           107.1372                                         !
 ! D1    D(12,1,2,3)           -44.8627                                         !
 ! D2    D(12,1,2,5)          -170.2805                                         !
 ! D3    D(12,1,2,14)           70.0044                                         !
 ! D4    D(13,1,2,3)          -169.3467                                         !
 ! D5    D(13,1,2,5)            65.2355                                         !
 ! D6    D(13,1,2,14)          -54.4796                                         !
 ! D7    D(22,1,2,3)            69.6657                                         !
 ! D8    D(22,1,2,5)           -55.7521                                         !
 ! D9    D(22,1,2,14)         -175.4671                                         !
 ! D10   D(1,2,3,4)             28.5606                                         !
 ! D11   D(1,2,3,23)          -148.6223                                         !
 ! D12   D(5,2,3,4)            149.4277                                         !
 ! D13   D(5,2,3,23)           -27.7552                                         !
 ! D14   D(14,2,3,4)           -84.6703                                         !
 ! D15   D(14,2,3,23)           98.1468                                         !
 ! D16   D(1,2,5,6)            -43.3749                                         !
 ! D17   D(1,2,5,15)          -165.2197                                         !
 ! D18   D(1,2,5,16)            77.6669                                         !
 ! D19   D(3,2,5,6)           -160.6644                                         !
 ! D20   D(3,2,5,15)            77.4908                                         !
 ! D21   D(3,2,5,16)           -39.6226                                         !
 ! D22   D(14,2,5,6)            74.1118                                         !
 ! D23   D(14,2,5,15)          -47.733                                          !
 ! D24   D(14,2,5,16)         -164.8464                                         !
 ! D25   D(2,3,23,24)          171.3774                                         !
 ! D26   D(2,3,23,31)           -3.9319                                         !
 ! D27   D(4,3,23,24)           -5.6609                                         !
 ! D28   D(4,3,23,31)          179.0298                                         !
 ! D29   D(2,5,6,7)            -75.3602                                         !
 ! D30   D(2,5,6,8)            100.1878                                         !
 ! D31   D(15,5,6,7)            44.8761                                         !
 ! D32   D(15,5,6,8)          -139.576                                          !
 ! D33   D(16,5,6,7)           164.1149                                         !
 ! D34   D(16,5,6,8)           -20.3372                                         !
 ! D35   D(5,6,7,9)            175.7097                                         !
 ! D36   D(5,6,7,17)            -5.0665                                         !
 ! D37   D(8,6,7,9)              0.1417                                         !
 ! D38   D(8,6,7,17)           179.3655                                         !
 ! D39   D(5,6,8,10)          -175.6436                                         !
 ! D40   D(5,6,8,18)             4.2028                                         !
 ! D41   D(7,6,8,10)            -0.0087                                         !
 ! D42   D(7,6,8,18)           179.8377                                         !
 ! D43   D(6,7,9,11)            -0.288                                          !
 ! D44   D(6,7,9,19)           179.3743                                         !
 ! D45   D(17,7,9,11)         -179.5126                                         !
 ! D46   D(17,7,9,19)            0.1497                                         !
 ! D47   D(6,8,10,11)            0.0215                                         !
 ! D48   D(6,8,10,20)         -179.6681                                         !
 ! D49   D(18,8,10,11)        -179.8236                                         !
 ! D50   D(18,8,10,20)           0.4868                                         !
 ! D51   D(7,9,11,10)            0.2992                                         !
 ! D52   D(7,9,11,21)          179.9015                                         !
 ! D53   D(19,9,11,10)        -179.362                                          !
 ! D54   D(19,9,11,21)           0.2403                                         !
 ! D55   D(8,10,11,9)           -0.1663                                         !
 ! D56   D(8,10,11,21)        -179.7681                                         !
 ! D57   D(20,10,11,9)         179.5217                                         !
 ! D58   D(20,10,11,21)         -0.0801                                         !
 ! D59   D(3,23,24,25)         -55.8272                                         !
 ! D60   D(3,23,24,27)        -179.9016                                         !
 ! D61   D(3,23,24,32)          59.1367                                         !
 ! D62   D(31,23,24,25)        119.5695                                         !
 ! D63   D(31,23,24,27)         -4.5049                                         !
 ! D64   D(31,23,24,32)       -125.4665                                         !
 ! D65   D(23,24,25,26)        144.7643                                         !
 ! D66   D(23,24,25,42)        -37.7041                                         !
 ! D67   D(27,24,25,26)        -92.8771                                         !
 ! D68   D(27,24,25,42)         84.6544                                         !
 ! D69   D(32,24,25,26)         27.5891                                         !
 ! D70   D(32,24,25,42)       -154.8794                                         !
 ! D71   D(23,24,27,28)        177.6312                                         !
 ! D72   D(23,24,27,33)        -60.4056                                         !
 ! D73   D(23,24,27,34)         55.2468                                         !
 ! D74   D(25,24,27,28)         54.2438                                         !
 ! D75   D(25,24,27,33)        176.2071                                         !
 ! D76   D(25,24,27,34)        -68.1405                                         !
 ! D77   D(32,24,27,28)        -62.785                                          !
 ! D78   D(32,24,27,33)         59.1783                                         !
 ! D79   D(32,24,27,34)        174.8306                                         !
 ! D80   D(24,25,42,43)        156.3747                                         !
 ! D81   D(24,25,42,50)         14.6638                                         !
 ! D82   D(26,25,42,43)        -26.1492                                         !
 ! D83   D(26,25,42,50)       -167.8601                                         !
 ! D84   D(24,27,28,29)         56.3285                                         !
 ! D85   D(24,27,28,30)       -179.7704                                         !
 ! D86   D(24,27,28,35)        -62.3834                                         !
 ! D87   D(33,27,28,29)        -65.0328                                         !
 ! D88   D(33,27,28,30)         58.8683                                         !
 ! D89   D(33,27,28,35)        176.2553                                         !
 ! D90   D(34,27,28,29)        178.464                                          !
 ! D91   D(34,27,28,30)        -57.6349                                         !
 ! D92   D(34,27,28,35)         59.7521                                         !
 ! D93   D(27,28,29,36)         55.1193                                         !
 ! D94   D(27,28,29,37)        174.2125                                         !
 ! D95   D(27,28,29,38)        -66.4442                                         !
 ! D96   D(30,28,29,36)        -67.6539                                         !
 ! D97   D(30,28,29,37)         51.4393                                         !
 ! D98   D(30,28,29,38)        170.7826                                         !
 ! D99   D(35,28,29,36)        173.8625                                         !
 ! D100  D(35,28,29,37)        -67.0443                                         !
 ! D101  D(35,28,29,38)         52.299                                          !
 ! D102  D(27,28,30,39)         56.3298                                         !
 ! D103  D(27,28,30,40)        176.5666                                         !
 ! D104  D(27,28,30,41)        -64.0769                                         !
 ! D105  D(29,28,30,39)       -179.1582                                         !
 ! D106  D(29,28,30,40)        -58.9214                                         !
 ! D107  D(29,28,30,41)         60.4351                                         !
 ! D108  D(35,28,30,39)        -60.8778                                         !
 ! D109  D(35,28,30,40)         59.3591                                         !
 ! D110  D(35,28,30,41)        178.7156                                         !
 ! D111  D(25,42,43,44)       -119.9494                                         !
 ! D112  D(25,42,43,46)        114.0278                                         !
 ! D113  D(25,42,43,51)         -4.0908                                         !
 ! D114  D(50,42,43,44)         22.9352                                         !
 ! D115  D(50,42,43,46)       -103.0876                                         !
 ! D116  D(50,42,43,51)        138.7938                                         !
 ! D117  D(42,43,44,45)         -7.5093                                         !
 ! D118  D(42,43,44,56)        171.983                                          !
 ! D119  D(46,43,44,45)        117.3549                                         !
 ! D120  D(46,43,44,56)        -63.1528                                         !
 ! D121  D(51,43,44,45)       -122.8687                                         !
 ! D122  D(51,43,44,56)         56.6236                                         !
 ! D123  D(42,43,46,47)       -152.4874                                         !
 ! D124  D(42,43,46,52)        -31.1405                                         !
 ! D125  D(42,43,46,53)         85.1822                                         !
 ! D126  D(44,43,46,47)         85.2395                                         !
 ! D127  D(44,43,46,52)       -153.4136                                         !
 ! D128  D(44,43,46,53)        -37.0909                                         !
 ! D129  D(51,43,46,47)        -34.6728                                         !
 ! D130  D(51,43,46,52)         86.6741                                         !
 ! D131  D(51,43,46,53)       -157.0032                                         !
 ! D132  D(43,44,56,57)       -174.9751                                         !
 ! D133  D(43,44,56,69)          0.9569                                         !
 ! D134  D(45,44,56,57)          4.4906                                         !
 ! D135  D(45,44,56,69)       -179.5775                                         !
 ! D136  D(43,46,47,48)        153.6152                                         !
 ! D137  D(43,46,47,49)        -27.2329                                         !
 ! D138  D(52,46,47,48)         33.937                                          !
 ! D139  D(52,46,47,49)       -146.9111                                         !
 ! D140  D(53,46,47,48)        -82.6548                                         !
 ! D141  D(53,46,47,49)         96.4971                                         !
 ! D142  D(46,47,48,54)       -179.7783                                         !
 ! D143  D(46,47,48,55)         -6.5339                                         !
 ! D144  D(49,47,48,54)          1.0611                                         !
 ! D145  D(49,47,48,55)        174.3055                                         !
 ! D146  D(44,56,57,58)         75.9819                                         !
 ! D147  D(44,56,57,60)        -49.3951                                         !
 ! D148  D(44,56,57,70)       -169.9501                                         !
 ! D149  D(69,56,57,58)        -99.8343                                         !
 ! D150  D(69,56,57,60)        134.7886                                         !
 ! D151  D(69,56,57,70)         14.2336                                         !
 ! D152  D(56,57,58,59)        -95.2649                                         !
 ! D153  D(56,57,58,67)         75.9337                                         !
 ! D154  D(60,57,58,59)         30.6192                                         !
 ! D155  D(60,57,58,67)       -158.1822                                         !
 ! D156  D(70,57,58,59)        152.4219                                         !
 ! D157  D(70,57,58,67)        -36.3795                                         !
 ! D158  D(56,57,60,61)       -152.6467                                         !
 ! D159  D(56,57,60,71)         83.4479                                         !
 ! D160  D(56,57,60,72)        -31.8341                                         !
 ! D161  D(58,57,60,61)         85.9172                                         !
 ! D162  D(58,57,60,71)        -37.9882                                         !
 ! D163  D(58,57,60,72)       -153.2702                                         !
 ! D164  D(70,57,60,61)        -34.708                                          !
 ! D165  D(70,57,60,71)       -158.6134                                         !
 ! D166  D(70,57,60,72)         86.1045                                         !
 ! D167  D(57,58,67,68)       -170.8517                                         !
 ! D168  D(59,58,67,68)          0.7145                                         !
 ! D169  D(57,60,61,62)        -64.5511                                         !
 ! D170  D(57,60,61,73)         58.861                                          !
 ! D171  D(57,60,61,74)        175.1877                                         !
 ! D172  D(71,60,61,62)         58.8103                                         !
 ! D173  D(71,60,61,73)       -177.7776                                         !
 ! D174  D(71,60,61,74)        -61.4509                                         !
 ! D175  D(72,60,61,62)        175.536                                          !
 ! D176  D(72,60,61,73)        -61.0519                                         !
 ! D177  D(72,60,61,74)         55.2748                                         !
 ! D178  D(60,61,62,63)         62.3063                                         !
 ! D179  D(60,61,62,75)       -174.546                                          !
 ! D180  D(60,61,62,76)        -55.7155                                         !
 ! D181  D(73,61,62,63)        -62.2196                                         !
 ! D182  D(73,61,62,75)         60.9282                                         !
 ! D183  D(73,61,62,76)        179.7586                                         !
 ! D184  D(74,61,62,63)       -177.3041                                         !
 ! D185  D(74,61,62,75)        -54.1564                                         !
 ! D186  D(74,61,62,76)         64.6741                                         !
 ! D187  D(61,62,63,64)         75.8943                                         !
 ! D188  D(61,62,63,77)       -150.7624                                         !
 ! D189  D(75,62,63,64)        -46.4328                                         !
 ! D190  D(75,62,63,77)         86.9105                                         !
 ! D191  D(76,62,63,64)       -164.1525                                         !
 ! D192  D(76,62,63,77)        -30.8092                                         !
 ! D193  D(62,63,64,65)         -5.9192                                         !
 ! D194  D(62,63,64,66)        173.3433                                         !
 ! D195  D(77,63,64,65)       -140.0189                                         !
 ! D196  D(77,63,64,66)         39.2437                                         !
 ! D197  D(63,64,65,78)       -174.5701                                         !
 ! D198  D(66,64,65,78)          6.311                                          !
 ! D199  D(63,64,66,79)        173.2924                                         !
 ! D200  D(63,64,66,80)         43.5107                                         !
 ! D201  D(65,64,66,79)         -7.5235                                         !
 ! D202  D(65,64,66,80)       -137.3052                                         !
 --------------------------------------------------------------------------------
 Symmetry turned off by external request.
 Stoichiometry    C25H41N8O6(1+)
 Framework group  C1[X(C25H41N8O6)]
 Deg. of freedom   234
 Full point group                 C1      NOp   1
                          Input orientation:                          
 ---------------------------------------------------------------------
 Center     Atomic      Atomic             Coordinates (Angstroms)
 Number     Number       Type             X           Y           Z
 ---------------------------------------------------------------------
      1          7           0       -1.768104   11.844882   -4.911808
      2          6           0       -3.043310   12.335435   -4.292756
      3          6           0       -4.065254   11.234267   -4.661732
      4          8           0       -3.659238   10.085685   -4.822001
      5          6           0       -3.352104   13.765791   -4.784781
      6          6           0       -2.112756   14.637525   -4.788462
      7          6           0       -1.582927   15.147418   -3.595333
      8          6           0       -1.428880   14.864385   -5.991436
      9          6           0       -0.391073   15.874290   -3.605846
     10          6           0       -0.235311   15.589089   -6.001359
     11          6           0        0.286236   16.093601   -4.808383
     12          1           0       -1.648295   10.843893   -4.714930
     13          1           0       -0.945640   12.374765   -4.615392
     14          1           0       -2.889738   12.330440   -3.208382
     15          1           0       -4.121004   14.189369   -4.127607
     16          1           0       -3.761976   13.707407   -5.796652
     17          1           0       -2.109455   14.987085   -2.656509
     18          1           0       -1.835083   14.468369   -6.918435
     19          1           0        0.005375   16.273625   -2.676952
     20          1           0        0.281841   15.762397   -6.940927
     21          1           0        1.212331   16.660609   -4.814697
     22          1           0       -1.845617   11.907506   -5.953914
     23          7           0       -5.351732   11.599351   -4.847720
     24          6           0       -6.335347   10.642896   -5.381892
     25          6           0       -5.868158   10.068468   -6.736880
     26          8           0       -6.103653    8.914380   -7.051038
     27          6           0       -7.705653   11.333887   -5.486841
     28          6           0       -8.832396   10.469890   -6.087540
     29          6           0       -9.032066    9.156259   -5.318042
     30          6           0      -10.129235   11.290471   -6.133361
     31          1           0       -5.642157   12.554851   -4.689325
     32          1           0       -6.384305    9.782662   -4.711517
     33          1           0       -8.000207   11.654025   -4.477015
     34          1           0       -7.591499   12.244407   -6.093891
     35          1           0       -8.550424   10.216562   -7.118570
     36          1           0       -9.209638    9.348369   -4.251550
     37          1           0       -9.902880    8.616918   -5.705731
     38          1           0       -8.165196    8.496920   -5.419486
     39          1           0       -9.999879   12.224266   -6.694122
     40          1           0      -10.931581   10.719612   -6.612372
     41          1           0      -10.465166   11.549449   -5.121167
     42          7           0       -5.226493   10.961293   -7.563979
     43          6           0       -4.315933   10.472655   -8.582679
     44          6           0       -2.923164   11.084628   -8.289044
     45          8           0       -2.803240   11.953820   -7.397625
     46          6           0       -4.838802   10.750150  -10.014584
     47          6           0       -4.329506    9.738710  -11.041196
     48          7           0       -5.115203    9.552623  -12.123359
     49          8           0       -3.259557    9.136154  -10.906335
     50          1           0       -4.915917   11.825385   -7.137030
     51          1           0       -4.241761    9.386555   -8.458424
     52          1           0       -5.931818   10.721601   -9.969887
     53          1           0       -4.561030   11.758354  -10.348683
     54          1           0       -4.816880    8.888900  -12.826298
     55          1           0       -6.029684    9.969627  -12.214259
     56          7           0       -1.915137   10.617607   -9.026052
     57          6           0       -0.491063   10.969091   -8.857915
     58          6           0       -0.007261   10.195247   -7.627110
     59          8           0        0.044800   10.630096   -6.489862
     60          6           0       -0.223073   12.482260   -8.769338
     61          6           0        1.171149   12.912490   -9.247222
     62          6           0        2.337555   12.379847   -8.409543
     63          7           0        2.412904   10.912914   -8.429658
     64          6           0        2.918406   10.278118   -9.577674
     65          7           0        3.197450   10.962897  -10.623176
     66          7           0        3.059548    8.901488   -9.371178
     67          8           0        0.187167    8.886833   -7.903919
     68          1           0        0.348223    8.433653   -7.053817
     69          1           0       -2.169499    9.907065   -9.727267
     70          1           0        0.012692   10.553379   -9.732591
     71          1           0       -0.386595   12.814278   -7.741665
     72          1           0       -0.977641   12.981226   -9.387154
     73          1           0        1.329039   12.618603  -10.288933
     74          1           0        1.214198   14.009211   -9.219770
     75          1           0        3.273696   12.820652   -8.772609
     76          1           0        2.200349   12.667894   -7.360911
     77          1           0        2.814903   10.522544   -7.583809
     78          1           0        3.468694   10.362674  -11.402954
     79          1           0        3.318721    8.382782  -10.201693
     80          1           0        2.270504    8.477080   -8.893974
 ---------------------------------------------------------------------
 Rotational constants (GHZ):           0.1110900           0.0656904           0.0477409
 Standard basis: 6-31G(d) (6D, 7F)
   667 basis functions,  1256 primitive gaussians,   667 cartesian basis functions
   147 alpha electrons      147 beta electrons
       nuclear repulsion energy      4903.0240440419 Hartrees.
 NAtoms=   80 NActive=   80 NUniq=   80 SFac= 1.00D+00 NAtFMM=   60 NAOKFM=T Big=T
 Integral buffers will be    131072 words long.
 Raffenetti 2 integral format.
 Two-electron integral symmetry is turned off.
 Nuclear repulsion after empirical dispersion term =     4902.9102033027 Hartrees.
 One-electron integrals computed using PRISM.
 NBasis=   667 RedAO= T EigKep=  4.66D-04  NBF=   667
 NBsUse=   667 1.00D-06 EigRej= -1.00D+00 NBFU=   667
 Initial guess from the checkpoint file:  "conf-611.chk"
 B after Tr=     0.000000    0.000000    0.000000
         Rot=    1.000000    0.000000    0.000000    0.000000 Ang=   0.00 deg.
 Requested convergence on RMS density matrix=1.00D-08 within 128 cycles.
 Requested convergence on MAX density matrix=1.00D-06.
 Requested convergence on             energy=1.00D-06.
 No special actions if energy rises.
 SCF Done:  E(RB3LYP) =  -1866.72219196     A.U. after    2 cycles
            NFock=  2  Conv=0.71D-08     -V/T= 2.0094

 **********************************************************************

            Population analysis using the SCF Density.

 **********************************************************************

 Alpha  occ. eigenvalues --  -19.30842 -19.25403 -19.24807 -19.24537 -19.22695
 Alpha  occ. eigenvalues --  -19.21114 -14.55393 -14.48959 -14.47256 -14.46310
 Alpha  occ. eigenvalues --  -14.45276 -14.42867 -14.42050 -14.36393 -10.43708
 Alpha  occ. eigenvalues --  -10.41982 -10.41196 -10.40231 -10.38488 -10.38229
 Alpha  occ. eigenvalues --  -10.35653 -10.34548 -10.34421 -10.33567 -10.32575
 Alpha  occ. eigenvalues --  -10.30911 -10.30887 -10.29651 -10.29422 -10.29355
 Alpha  occ. eigenvalues --  -10.29237 -10.29221 -10.28989 -10.28652 -10.28078
 Alpha  occ. eigenvalues --  -10.26984 -10.26287 -10.24551 -10.23934  -1.21813
 Alpha  occ. eigenvalues --   -1.17187  -1.15975  -1.14242  -1.13094  -1.12746
 Alpha  occ. eigenvalues --   -1.10619  -1.05249  -1.05193  -1.04170  -1.02188
 Alpha  occ. eigenvalues --   -1.01111  -0.96440  -0.96363  -0.91916  -0.91872
 Alpha  occ. eigenvalues --   -0.90321  -0.89698  -0.87782  -0.85717  -0.84792
 Alpha  occ. eigenvalues --   -0.83649  -0.83187  -0.78727  -0.78179  -0.77071
 Alpha  occ. eigenvalues --   -0.75464  -0.74639  -0.72495  -0.72157  -0.71239
 Alpha  occ. eigenvalues --   -0.70782  -0.70436  -0.69349  -0.69190  -0.68506
 Alpha  occ. eigenvalues --   -0.68021  -0.66860  -0.65757  -0.64505  -0.64149
 Alpha  occ. eigenvalues --   -0.63901  -0.63183  -0.61853  -0.61812  -0.61358
 Alpha  occ. eigenvalues --   -0.60919  -0.60155  -0.59643  -0.59076  -0.58935
 Alpha  occ. eigenvalues --   -0.58281  -0.58017  -0.56630  -0.56105  -0.55845
 Alpha  occ. eigenvalues --   -0.55343  -0.54820  -0.54689  -0.54350  -0.54093
 Alpha  occ. eigenvalues --   -0.53317  -0.53017  -0.52608  -0.52422  -0.52068
 Alpha  occ. eigenvalues --   -0.51875  -0.51734  -0.51295  -0.50857  -0.50551
 Alpha  occ. eigenvalues --   -0.50366  -0.49836  -0.49664  -0.49117  -0.48761
 Alpha  occ. eigenvalues --   -0.47973  -0.47327  -0.46777  -0.46606  -0.46326
 Alpha  occ. eigenvalues --   -0.46057  -0.45411  -0.45151  -0.44756  -0.44468
 Alpha  occ. eigenvalues --   -0.44094  -0.43892  -0.43410  -0.42945  -0.42045
 Alpha  occ. eigenvalues --   -0.40999  -0.40482  -0.40354  -0.40138  -0.39130
 Alpha  occ. eigenvalues --   -0.38629  -0.38459  -0.37657  -0.36893  -0.36793
 Alpha  occ. eigenvalues --   -0.35482  -0.35447  -0.35077  -0.34477  -0.34139
 Alpha  occ. eigenvalues --   -0.32926  -0.31004
 Alpha virt. eigenvalues --   -0.11910  -0.11391  -0.10772  -0.10575  -0.09083
 Alpha virt. eigenvalues --   -0.08290  -0.07401  -0.05036  -0.03947  -0.03470
 Alpha virt. eigenvalues --   -0.02671  -0.02195  -0.01842  -0.01237  -0.00500
 Alpha virt. eigenvalues --    0.00411   0.00490   0.00927   0.01393   0.01484
 Alpha virt. eigenvalues --    0.02046   0.02680   0.03097   0.03697   0.03875
 Alpha virt. eigenvalues --    0.04187   0.04225   0.04556   0.05074   0.05382
 Alpha virt. eigenvalues --    0.05513   0.05977   0.06371   0.06623   0.06848
 Alpha virt. eigenvalues --    0.06974   0.07682   0.08068   0.08443   0.08558
 Alpha virt. eigenvalues --    0.09006   0.09334   0.09647   0.09802   0.09990
 Alpha virt. eigenvalues --    0.10300   0.10658   0.11152   0.11474   0.11547
 Alpha virt. eigenvalues --    0.12061   0.12984   0.13062   0.13211   0.13684
 Alpha virt. eigenvalues --    0.13746   0.14343   0.14579   0.14824   0.15467
 Alpha virt. eigenvalues --    0.15563   0.15952   0.16426   0.17150   0.17262
 Alpha virt. eigenvalues --    0.17577   0.17693   0.18397   0.19909   0.20720
 Alpha virt. eigenvalues --    0.21150   0.21414   0.21902   0.22517   0.22680
 Alpha virt. eigenvalues --    0.23749   0.24551   0.25041   0.25559   0.26072
 Alpha virt. eigenvalues --    0.26698   0.27467   0.30013   0.30528   0.32168
 Alpha virt. eigenvalues --    0.32937   0.34352   0.36725   0.37928   0.38965
 Alpha virt. eigenvalues --    0.39603   0.40847   0.41246   0.41900   0.42150
 Alpha virt. eigenvalues --    0.42577   0.43122   0.43179   0.43718   0.43884
 Alpha virt. eigenvalues --    0.44069   0.44461   0.44741   0.45446   0.45564
 Alpha virt. eigenvalues --    0.45717   0.46511   0.46574   0.47205   0.47489
 Alpha virt. eigenvalues --    0.48367   0.48558   0.49058   0.49233   0.49741
 Alpha virt. eigenvalues --    0.50210   0.50720   0.51016   0.51329   0.51770
 Alpha virt. eigenvalues --    0.51837   0.52058   0.52092   0.53112   0.53617
 Alpha virt. eigenvalues --    0.54001   0.54429   0.54591   0.55029   0.55182
 Alpha virt. eigenvalues --    0.55572   0.56195   0.56383   0.56793   0.57117
 Alpha virt. eigenvalues --    0.57594   0.57854   0.58443   0.59527   0.59591
 Alpha virt. eigenvalues --    0.60048   0.60545   0.60993   0.61635   0.61933
 Alpha virt. eigenvalues --    0.62383   0.63695   0.64046   0.64298   0.65135
 Alpha virt. eigenvalues --    0.65290   0.65630   0.65794   0.66234   0.66722
 Alpha virt. eigenvalues --    0.67911   0.68609   0.68916   0.69436   0.70176
 Alpha virt. eigenvalues --    0.70407   0.70780   0.71186   0.71515   0.71869
 Alpha virt. eigenvalues --    0.72728   0.73260   0.73748   0.73845   0.74225
 Alpha virt. eigenvalues --    0.74374   0.74939   0.75283   0.75670   0.76161
 Alpha virt. eigenvalues --    0.76583   0.76830   0.77345   0.77636   0.77819
 Alpha virt. eigenvalues --    0.78126   0.78183   0.78586   0.79093   0.79475
 Alpha virt. eigenvalues --    0.79828   0.80382   0.80862   0.81246   0.81618
 Alpha virt. eigenvalues --    0.81791   0.82013   0.82340   0.82578   0.83135
 Alpha virt. eigenvalues --    0.83606   0.83779   0.84100   0.84569   0.84863
 Alpha virt. eigenvalues --    0.85446   0.85573   0.86046   0.86228   0.86680
 Alpha virt. eigenvalues --    0.86999   0.87424   0.88190   0.88322   0.88932
 Alpha virt. eigenvalues --    0.89175   0.89216   0.89836   0.89950   0.90904
 Alpha virt. eigenvalues --    0.90978   0.91653   0.91932   0.93062   0.93341
 Alpha virt. eigenvalues --    0.93640   0.95335   0.95589   0.95943   0.97070
 Alpha virt. eigenvalues --    0.97273   0.97747   0.98027   0.99530   1.00865
 Alpha virt. eigenvalues --    1.01406   1.02843   1.03217   1.03994   1.04717
 Alpha virt. eigenvalues --    1.05860   1.06110   1.07040   1.07187   1.08205
 Alpha virt. eigenvalues --    1.09134   1.09662   1.10340   1.11745   1.12596
 Alpha virt. eigenvalues --    1.13056   1.14014   1.14894   1.15483   1.16865
 Alpha virt. eigenvalues --    1.17173   1.17771   1.18729   1.19274   1.20307
 Alpha virt. eigenvalues --    1.21225   1.21593   1.22483   1.23516   1.24378
 Alpha virt. eigenvalues --    1.25699   1.26353   1.27212   1.27787   1.29072
 Alpha virt. eigenvalues --    1.30451   1.30561   1.31296   1.31608   1.32212
 Alpha virt. eigenvalues --    1.32741   1.33176   1.33836   1.34197   1.34593
 Alpha virt. eigenvalues --    1.35488   1.36689   1.37036   1.37498   1.37855
 Alpha virt. eigenvalues --    1.38320   1.38782   1.39416   1.40723   1.40907
 Alpha virt. eigenvalues --    1.41466   1.42397   1.43068   1.44346   1.47003
 Alpha virt. eigenvalues --    1.47670   1.49137   1.49685   1.50169   1.51330
 Alpha virt. eigenvalues --    1.52164   1.53679   1.55346   1.55878   1.56957
 Alpha virt. eigenvalues --    1.57592   1.58319   1.58973   1.60621   1.61823
 Alpha virt. eigenvalues --    1.62615   1.63297   1.64171   1.64465   1.64740
 Alpha virt. eigenvalues --    1.65176   1.65483   1.66750   1.67204   1.67749
 Alpha virt. eigenvalues --    1.67938   1.68739   1.69452   1.69920   1.70583
 Alpha virt. eigenvalues --    1.70825   1.71329   1.71623   1.71909   1.72447
 Alpha virt. eigenvalues --    1.73194   1.73440   1.73963   1.74738   1.75736
 Alpha virt. eigenvalues --    1.75917   1.76922   1.77445   1.78121   1.79316
 Alpha virt. eigenvalues --    1.79498   1.79851   1.80251   1.81404   1.81842
 Alpha virt. eigenvalues --    1.82641   1.82906   1.83227   1.83549   1.83808
 Alpha virt. eigenvalues --    1.84800   1.85188   1.86193   1.86814   1.87331
 Alpha virt. eigenvalues --    1.87600   1.88023   1.88811   1.89604   1.89834
 Alpha virt. eigenvalues --    1.90614   1.91309   1.91767   1.92541   1.93007
 Alpha virt. eigenvalues --    1.93697   1.94363   1.95015   1.95219   1.95521
 Alpha virt. eigenvalues --    1.95800   1.96941   1.97847   1.98530   1.98641
 Alpha virt. eigenvalues --    1.99345   1.99669   2.00624   2.02138   2.02947
 Alpha virt. eigenvalues --    2.03656   2.03987   2.04125   2.04433   2.05002
 Alpha virt. eigenvalues --    2.07775   2.08379   2.09761   2.10461   2.10922
 Alpha virt. eigenvalues --    2.12243   2.13241   2.13437   2.14456   2.15044
 Alpha virt. eigenvalues --    2.15606   2.16617   2.17227   2.17571   2.18000
 Alpha virt. eigenvalues --    2.18688   2.18978   2.20264   2.20376   2.20753
 Alpha virt. eigenvalues --    2.20799   2.22228   2.23738   2.25174   2.25358
 Alpha virt. eigenvalues --    2.27183   2.27780   2.28717   2.29432   2.30478
 Alpha virt. eigenvalues --    2.31477   2.32326   2.32915   2.33075   2.34262
 Alpha virt. eigenvalues --    2.34642   2.35337   2.35844   2.37306   2.38441
 Alpha virt. eigenvalues --    2.38941   2.39459   2.40258   2.41314   2.43090
 Alpha virt. eigenvalues --    2.43286   2.43571   2.44709   2.46440   2.46888
 Alpha virt. eigenvalues --    2.47233   2.48030   2.49389   2.49858   2.51121
 Alpha virt. eigenvalues --    2.51651   2.52255   2.52655   2.52900   2.53869
 Alpha virt. eigenvalues --    2.55421   2.55656   2.56085   2.57002   2.58385
 Alpha virt. eigenvalues --    2.60527   2.61009   2.62166   2.62827   2.63052
 Alpha virt. eigenvalues --    2.64157   2.64618   2.64966   2.65346   2.66229
 Alpha virt. eigenvalues --    2.66974   2.67436   2.70624   2.73260   2.73792
 Alpha virt. eigenvalues --    2.74465   2.75912   2.77731   2.79163   2.82257
 Alpha virt. eigenvalues --    2.85084   2.88321   2.90214   2.91366   2.92939
 Alpha virt. eigenvalues --    2.93503   2.93902   2.94589   2.95769   2.96722
 Alpha virt. eigenvalues --    2.97320   2.99544   3.03057   3.07618   3.09067
 Alpha virt. eigenvalues --    3.30512   3.71066   3.76355   3.79544   3.81616
 Alpha virt. eigenvalues --    3.87425   3.90097   3.91664   3.94162   3.99067
 Alpha virt. eigenvalues --    3.99679   4.00489   4.02235   4.04133   4.06602
 Alpha virt. eigenvalues --    4.07902   4.08874   4.10581   4.14482   4.18759
 Alpha virt. eigenvalues --    4.19103   4.20623   4.22055   4.23495   4.24280
 Alpha virt. eigenvalues --    4.27894   4.29725   4.31207   4.33027   4.36874
 Alpha virt. eigenvalues --    4.40766   4.42920   4.48325   4.49211   4.52957
 Alpha virt. eigenvalues --    4.55164   4.57729   4.60936   4.61442   4.63638
          Condensed to atoms (all electrons):
 Mulliken charges:
               1
     1  N   -0.764177
     2  C   -0.098657
     3  C    0.658601
     4  O   -0.521575
     5  C   -0.392399
     6  C    0.114925
     7  C   -0.189183
     8  C   -0.202197
     9  C   -0.126771
    10  C   -0.131441
    11  C   -0.125672
    12  H    0.412225
    13  H    0.405152
    14  H    0.215934
    15  H    0.179138
    16  H    0.191035
    17  H    0.141434
    18  H    0.162785
    19  H    0.162065
    20  H    0.157107
    21  H    0.162114
    22  H    0.468747
    23  N   -0.656073
    24  C   -0.017871
    25  C    0.613937
    26  O   -0.497444
    27  C   -0.307454
    28  C   -0.078878
    29  C   -0.462651
    30  C   -0.446441
    31  H    0.350468
    32  H    0.208963
    33  H    0.155416
    34  H    0.135654
    35  H    0.145161
    36  H    0.139722
    37  H    0.158720
    38  H    0.175928
    39  H    0.140420
    40  H    0.160842
    41  H    0.148820
    42  N   -0.606407
    43  C   -0.063032
    44  C    0.619776
    45  O   -0.610003
    46  C   -0.380902
    47  C    0.637395
    48  N   -0.736038
    49  O   -0.531863
    50  H    0.342437
    51  H    0.224100
    52  H    0.192622
    53  H    0.192182
    54  H    0.366890
    55  H    0.358761
    56  N   -0.627384
    57  C   -0.015137
    58  C    0.656495
    59  O   -0.528378
    60  C   -0.278548
    61  C   -0.280996
    62  C   -0.115746
    63  N   -0.633709
    64  C    0.575331
    65  N   -0.629082
    66  N   -0.763157
    67  O   -0.569135
    68  H    0.421182
    69  H    0.410279
    70  H    0.197362
    71  H    0.148803
    72  H    0.150744
    73  H    0.191856
    74  H    0.142740
    75  H    0.178724
    76  H    0.134737
    77  H    0.333370
    78  H    0.281550
    79  H    0.330226
    80  H    0.335528
 Sum of Mulliken charges =   1.00000
 Mulliken charges with hydrogens summed into heavy atoms:
               1
     1  N    0.521946
     2  C    0.117277
     3  C    0.658601
     4  O   -0.521575
     5  C   -0.022225
     6  C    0.114925
     7  C   -0.047749
     8  C   -0.039412
     9  C    0.035293
    10  C    0.025666
    11  C    0.036441
    23  N   -0.305605
    24  C    0.191092
    25  C    0.613937
    26  O   -0.497444
    27  C   -0.016385
    28  C    0.066283
    29  C    0.011718
    30  C    0.003642
    42  N   -0.263969
    43  C    0.161068
    44  C    0.619776
    45  O   -0.610003
    46  C    0.003902
    47  C    0.637395
    48  N   -0.010387
    49  O   -0.531863
    56  N   -0.217105
    57  C    0.182224
    58  C    0.656495
    59  O   -0.528378
    60  C    0.020999
    61  C    0.053600
    62  C    0.197715
    63  N   -0.300340
    64  C    0.575331
    65  N   -0.347533
    66  N   -0.097403
    67  O   -0.147952
 Electronic spatial extent (au):  <R**2>=         221994.9173
 Charge=              1.0000 electrons
 Dipole moment (field-independent basis, Debye):
    X=            -13.5995    Y=             57.7186    Z=            -32.7963  Tot=             67.7641
 Quadrupole moment (field-independent basis, Debye-Ang):
   XX=           -134.9751   YY=            482.4827   ZZ=             61.0740
   XY=           -173.9725   XZ=            108.2018   YZ=           -364.3602
 Traceless Quadrupole moment (field-independent basis, Debye-Ang):
   XX=           -271.1690   YY=            346.2888   ZZ=            -75.1198
   XY=           -173.9725   XZ=            108.2018   YZ=           -364.3602
 Octapole moment (field-independent basis, Debye-Ang**2):
  XXX=           1157.7221  YYY=           1065.3449  ZZZ=           1885.9425  XYY=          -1520.5760
  XXY=          -1530.5397  XXZ=            886.6516  XZZ=           -511.6298  YZZ=            356.6373
  YYZ=          -2538.3827  XYZ=           1317.3279
 Hexadecapole moment (field-independent basis, Debye-Ang**3):
 XXXX=         -22036.9082 YYYY=         -72220.9694 ZZZZ=         -42938.7619 XXXY=          12119.0448
 XXXZ=          -6380.7842 YYYX=          -5394.2510 YYYZ=           5662.6130 ZZZX=           1555.5899
 ZZZY=          25447.6497 XXYY=         -22841.0922 XXZZ=          -9844.9036 YYZZ=         -12415.2498
 XXYZ=          10076.8534 YYXZ=          11648.5653 ZZXY=          -6278.4390
 N-N= 4.902910203303D+03 E-N=-1.412374506460D+04  KE= 1.849287248379D+03
 Unable to Open any file for archive entry.
 1\1\GINC-LAC-317\SP\RB3LYP\6-31G(d)\C25H41N8O6(1+)\KENGMITH\11-Jun-202
 2\0\\# B3LYP/6-31G* empiricaldispersion=gd3 guess=read geom=check nosy
 mm integral(ultrafinegrid)\\Candidate Structure: Conf:611 Charge calc 
 in gas phase\\1,1\N,0,-1.7681035778,11.8448821316,-4.9118076858\C,0,-3
 .0433098639,12.3354347846,-4.2927560239\C,0,-4.0652542491,11.234267464
 4,-4.6617319224\O,0,-3.659238428,10.0856848634,-4.8220005475\C,0,-3.35
 21035168,13.7657909273,-4.7847813995\C,0,-2.1127562582,14.6375250515,-
 4.7884623473\C,0,-1.5829265708,15.1474179238,-3.5953332968\C,0,-1.4288
 798032,14.8643845081,-5.9914355841\C,0,-0.3910730558,15.8742898604,-3.
 6058463995\C,0,-0.2353113069,15.5890892876,-6.0013585898\C,0,0.2862355
 723,16.0936008358,-4.8083829723\H,0,-1.6482945314,10.8438925707,-4.714
 9302016\H,0,-0.9456397068,12.3747646926,-4.6153919668\H,0,-2.889738184
 7,12.330439665,-3.2083823829\H,0,-4.1210039993,14.1893694024,-4.127606
 9048\H,0,-3.7619757757,13.7074074058,-5.7966515555\H,0,-2.1094548739,1
 4.9870848549,-2.6565090078\H,0,-1.8350833398,14.4683689617,-6.91843479
 84\H,0,0.0053754158,16.2736247017,-2.6769523767\H,0,0.2818409799,15.76
 23973379,-6.9409268609\H,0,1.2123311705,16.6606087704,-4.8146965648\H,
 0,-1.8456167542,11.907505729,-5.9539141565\N,0,-5.3517318816,11.599351
 4826,-4.8477199709\C,0,-6.3353465824,10.6428963908,-5.3818916035\C,0,-
 5.8681578302,10.0684682117,-6.7368796392\O,0,-6.1036528178,8.914380070
 8,-7.0510378307\C,0,-7.7056534983,11.3338867434,-5.4868409254\C,0,-8.8
 323960139,10.4698897001,-6.0875403556\C,0,-9.0320657687,9.1562593116,-
 5.3180416371\C,0,-10.1292353402,11.2904707788,-6.1333612286\H,0,-5.642
 1571999,12.5548510357,-4.6893254087\H,0,-6.3843053801,9.7826618249,-4.
 7115165288\H,0,-8.0002069327,11.6540245875,-4.4770145484\H,0,-7.591498
 6242,12.2444073768,-6.0938914677\H,0,-8.550424178,10.2165621162,-7.118
 5701243\H,0,-9.2096376424,9.3483689113,-4.2515498795\H,0,-9.9028795231
 ,8.6169183985,-5.7057308352\H,0,-8.165195696,8.496920221,-5.4194855544
 \H,0,-9.9998786319,12.224266328,-6.6941224349\H,0,-10.931580803,10.719
 612421,-6.612371825\H,0,-10.4651659848,11.5494493175,-5.1211673958\N,0
 ,-5.2264925818,10.9612928418,-7.5639789597\C,0,-4.3159326904,10.472655
 1532,-8.5826792598\C,0,-2.9231639891,11.0846280169,-8.2890435212\O,0,-
 2.8032395597,11.9538197658,-7.3976253912\C,0,-4.8388015338,10.75015034
 55,-10.0145840731\C,0,-4.3295062169,9.7387102783,-11.0411963968\N,0,-5
 .1152033707,9.5526226671,-12.1233592961\O,0,-3.2595569258,9.1361540169
 ,-10.9063346923\H,0,-4.9159165606,11.8253846749,-7.1370296735\H,0,-4.2
 417614615,9.3865551945,-8.458424351\H,0,-5.9318176981,10.7216010892,-9
 .9698874791\H,0,-4.5610301784,11.7583540891,-10.3486832773\H,0,-4.8168
 804812,8.8888998201,-12.826298141\H,0,-6.0296838145,9.9696267153,-12.2
 142590471\N,0,-1.9151368686,10.6176069261,-9.0260515194\C,0,-0.4910632
 394,10.9690910676,-8.8579154401\C,0,-0.007260816,10.1952467477,-7.6271
 101814\O,0,0.0448002806,10.6300964292,-6.4898622538\C,0,-0.223072897,1
 2.4822596724,-8.7693384353\C,0,1.1711493916,12.9124903197,-9.247222039
 4\C,0,2.3375554922,12.3798471467,-8.4095425749\N,0,2.4129035445,10.912
 9135656,-8.4296578647\C,0,2.9184064706,10.2781178113,-9.5776742942\N,0
 ,3.1974499342,10.9628966526,-10.6231764512\N,0,3.0595476344,8.90148846
 68,-9.3711778708\O,0,0.1871667648,8.8868326868,-7.9039190347\H,0,0.348
 2232728,8.4336534176,-7.0538165084\H,0,-2.1694993281,9.9070649112,-9.7
 272672351\H,0,0.0126923523,10.5533787907,-9.7325911205\H,0,-0.38659518
 6,12.8142779576,-7.7416652857\H,0,-0.9776405025,12.9812255087,-9.38715
 44712\H,0,1.3290390709,12.6186029308,-10.2889332656\H,0,1.2141977052,1
 4.0092110641,-9.2197695991\H,0,3.2736962528,12.820652324,-8.7726091809
 \H,0,2.2003492006,12.6678938992,-7.3609110186\H,0,2.8149025941,10.5225
 442777,-7.5838088579\H,0,3.4686935217,10.3626743709,-11.4029536037\H,0
 ,3.3187212735,8.3827816693,-10.2016930145\H,0,2.2705036701,8.477079538
 1,-8.8939735604\\Version=ES64L-G16RevC.01\HF=-1866.722192\RMSD=7.096e-
 09\Dipole=-0.3977304,1.0888506,0.7095843\Quadrupole=-201.607481,257.45
 72422,-55.8497612,-129.3442958,80.4453748,-270.8929048\PG=C01 [X(C25H4
 1N8O6)]\\@
 The archive entry for this job was punched.


 DO YOU KNOW THAT THE LETTERS IN "EPISCOPAL", WHEN
 REARRANGED, SPELL "PEPSI COLA"?
 Job cpu time:       0 days  0 hours  3 minutes 43.5 seconds.
 Elapsed time:       0 days  0 hours  0 minutes 56.6 seconds.
 File lengths (MBytes):  RWF=    344 Int=      0 D2E=      0 Chk=     56 Scr=     16
 Normal termination of Gaussian 16 at Sat Jun 11 21:07:20 2022.
