 Entering Gaussian System, Link 0=/opt/software/Gaussian/g16-AVX-C.01/g16/g16
 Input=charge-conf-962.com
 Output=charge-conf-962.log
 Initial command:
 /opt/software/Gaussian/g16-AVX-C.01/g16/l1.exe "/mnt/gs18/scratch/users/kengmith/Gau-37644.inp" -scrdir="/mnt/gs18/scratch/users/kengmith/"
 Entering Link 1 = /opt/software/Gaussian/g16-AVX-C.01/g16/l1.exe PID=     37659.
  
 Copyright (c) 1988-2019, Gaussian, Inc.  All Rights Reserved.
  
 This is part of the Gaussian(R) 16 program.  It is based on
 the Gaussian(R) 09 system (copyright 2009, Gaussian, Inc.),
 the Gaussian(R) 03 system (copyright 2003, Gaussian, Inc.),
 the Gaussian(R) 98 system (copyright 1998, Gaussian, Inc.),
 the Gaussian(R) 94 system (copyright 1995, Gaussian, Inc.),
 the Gaussian 92(TM) system (copyright 1992, Gaussian, Inc.),
 the Gaussian 90(TM) system (copyright 1990, Gaussian, Inc.),
 the Gaussian 88(TM) system (copyright 1988, Gaussian, Inc.),
 the Gaussian 86(TM) system (copyright 1986, Carnegie Mellon
 University), and the Gaussian 82(TM) system (copyright 1983,
 Carnegie Mellon University). Gaussian is a federally registered
 trademark of Gaussian, Inc.
  
 This software contains proprietary and confidential information,
 including trade secrets, belonging to Gaussian, Inc.
  
 This software is provided under written license and may be
 used, copied, transmitted, or stored only in accord with that
 written license.
  
 The following legend is applicable only to US Government
 contracts under FAR:
  
                    RESTRICTED RIGHTS LEGEND
  
 Use, reproduction and disclosure by the US Government is
 subject to restrictions as set forth in subparagraphs (a)
 and (c) of the Commercial Computer Software - Restricted
 Rights clause in FAR 52.227-19.
  
 Gaussian, Inc.
 340 Quinnipiac St., Bldg. 40, Wallingford CT 06492
  
  
 ---------------------------------------------------------------
 Warning -- This program may not be used in any manner that
 competes with the business of Gaussian, Inc. or will provide
 assistance to any competitor of Gaussian, Inc.  The licensee
 of this program is prohibited from giving any competitor of
 Gaussian, Inc. access to this program.  By using this program,
 the user acknowledges that Gaussian, Inc. is engaged in the
 business of creating and licensing software in the field of
 computational chemistry and represents and warrants to the
 licensee that it is not a competitor of Gaussian, Inc. and that
 it will not use this program in any manner prohibited above.
 ---------------------------------------------------------------
  

 Cite this work as:
 Gaussian 16, Revision C.01,
 M. J. Frisch, G. W. Trucks, H. B. Schlegel, G. E. Scuseria, 
 M. A. Robb, J. R. Cheeseman, G. Scalmani, V. Barone, 
 G. A. Petersson, H. Nakatsuji, X. Li, M. Caricato, A. V. Marenich, 
 J. Bloino, B. G. Janesko, R. Gomperts, B. Mennucci, H. P. Hratchian, 
 J. V. Ortiz, A. F. Izmaylov, J. L. Sonnenberg, D. Williams-Young, 
 F. Ding, F. Lipparini, F. Egidi, J. Goings, B. Peng, A. Petrone, 
 T. Henderson, D. Ranasinghe, V. G. Zakrzewski, J. Gao, N. Rega, 
 G. Zheng, W. Liang, M. Hada, M. Ehara, K. Toyota, R. Fukuda, 
 J. Hasegawa, M. Ishida, T. Nakajima, Y. Honda, O. Kitao, H. Nakai, 
 T. Vreven, K. Throssell, J. A. Montgomery, Jr., J. E. Peralta, 
 F. Ogliaro, M. J. Bearpark, J. J. Heyd, E. N. Brothers, K. N. Kudin, 
 V. N. Staroverov, T. A. Keith, R. Kobayashi, J. Normand, 
 K. Raghavachari, A. P. Rendell, J. C. Burant, S. S. Iyengar, 
 J. Tomasi, M. Cossi, J. M. Millam, M. Klene, C. Adamo, R. Cammi, 
 J. W. Ochterski, R. L. Martin, K. Morokuma, O. Farkas, 
 J. B. Foresman, and D. J. Fox, Gaussian, Inc., Wallingford CT, 2019.
 
 ******************************************
 Gaussian 16:  ES64L-G16RevC.01  3-Jul-2019
                11-Jun-2022 
 ******************************************
 %mem=8gb
 %nproc=4
 Will use up to    4 processors via shared memory.
 %chk=conf-962.chk
 ----------------------------------------------------------------------
 # B3LYP/6-31G* empiricaldispersion=gd3 guess=read geom=check nosymm in
 tegral(ultrafinegrid)
 ----------------------------------------------------------------------
 1/29=2,38=1,172=1/1;
 2/12=2,15=1,40=1/2;
 3/5=1,6=6,7=1,11=2,14=-4,25=1,30=1,74=-5,75=-5,116=-2,124=31/1,2,3;
 4/5=1/1;
 5/5=2,38=6/2;
 6/7=2,8=2,9=2,10=2,28=1/1;
 99/5=1,9=1/99;
 ------------------------------------------------------
 Candidate Structure: Conf:962 Charge calc in gas phase
 ------------------------------------------------------
 Structure from the checkpoint file:  "conf-962.chk"
 Charge =  1 Multiplicity = 1
 Redundant internal coordinates found in file.  (old form).
 N,0,-1.8898705915,12.7721417031,-5.368422204
 C,0,-1.8852517124,11.6858769965,-4.3393791538
 C,0,-0.6930417157,10.7718077818,-4.6843413888
 O,0,0.4168548344,11.0252824478,-4.2454067716
 C,0,-3.2502697475,10.989511675,-4.2203260637
 C,0,-4.3737029184,11.882828917,-3.7303274727
 C,0,-4.2403105735,12.6397725324,-2.5553369385
 C,0,-5.5862554591,11.9489330989,-4.4297039309
 C,0,-5.2828060605,13.4499430582,-2.0996991121
 C,0,-6.6401011415,12.7428229081,-3.9690952492
 C,0,-6.4920609403,13.5018059413,-2.804663795
 H,0,-1.0669027727,13.35140055,-5.1859035219
 H,0,-3.2662462364,14.0455847255,-5.3959010688
 H,0,-1.6289759851,12.1491116331,-3.3845896665
 H,0,-3.1291327308,10.1454171724,-3.5279534177
 H,0,-3.5421135162,10.5581013162,-5.1826401408
 H,0,-3.3207622206,12.5880550602,-1.9783708932
 H,0,-5.7264024056,11.3616692432,-5.3336629396
 H,0,-5.1637540726,14.0154554988,-1.1796810577
 H,0,-7.5799257623,12.7548406793,-4.5145685177
 H,0,-7.3203187176,14.0950264285,-2.4241278752
 H,0,-1.655028757,12.3375695239,-6.2636777635
 N,0,-0.9337253176,9.7757022218,-5.6065061055
 C,0,0.1354989727,9.3809742633,-6.5352007406
 C,0,-0.1217101025,10.2474424211,-7.7867220677
 O,0,-0.1269144921,11.4826835084,-7.6681654535
 C,0,0.1996512185,7.8611385583,-6.7167195043
 C,0,1.4239660955,7.3358079324,-7.4988424982
 C,0,2.7372245394,7.6109260465,-6.7507079153
 C,0,1.2591004008,5.8337231802,-7.7712675726
 H,0,-1.8735574215,9.6951661527,-5.9800640089
 H,0,1.0600321872,9.748957462,-6.085579529
 H,0,0.2076959846,7.4210653576,-5.7124962305
 H,0,-0.7326766837,7.5056800021,-7.1838565269
 H,0,1.4786177181,7.8523160157,-8.4685775518
 H,0,2.9220536499,8.6807010153,-6.6058419162
 H,0,2.726676823,7.135003968,-5.7622942511
 H,0,3.5886406811,7.2054346565,-7.3074907977
 H,0,1.2008847375,5.2728211917,-6.8302730786
 H,0,0.3462147775,5.6225959263,-8.3420529961
 H,0,2.1092854504,5.4422826292,-8.3398440507
 N,0,-0.4605868611,9.6432916185,-8.9522074564
 C,0,-1.0662852324,10.4152343578,-10.0446348087
 C,0,-2.5562835393,10.631157455,-9.702111978
 O,0,-3.4710717016,10.0073307757,-10.2225128839
 C,0,-0.9233637562,9.7426587556,-11.4003844828
 C,0,-1.4214644115,10.7171423621,-12.4770143841
 N,0,-1.465324996,10.2156490521,-13.7373896065
 O,0,-1.7291684815,11.8727578665,-12.2062052096
 H,0,-0.5754499069,8.6389744293,-8.9662104821
 H,0,-0.5654203813,11.383653292,-10.069963537
 H,0,0.1261246919,9.4868741634,-11.5865198542
 H,0,-1.5165697551,8.8216914914,-11.4375955774
 H,0,-1.8269342799,10.8048909538,-14.4746519702
 H,0,-1.2968846756,9.2418216863,-13.9408862413
 N,0,-2.7446141515,11.516612211,-8.6838405776
 C,0,-4.0576551107,11.7960479928,-8.1432064244
 C,0,-4.8381716466,10.5287836165,-7.8065468233
 O,0,-6.0414432165,10.4380832103,-7.8346947365
 C,0,-4.8569505018,12.75042588,-9.0422336291
 C,0,-4.0987934535,14.0541158289,-9.3294937156
 C,0,-3.6812801068,14.8432103739,-8.0815270387
 N,0,-4.8599890034,15.1585841392,-7.2592815116
 C,0,-4.9458080262,15.2064355509,-5.9238444255
 N,0,-3.9755265623,14.762796417,-5.1284642947
 N,0,-6.0433489346,15.7613793197,-5.3599618615
 O,0,-4.0339357036,9.5439928767,-7.3145450775
 H,0,-4.6203573214,8.7879752159,-7.1181519678
 H,0,-1.914205911,11.9574874795,-8.3030116428
 H,0,-3.8971082045,12.2655451406,-7.1630477325
 H,0,-5.8240422788,12.945541872,-8.5674493118
 H,0,-5.0616456648,12.2370363527,-9.9859582294
 H,0,-3.1944231995,13.8373910891,-9.9086578685
 H,0,-4.7198061931,14.6951681556,-9.9691776951
 H,0,-2.9787156923,14.2708215931,-7.4730892882
 H,0,-3.1779764474,15.7749061379,-8.364636873
 H,0,-5.6720020628,15.4708511737,-7.7761839527
 H,0,-4.1600725601,14.7734034275,-4.1314998043
 H,0,-6.3226961802,15.4336302077,-4.4430702772
 H,0,-6.7739825264,16.1543383183,-5.9355228502
 Recover connectivity data from disk.
                           ----------------------------
                           !    Current Parameters    !
                           ! (Angstroms and Degrees)  !
 --------------------------                            --------------------------
 ! Name  Definition              Value                                          !
 --------------------------------------------------------------------------------
 ! R1    R(1,2)                  1.4963                                         !
 ! R2    R(1,12)                 1.0228                                         !
 ! R3    R(1,13)                 1.8753                                         !
 ! R4    R(1,22)                 1.0225                                         !
 ! R5    R(2,3)                  1.5414                                         !
 ! R6    R(2,5)                  1.537                                          !
 ! R7    R(2,14)                 1.0917                                         !
 ! R8    R(3,4)                  1.2202                                         !
 ! R9    R(3,23)                 1.3786                                         !
 ! R10   R(5,6)                  1.5166                                         !
 ! R11   R(5,15)                 1.0984                                         !
 ! R12   R(5,16)                 1.0942                                         !
 ! R13   R(6,7)                  1.4041                                         !
 ! R14   R(6,8)                  1.4013                                         !
 ! R15   R(7,9)                  1.3967                                         !
 ! R16   R(7,17)                 1.0868                                         !
 ! R17   R(8,10)                 1.3975                                         !
 ! R18   R(8,18)                 1.087                                          !
 ! R19   R(9,11)                 1.4007                                         !
 ! R20   R(9,19)                 1.0865                                         !
 ! R21   R(10,11)                1.3978                                         !
 ! R22   R(10,20)                1.0867                                         !
 ! R23   R(11,21)                1.0875                                         !
 ! R24   R(23,24)                1.4702                                         !
 ! R25   R(23,31)                1.0146                                         !
 ! R26   R(24,25)                1.5438                                         !
 ! R27   R(24,27)                1.532                                          !
 ! R28   R(24,32)                1.0919                                         !
 ! R29   R(25,26)                1.2409                                         !
 ! R30   R(25,42)                1.3558                                         !
 ! R31   R(27,28)                1.5449                                         !
 ! R32   R(27,33)                1.0964                                         !
 ! R33   R(27,34)                1.1017                                         !
 ! R34   R(28,29)                1.5362                                         !
 ! R35   R(28,30)                1.5355                                         !
 ! R36   R(28,35)                1.1001                                         !
 ! R37   R(29,36)                1.0952                                         !
 ! R38   R(29,37)                1.0971                                         !
 ! R39   R(29,38)                1.0951                                         !
 ! R40   R(30,39)                1.097                                          !
 ! R41   R(30,40)                1.0971                                         !
 ! R42   R(30,41)                1.0951                                         !
 ! R43   R(42,43)                1.4684                                         !
 ! R44   R(42,50)                1.011                                          !
 ! R45   R(43,44)                1.544                                          !
 ! R46   R(43,46)                1.5201                                         !
 ! R47   R(43,51)                1.0906                                         !
 ! R48   R(44,45)                1.2234                                         !
 ! R49   R(44,56)                1.3625                                         !
 ! R50   R(46,47)                1.5352                                         !
 ! R51   R(46,52)                1.0961                                         !
 ! R52   R(46,53)                1.0961                                         !
 ! R53   R(47,48)                1.3572                                         !
 ! R54   R(47,49)                1.2262                                         !
 ! R55   R(48,54)                1.0107                                         !
 ! R56   R(48,55)                1.009                                          !
 ! R57   R(56,57)                1.4472                                         !
 ! R58   R(56,69)                1.0144                                         !
 ! R59   R(57,58)                1.5259                                         !
 ! R60   R(57,60)                1.5356                                         !
 ! R61   R(57,70)                1.0986                                         !
 ! R62   R(58,59)                1.207                                          !
 ! R63   R(58,67)                1.3633                                         !
 ! R64   R(60,61)                1.5352                                         !
 ! R65   R(60,71)                1.0949                                         !
 ! R66   R(60,72)                1.0937                                         !
 ! R67   R(61,62)                1.5344                                         !
 ! R68   R(61,73)                1.0956                                         !
 ! R69   R(61,74)                1.0981                                         !
 ! R70   R(62,63)                1.4714                                         !
 ! R71   R(62,75)                1.0915                                         !
 ! R72   R(62,76)                1.0961                                         !
 ! R73   R(63,64)                1.339                                          !
 ! R74   R(63,77)                1.012                                          !
 ! R75   R(64,65)                1.3307                                         !
 ! R76   R(64,66)                1.353                                          !
 ! R77   R(65,78)                1.014                                          !
 ! R78   R(66,79)                1.013                                          !
 ! R79   R(66,80)                1.0097                                         !
 ! R80   R(67,68)                0.9767                                         !
 ! A1    A(2,1,12)             106.615                                          !
 ! A2    A(2,1,13)             120.3521                                         !
 ! A3    A(2,1,22)             107.0312                                         !
 ! A4    A(12,1,13)            102.0392                                         !
 ! A5    A(12,1,22)            102.2481                                         !
 ! A6    A(13,1,22)            116.3816                                         !
 ! A7    A(1,2,3)              106.1996                                         !
 ! A8    A(1,2,5)              112.299                                          !
 ! A9    A(1,2,14)             107.1064                                         !
 ! A10   A(3,2,5)              115.8219                                         !
 ! A11   A(3,2,14)             105.4136                                         !
 ! A12   A(5,2,14)             109.4494                                         !
 ! A13   A(2,3,4)              119.9912                                         !
 ! A14   A(2,3,23)             116.305                                          !
 ! A15   A(4,3,23)             123.3356                                         !
 ! A16   A(2,5,6)              114.5833                                         !
 ! A17   A(2,5,15)             107.4002                                         !
 ! A18   A(2,5,16)             110.3268                                         !
 ! A19   A(6,5,15)             109.3094                                         !
 ! A20   A(6,5,16)             108.5898                                         !
 ! A21   A(15,5,16)            106.3069                                         !
 ! A22   A(5,6,7)              121.1674                                         !
 ! A23   A(5,6,8)              120.4963                                         !
 ! A24   A(7,6,8)              118.3221                                         !
 ! A25   A(6,7,9)              120.9847                                         !
 ! A26   A(6,7,17)             119.9342                                         !
 ! A27   A(9,7,17)             119.0746                                         !
 ! A28   A(6,8,10)             120.9843                                         !
 ! A29   A(6,8,18)             120.0721                                         !
 ! A30   A(10,8,18)            118.9312                                         !
 ! A31   A(7,9,11)             120.1107                                         !
 ! A32   A(7,9,19)             119.7609                                         !
 ! A33   A(11,9,19)            120.1004                                         !
 ! A34   A(8,10,11)            120.209                                          !
 ! A35   A(8,10,20)            119.5382                                         !
 ! A36   A(11,10,20)           120.247                                          !
 ! A37   A(9,11,10)            119.3796                                         !
 ! A38   A(9,11,21)            120.1052                                         !
 ! A39   A(10,11,21)           120.4648                                         !
 ! A40   A(3,23,24)            119.3116                                         !
 ! A41   A(3,23,31)            117.7347                                         !
 ! A42   A(24,23,31)           114.8221                                         !
 ! A43   A(23,24,25)           103.9002                                         !
 ! A44   A(23,24,27)           111.8177                                         !
 ! A45   A(23,24,32)           105.3778                                         !
 ! A46   A(25,24,27)           117.8876                                         !
 ! A47   A(25,24,32)           106.6027                                         !
 ! A48   A(27,24,32)           110.3443                                         !
 ! A49   A(24,25,26)           118.8123                                         !
 ! A50   A(24,25,42)           119.2377                                         !
 ! A51   A(26,25,42)           121.6442                                         !
 ! A52   A(24,27,28)           115.5008                                         !
 ! A53   A(24,27,33)           106.8561                                         !
 ! A54   A(24,27,34)           109.5653                                         !
 ! A55   A(28,27,33)           108.747                                          !
 ! A56   A(28,27,34)           110.2597                                         !
 ! A57   A(33,27,34)           105.3702                                         !
 ! A58   A(27,28,29)           111.7171                                         !
 ! A59   A(27,28,30)           109.7177                                         !
 ! A60   A(27,28,35)           109.0261                                         !
 ! A61   A(29,28,30)           110.6943                                         !
 ! A62   A(29,28,35)           107.6221                                         !
 ! A63   A(30,28,35)           107.9537                                         !
 ! A64   A(28,29,36)           112.5565                                         !
 ! A65   A(28,29,37)           110.6616                                         !
 ! A66   A(28,29,38)           110.5302                                         !
 ! A67   A(36,29,37)           107.8289                                         !
 ! A68   A(36,29,38)           107.3195                                         !
 ! A69   A(37,29,38)           107.7525                                         !
 ! A70   A(28,30,39)           110.7131                                         !
 ! A71   A(28,30,40)           111.7089                                         !
 ! A72   A(28,30,41)           111.0034                                         !
 ! A73   A(39,30,40)           107.6803                                         !
 ! A74   A(39,30,41)           107.6849                                         !
 ! A75   A(40,30,41)           107.8823                                         !
 ! A76   A(25,42,43)           120.5557                                         !
 ! A77   A(25,42,50)           118.8803                                         !
 ! A78   A(43,42,50)           117.7155                                         !
 ! A79   A(42,43,44)           107.8505                                         !
 ! A80   A(42,43,46)           113.0872                                         !
 ! A81   A(42,43,51)           107.1371                                         !
 ! A82   A(44,43,46)           110.5146                                         !
 ! A83   A(44,43,51)           108.9152                                         !
 ! A84   A(46,43,51)           109.2076                                         !
 ! A85   A(43,44,45)           123.7716                                         !
 ! A86   A(43,44,56)           112.9583                                         !
 ! A87   A(45,44,56)           123.0871                                         !
 ! A88   A(43,46,47)           108.3068                                         !
 ! A89   A(43,46,52)           110.1641                                         !
 ! A90   A(43,46,53)           110.5571                                         !
 ! A91   A(47,46,52)           109.8575                                         !
 ! A92   A(47,46,53)           109.5077                                         !
 ! A93   A(52,46,53)           108.4413                                         !
 ! A94   A(46,47,48)           115.2903                                         !
 ! A95   A(46,47,49)           121.6529                                         !
 ! A96   A(48,47,49)           123.0414                                         !
 ! A97   A(47,48,54)           118.2654                                         !
 ! A98   A(47,48,55)           122.5827                                         !
 ! A99   A(54,48,55)           118.3775                                         !
 ! A100  A(44,56,57)           122.011                                          !
 ! A101  A(44,56,69)           116.7358                                         !
 ! A102  A(57,56,69)           121.2361                                         !
 ! A103  A(56,57,58)           112.7145                                         !
 ! A104  A(56,57,60)           111.935                                          !
 ! A105  A(56,57,70)           106.4526                                         !
 ! A106  A(58,57,60)           112.2766                                         !
 ! A107  A(58,57,70)           103.4634                                         !
 ! A108  A(60,57,70)           109.4393                                         !
 ! A109  A(57,58,59)           124.5533                                         !
 ! A110  A(57,58,67)           112.1958                                         !
 ! A111  A(59,58,67)           122.8343                                         !
 ! A112  A(57,60,61)           112.3507                                         !
 ! A113  A(57,60,71)           108.4602                                         !
 ! A114  A(57,60,72)           108.112                                          !
 ! A115  A(61,60,71)           111.4698                                         !
 ! A116  A(61,60,72)           109.2443                                         !
 ! A117  A(71,60,72)           107.0093                                         !
 ! A118  A(60,61,62)           114.765                                          !
 ! A119  A(60,61,73)           109.7906                                         !
 ! A120  A(60,61,74)           108.9934                                         !
 ! A121  A(62,61,73)           107.8829                                         !
 ! A122  A(62,61,74)           109.1144                                         !
 ! A123  A(73,61,74)           105.9243                                         !
 ! A124  A(61,62,63)           110.2892                                         !
 ! A125  A(61,62,75)           111.0279                                         !
 ! A126  A(61,62,76)           110.6091                                         !
 ! A127  A(63,62,75)           108.453                                          !
 ! A128  A(63,62,76)           109.2677                                         !
 ! A129  A(75,62,76)           107.1068                                         !
 ! A130  A(62,63,64)           128.0485                                         !
 ! A131  A(62,63,77)           115.0563                                         !
 ! A132  A(64,63,77)           116.549                                          !
 ! A133  A(63,64,65)           122.5095                                         !
 ! A134  A(63,64,66)           118.8356                                         !
 ! A135  A(65,64,66)           118.6273                                         !
 ! A136  A(64,65,78)           116.839                                          !
 ! A137  A(64,66,79)           117.9196                                         !
 ! A138  A(64,66,80)           120.6009                                         !
 ! A139  A(79,66,80)           116.2522                                         !
 ! A140  A(58,67,68)           106.111                                          !
 ! D1    D(12,1,2,3)           -69.2294                                         !
 ! D2    D(12,1,2,5)           163.225                                          !
 ! D3    D(12,1,2,14)           43.0421                                         !
 ! D4    D(13,1,2,3)           175.4948                                         !
 ! D5    D(13,1,2,5)            47.9493                                         !
 ! D6    D(13,1,2,14)          -72.2337                                         !
 ! D7    D(22,1,2,3)            39.612                                          !
 ! D8    D(22,1,2,5)           -87.9336                                         !
 ! D9    D(22,1,2,14)          151.8835                                         !
 ! D10   D(1,2,3,4)             87.2392                                         !
 ! D11   D(1,2,3,23)           -86.0265                                         !
 ! D12   D(5,2,3,4)           -147.3428                                         !
 ! D13   D(5,2,3,23)            39.3915                                         !
 ! D14   D(14,2,3,4)           -26.2035                                         !
 ! D15   D(14,2,3,23)          160.5307                                         !
 ! D16   D(1,2,5,6)            -64.2479                                         !
 ! D17   D(1,2,5,15)           174.1218                                         !
 ! D18   D(1,2,5,16)            58.6619                                         !
 ! D19   D(3,2,5,6)            173.5146                                         !
 ! D20   D(3,2,5,15)            51.8843                                         !
 ! D21   D(3,2,5,16)           -63.5756                                         !
 ! D22   D(14,2,5,6)            54.567                                          !
 ! D23   D(14,2,5,15)          -67.0633                                         !
 ! D24   D(14,2,5,16)          177.4768                                         !
 ! D25   D(2,3,23,24)          145.7524                                         !
 ! D26   D(2,3,23,31)           -1.2958                                         !
 ! D27   D(4,3,23,24)          -27.2652                                         !
 ! D28   D(4,3,23,31)         -174.3133                                         !
 ! D29   D(2,5,6,7)            -51.9937                                         !
 ! D30   D(2,5,6,8)            129.3959                                         !
 ! D31   D(15,5,6,7)            68.5866                                         !
 ! D32   D(15,5,6,8)          -110.0238                                         !
 ! D33   D(16,5,6,7)          -175.8352                                         !
 ! D34   D(16,5,6,8)             5.5544                                         !
 ! D35   D(5,6,7,9)           -179.2925                                         !
 ! D36   D(5,6,7,17)            -0.2306                                         !
 ! D37   D(8,6,7,9)             -0.6526                                         !
 ! D38   D(8,6,7,17)           178.4093                                         !
 ! D39   D(5,6,8,10)           178.3856                                         !
 ! D40   D(5,6,8,18)            -0.3192                                         !
 ! D41   D(7,6,8,10)            -0.2637                                         !
 ! D42   D(7,6,8,18)          -178.9685                                         !
 ! D43   D(6,7,9,11)             0.9822                                         !
 ! D44   D(6,7,9,19)           179.0579                                         !
 ! D45   D(17,7,9,11)         -178.0877                                         !
 ! D46   D(17,7,9,19)           -0.012                                          !
 ! D47   D(6,8,10,11)            0.8532                                         !
 ! D48   D(6,8,10,20)         -178.2754                                         !
 ! D49   D(18,8,10,11)         179.5725                                         !
 ! D50   D(18,8,10,20)           0.4439                                         !
 ! D51   D(7,9,11,10)           -0.3838                                         !
 ! D52   D(7,9,11,21)          177.0466                                         !
 ! D53   D(19,9,11,10)        -178.453                                          !
 ! D54   D(19,9,11,21)          -1.0225                                         !
 ! D55   D(8,10,11,9)           -0.5221                                         !
 ! D56   D(8,10,11,21)        -177.9431                                         !
 ! D57   D(20,10,11,9)         178.6003                                         !
 ! D58   D(20,10,11,21)          1.1793                                         !
 ! D59   D(3,23,24,25)         -93.2658                                         !
 ! D60   D(3,23,24,27)         138.5567                                         !
 ! D61   D(3,23,24,32)          18.6564                                         !
 ! D62   D(31,23,24,25)         54.6985                                         !
 ! D63   D(31,23,24,27)        -73.479                                          !
 ! D64   D(31,23,24,32)        166.6207                                         !
 ! D65   D(23,24,25,26)         58.3401                                         !
 ! D66   D(23,24,25,42)       -115.4151                                         !
 ! D67   D(27,24,25,26)       -177.3175                                         !
 ! D68   D(27,24,25,42)          8.9272                                         !
 ! D69   D(32,24,25,26)        -52.6899                                         !
 ! D70   D(32,24,25,42)        133.5549                                         !
 ! D71   D(23,24,27,28)       -170.9258                                         !
 ! D72   D(23,24,27,33)        -49.8223                                         !
 ! D73   D(23,24,27,34)         63.8564                                         !
 ! D74   D(25,24,27,28)         68.768                                          !
 ! D75   D(25,24,27,33)       -170.1284                                         !
 ! D76   D(25,24,27,34)        -56.4497                                         !
 ! D77   D(32,24,27,28)        -53.9841                                         !
 ! D78   D(32,24,27,33)         67.1195                                         !
 ! D79   D(32,24,27,34)       -179.2018                                         !
 ! D80   D(24,25,42,43)        163.0029                                         !
 ! D81   D(24,25,42,50)          2.5411                                         !
 ! D82   D(26,25,42,43)        -10.5691                                         !
 ! D83   D(26,25,42,50)       -171.0309                                         !
 ! D84   D(24,27,28,29)         64.6601                                         !
 ! D85   D(24,27,28,30)       -172.1907                                         !
 ! D86   D(24,27,28,35)        -54.159                                          !
 ! D87   D(33,27,28,29)        -55.4164                                         !
 ! D88   D(33,27,28,30)         67.7328                                         !
 ! D89   D(33,27,28,35)       -174.2354                                         !
 ! D90   D(34,27,28,29)       -170.4809                                         !
 ! D91   D(34,27,28,30)        -47.3317                                         !
 ! D92   D(34,27,28,35)         70.7                                            !
 ! D93   D(27,28,29,36)        -61.6578                                         !
 ! D94   D(27,28,29,37)         59.0703                                         !
 ! D95   D(27,28,29,38)        178.3573                                         !
 ! D96   D(30,28,29,36)        175.7493                                         !
 ! D97   D(30,28,29,37)        -63.5226                                         !
 ! D98   D(30,28,29,38)         55.7643                                         !
 ! D99   D(35,28,29,36)         57.9922                                         !
 ! D100  D(35,28,29,37)        178.7203                                         !
 ! D101  D(35,28,29,38)        -61.9928                                         !
 ! D102  D(27,28,30,39)        -61.3789                                         !
 ! D103  D(27,28,30,40)         58.6227                                         !
 ! D104  D(27,28,30,41)        179.0789                                         !
 ! D105  D(29,28,30,39)         62.3711                                         !
 ! D106  D(29,28,30,40)       -177.6274                                         !
 ! D107  D(29,28,30,41)        -57.1711                                         !
 ! D108  D(35,28,30,39)        179.9252                                         !
 ! D109  D(35,28,30,40)        -60.0733                                         !
 ! D110  D(35,28,30,41)         60.383                                          !
 ! D111  D(25,42,43,44)        -78.1981                                         !
 ! D112  D(25,42,43,46)        159.2883                                         !
 ! D113  D(25,42,43,51)         38.911                                          !
 ! D114  D(50,42,43,44)         82.4849                                         !
 ! D115  D(50,42,43,46)        -40.0287                                         !
 ! D116  D(50,42,43,51)       -160.406                                          !
 ! D117  D(42,43,44,45)       -103.6276                                         !
 ! D118  D(42,43,44,56)         71.5822                                         !
 ! D119  D(46,43,44,45)         20.4529                                         !
 ! D120  D(46,43,44,56)       -164.3374                                         !
 ! D121  D(51,43,44,45)        140.4225                                         !
 ! D122  D(51,43,44,56)        -44.3678                                         !
 ! D123  D(42,43,46,47)       -172.6106                                         !
 ! D124  D(42,43,46,52)        -52.4354                                         !
 ! D125  D(42,43,46,53)         67.4072                                         !
 ! D126  D(44,43,46,47)         66.3728                                         !
 ! D127  D(44,43,46,52)       -173.452                                          !
 ! D128  D(44,43,46,53)        -53.6094                                         !
 ! D129  D(51,43,46,47)        -53.4209                                         !
 ! D130  D(51,43,46,52)         66.7542                                         !
 ! D131  D(51,43,46,53)       -173.4032                                         !
 ! D132  D(43,44,56,57)       -175.7585                                         !
 ! D133  D(43,44,56,69)          2.7515                                         !
 ! D134  D(45,44,56,57)         -0.5111                                         !
 ! D135  D(45,44,56,69)        177.9989                                         !
 ! D136  D(43,46,47,48)       -174.5372                                         !
 ! D137  D(43,46,47,49)          6.851                                          !
 ! D138  D(52,46,47,48)         65.0964                                         !
 ! D139  D(52,46,47,49)       -113.5155                                         !
 ! D140  D(53,46,47,48)        -53.9004                                         !
 ! D141  D(53,46,47,49)        127.4878                                         !
 ! D142  D(46,47,48,54)        177.2109                                         !
 ! D143  D(46,47,48,55)          7.4624                                         !
 ! D144  D(49,47,48,54)         -4.1987                                         !
 ! D145  D(49,47,48,55)       -173.9472                                         !
 ! D146  D(44,56,57,58)         49.4206                                         !
 ! D147  D(44,56,57,60)        -78.2846                                         !
 ! D148  D(44,56,57,70)        162.1759                                         !
 ! D149  D(69,56,57,58)       -129.0231                                         !
 ! D150  D(69,56,57,60)        103.2717                                         !
 ! D151  D(69,56,57,70)        -16.2678                                         !
 ! D152  D(56,57,58,59)       -150.656                                          !
 ! D153  D(56,57,58,67)         36.5922                                         !
 ! D154  D(60,57,58,59)        -23.1309                                         !
 ! D155  D(60,57,58,67)        164.1173                                         !
 ! D156  D(70,57,58,59)         94.7663                                         !
 ! D157  D(70,57,58,67)        -77.9855                                         !
 ! D158  D(56,57,60,61)        -54.6766                                         !
 ! D159  D(56,57,60,71)       -178.3505                                         !
 ! D160  D(56,57,60,72)         65.9494                                         !
 ! D161  D(58,57,60,61)        177.3846                                         !
 ! D162  D(58,57,60,71)         53.7107                                         !
 ! D163  D(58,57,60,72)        -61.9894                                         !
 ! D164  D(70,57,60,61)         63.0924                                         !
 ! D165  D(70,57,60,71)        -60.5815                                         !
 ! D166  D(70,57,60,72)       -176.2816                                         !
 ! D167  D(57,58,67,68)        179.1343                                         !
 ! D168  D(59,58,67,68)          6.2382                                         !
 ! D169  D(57,60,61,62)        -56.9931                                         !
 ! D170  D(57,60,61,73)         64.7022                                         !
 ! D171  D(57,60,61,74)       -179.6884                                         !
 ! D172  D(71,60,61,62)         64.9857                                         !
 ! D173  D(71,60,61,73)       -173.319                                          !
 ! D174  D(71,60,61,74)        -57.7096                                         !
 ! D175  D(72,60,61,62)       -176.9641                                         !
 ! D176  D(72,60,61,73)        -55.2687                                         !
 ! D177  D(72,60,61,74)         60.3407                                         !
 ! D178  D(60,61,62,63)        -57.0356                                         !
 ! D179  D(60,61,62,75)         63.207                                          !
 ! D180  D(60,61,62,76)       -178.0258                                         !
 ! D181  D(73,61,62,63)       -179.7639                                         !
 ! D182  D(73,61,62,75)        -59.5213                                         !
 ! D183  D(73,61,62,76)         59.2458                                         !
 ! D184  D(74,61,62,63)         65.5945                                         !
 ! D185  D(74,61,62,75)       -174.1629                                         !
 ! D186  D(74,61,62,76)        -55.3958                                         !
 ! D187  D(61,62,63,64)        144.1039                                         !
 ! D188  D(61,62,63,77)        -42.9484                                         !
 ! D189  D(75,62,63,64)         22.324                                          !
 ! D190  D(75,62,63,77)       -164.7283                                         !
 ! D191  D(76,62,63,64)        -94.1084                                         !
 ! D192  D(76,62,63,77)         78.8393                                         !
 ! D193  D(62,63,64,65)        -10.5866                                         !
 ! D194  D(62,63,64,66)        167.4756                                         !
 ! D195  D(77,63,64,65)        176.5556                                         !
 ! D196  D(77,63,64,66)         -5.3822                                         !
 ! D197  D(63,64,65,78)       -175.3498                                         !
 ! D198  D(66,64,65,78)          6.5841                                         !
 ! D199  D(63,64,66,79)        151.9274                                         !
 ! D200  D(63,64,66,80)         -1.579                                          !
 ! D201  D(65,64,66,79)        -29.9343                                         !
 ! D202  D(65,64,66,80)        176.5593                                         !
 --------------------------------------------------------------------------------
 Symmetry turned off by external request.
 Stoichiometry    C25H41N8O6(1+)
 Framework group  C1[X(C25H41N8O6)]
 Deg. of freedom   234
 Full point group                 C1      NOp   1
                          Input orientation:                          
 ---------------------------------------------------------------------
 Center     Atomic      Atomic             Coordinates (Angstroms)
 Number     Number       Type             X           Y           Z
 ---------------------------------------------------------------------
      1          7           0       -1.889871   12.772142   -5.368422
      2          6           0       -1.885252   11.685877   -4.339379
      3          6           0       -0.693042   10.771808   -4.684341
      4          8           0        0.416855   11.025282   -4.245407
      5          6           0       -3.250270   10.989512   -4.220326
      6          6           0       -4.373703   11.882829   -3.730327
      7          6           0       -4.240311   12.639773   -2.555337
      8          6           0       -5.586255   11.948933   -4.429704
      9          6           0       -5.282806   13.449943   -2.099699
     10          6           0       -6.640101   12.742823   -3.969095
     11          6           0       -6.492061   13.501806   -2.804664
     12          1           0       -1.066903   13.351401   -5.185904
     13          1           0       -3.266246   14.045585   -5.395901
     14          1           0       -1.628976   12.149112   -3.384590
     15          1           0       -3.129133   10.145417   -3.527953
     16          1           0       -3.542114   10.558101   -5.182640
     17          1           0       -3.320762   12.588055   -1.978371
     18          1           0       -5.726402   11.361669   -5.333663
     19          1           0       -5.163754   14.015455   -1.179681
     20          1           0       -7.579926   12.754841   -4.514569
     21          1           0       -7.320319   14.095026   -2.424128
     22          1           0       -1.655029   12.337570   -6.263678
     23          7           0       -0.933725    9.775702   -5.606506
     24          6           0        0.135499    9.380974   -6.535201
     25          6           0       -0.121710   10.247442   -7.786722
     26          8           0       -0.126914   11.482684   -7.668165
     27          6           0        0.199651    7.861139   -6.716720
     28          6           0        1.423966    7.335808   -7.498842
     29          6           0        2.737225    7.610926   -6.750708
     30          6           0        1.259100    5.833723   -7.771268
     31          1           0       -1.873557    9.695166   -5.980064
     32          1           0        1.060032    9.748957   -6.085580
     33          1           0        0.207696    7.421065   -5.712496
     34          1           0       -0.732677    7.505680   -7.183857
     35          1           0        1.478618    7.852316   -8.468578
     36          1           0        2.922054    8.680701   -6.605842
     37          1           0        2.726677    7.135004   -5.762294
     38          1           0        3.588641    7.205435   -7.307491
     39          1           0        1.200885    5.272821   -6.830273
     40          1           0        0.346215    5.622596   -8.342053
     41          1           0        2.109285    5.442283   -8.339844
     42          7           0       -0.460587    9.643292   -8.952207
     43          6           0       -1.066285   10.415234  -10.044635
     44          6           0       -2.556284   10.631157   -9.702112
     45          8           0       -3.471072   10.007331  -10.222513
     46          6           0       -0.923364    9.742659  -11.400384
     47          6           0       -1.421464   10.717142  -12.477014
     48          7           0       -1.465325   10.215649  -13.737390
     49          8           0       -1.729168   11.872758  -12.206205
     50          1           0       -0.575450    8.638974   -8.966210
     51          1           0       -0.565420   11.383653  -10.069964
     52          1           0        0.126125    9.486874  -11.586520
     53          1           0       -1.516570    8.821691  -11.437596
     54          1           0       -1.826934   10.804891  -14.474652
     55          1           0       -1.296885    9.241822  -13.940886
     56          7           0       -2.744614   11.516612   -8.683841
     57          6           0       -4.057655   11.796048   -8.143206
     58          6           0       -4.838172   10.528784   -7.806547
     59          8           0       -6.041443   10.438083   -7.834695
     60          6           0       -4.856951   12.750426   -9.042234
     61          6           0       -4.098793   14.054116   -9.329494
     62          6           0       -3.681280   14.843210   -8.081527
     63          7           0       -4.859989   15.158584   -7.259282
     64          6           0       -4.945808   15.206436   -5.923844
     65          7           0       -3.975527   14.762796   -5.128464
     66          7           0       -6.043349   15.761379   -5.359962
     67          8           0       -4.033936    9.543993   -7.314545
     68          1           0       -4.620357    8.787975   -7.118152
     69          1           0       -1.914206   11.957487   -8.303012
     70          1           0       -3.897108   12.265545   -7.163048
     71          1           0       -5.824042   12.945542   -8.567449
     72          1           0       -5.061646   12.237036   -9.985958
     73          1           0       -3.194423   13.837391   -9.908658
     74          1           0       -4.719806   14.695168   -9.969178
     75          1           0       -2.978716   14.270822   -7.473089
     76          1           0       -3.177976   15.774906   -8.364637
     77          1           0       -5.672002   15.470851   -7.776184
     78          1           0       -4.160073   14.773403   -4.131500
     79          1           0       -6.322696   15.433630   -4.443070
     80          1           0       -6.773983   16.154338   -5.935523
 ---------------------------------------------------------------------
 Rotational constants (GHZ):           0.1231355           0.0715768           0.0536317
 Standard basis: 6-31G(d) (6D, 7F)
   667 basis functions,  1256 primitive gaussians,   667 cartesian basis functions
   147 alpha electrons      147 beta electrons
       nuclear repulsion energy      5025.2831887626 Hartrees.
 NAtoms=   80 NActive=   80 NUniq=   80 SFac= 1.00D+00 NAtFMM=   60 NAOKFM=T Big=T
 Integral buffers will be    131072 words long.
 Raffenetti 2 integral format.
 Two-electron integral symmetry is turned off.
 Nuclear repulsion after empirical dispersion term =     5025.1624167487 Hartrees.
 One-electron integrals computed using PRISM.
 NBasis=   667 RedAO= T EigKep=  4.47D-04  NBF=   667
 NBsUse=   667 1.00D-06 EigRej= -1.00D+00 NBFU=   667
 Initial guess from the checkpoint file:  "conf-962.chk"
 B after Tr=     0.000000    0.000000    0.000000
         Rot=    1.000000    0.000000    0.000000    0.000000 Ang=   0.00 deg.
 Requested convergence on RMS density matrix=1.00D-08 within 128 cycles.
 Requested convergence on MAX density matrix=1.00D-06.
 Requested convergence on             energy=1.00D-06.
 No special actions if energy rises.
 SCF Done:  E(RB3LYP) =  -1866.73169539     A.U. after    1 cycles
            NFock=  1  Conv=0.42D-08     -V/T= 2.0094

 **********************************************************************

            Population analysis using the SCF Density.

 **********************************************************************

 Alpha  occ. eigenvalues --  -19.30411 -19.24390 -19.22346 -19.21263 -19.20748
 Alpha  occ. eigenvalues --  -19.19423 -14.51632 -14.50697 -14.48788 -14.47362
 Alpha  occ. eigenvalues --  -14.45447 -14.45302 -14.45241 -14.43603 -10.47075
 Alpha  occ. eigenvalues --  -10.42627 -10.39447 -10.38092 -10.37917 -10.37369
 Alpha  occ. eigenvalues --  -10.35476 -10.34779 -10.33402 -10.32935 -10.32522
 Alpha  occ. eigenvalues --  -10.31041 -10.30316 -10.30261 -10.30180 -10.30049
 Alpha  occ. eigenvalues --  -10.29999 -10.29926 -10.29823 -10.28908 -10.28861
 Alpha  occ. eigenvalues --  -10.27650 -10.27358 -10.24851 -10.24562  -1.20962
 Alpha  occ. eigenvalues --   -1.15532  -1.14589  -1.13175  -1.12605  -1.12080
 Alpha  occ. eigenvalues --   -1.11172  -1.05376  -1.03338  -1.03056  -1.02663
 Alpha  occ. eigenvalues --   -1.02040  -1.00774  -0.98400  -0.96633  -0.91386
 Alpha  occ. eigenvalues --   -0.89994  -0.89090  -0.87975  -0.86145  -0.85486
 Alpha  occ. eigenvalues --   -0.84077  -0.81907  -0.80871  -0.77598  -0.76992
 Alpha  occ. eigenvalues --   -0.75741  -0.75534  -0.74083  -0.73559  -0.72298
 Alpha  occ. eigenvalues --   -0.71536  -0.71167  -0.69476  -0.69155  -0.68634
 Alpha  occ. eigenvalues --   -0.67828  -0.66792  -0.66215  -0.65515  -0.64524
 Alpha  occ. eigenvalues --   -0.64248  -0.63150  -0.62036  -0.61907  -0.61189
 Alpha  occ. eigenvalues --   -0.60886  -0.60680  -0.60017  -0.59484  -0.59074
 Alpha  occ. eigenvalues --   -0.58487  -0.57735  -0.57662  -0.56939  -0.56595
 Alpha  occ. eigenvalues --   -0.56217  -0.55572  -0.54941  -0.54254  -0.53735
 Alpha  occ. eigenvalues --   -0.53446  -0.52955  -0.52661  -0.52626  -0.52307
 Alpha  occ. eigenvalues --   -0.51931  -0.51622  -0.51399  -0.50621  -0.50302
 Alpha  occ. eigenvalues --   -0.50025  -0.49846  -0.48894  -0.48398  -0.47814
 Alpha  occ. eigenvalues --   -0.47608  -0.47305  -0.46551  -0.46525  -0.46346
 Alpha  occ. eigenvalues --   -0.45963  -0.45818  -0.45549  -0.45296  -0.45028
 Alpha  occ. eigenvalues --   -0.44955  -0.44622  -0.44442  -0.43863  -0.42258
 Alpha  occ. eigenvalues --   -0.41772  -0.41188  -0.40722  -0.40536  -0.40206
 Alpha  occ. eigenvalues --   -0.39631  -0.38601  -0.37887  -0.36880  -0.36329
 Alpha  occ. eigenvalues --   -0.35754  -0.35126  -0.34692  -0.34396  -0.34043
 Alpha  occ. eigenvalues --   -0.33450  -0.33324
 Alpha virt. eigenvalues --   -0.12458  -0.11698  -0.10970  -0.10623  -0.09653
 Alpha virt. eigenvalues --   -0.07395  -0.07089  -0.06014  -0.05107  -0.04535
 Alpha virt. eigenvalues --   -0.03298  -0.02616  -0.02132  -0.01354  -0.00928
 Alpha virt. eigenvalues --   -0.00255   0.00133   0.00824   0.01255   0.01707
 Alpha virt. eigenvalues --    0.02456   0.02718   0.03118   0.03388   0.03661
 Alpha virt. eigenvalues --    0.04469   0.04491   0.04809   0.05191   0.05363
 Alpha virt. eigenvalues --    0.05730   0.06123   0.06251   0.06685   0.06999
 Alpha virt. eigenvalues --    0.07051   0.07590   0.07706   0.08021   0.08519
 Alpha virt. eigenvalues --    0.08556   0.08927   0.09229   0.09659   0.10024
 Alpha virt. eigenvalues --    0.10413   0.10898   0.11292   0.11313   0.11514
 Alpha virt. eigenvalues --    0.11868   0.11910   0.12471   0.13032   0.13387
 Alpha virt. eigenvalues --    0.13713   0.14028   0.14393   0.14996   0.15163
 Alpha virt. eigenvalues --    0.15655   0.16107   0.16413   0.16666   0.17143
 Alpha virt. eigenvalues --    0.17381   0.18067   0.18699   0.19446   0.19597
 Alpha virt. eigenvalues --    0.20138   0.21006   0.22118   0.22653   0.23440
 Alpha virt. eigenvalues --    0.24401   0.25051   0.25542   0.26356   0.27083
 Alpha virt. eigenvalues --    0.27348   0.28337   0.29361   0.30543   0.31149
 Alpha virt. eigenvalues --    0.31391   0.33436   0.34385   0.35934   0.37133
 Alpha virt. eigenvalues --    0.38962   0.39822   0.40527   0.40840   0.41784
 Alpha virt. eigenvalues --    0.42279   0.42623   0.42783   0.43343   0.43791
 Alpha virt. eigenvalues --    0.43884   0.44268   0.44722   0.44765   0.45126
 Alpha virt. eigenvalues --    0.45433   0.45914   0.46138   0.46707   0.47868
 Alpha virt. eigenvalues --    0.48207   0.48702   0.49166   0.49489   0.49904
 Alpha virt. eigenvalues --    0.50155   0.50563   0.50833   0.50885   0.51381
 Alpha virt. eigenvalues --    0.51708   0.52032   0.52701   0.52897   0.53573
 Alpha virt. eigenvalues --    0.54400   0.54846   0.55103   0.55805   0.56382
 Alpha virt. eigenvalues --    0.56815   0.57068   0.57105   0.57447   0.57775
 Alpha virt. eigenvalues --    0.58176   0.58465   0.58699   0.59211   0.60089
 Alpha virt. eigenvalues --    0.60184   0.60852   0.60997   0.61532   0.62016
 Alpha virt. eigenvalues --    0.62488   0.62786   0.63097   0.64104   0.64231
 Alpha virt. eigenvalues --    0.64819   0.65794   0.66011   0.66936   0.67611
 Alpha virt. eigenvalues --    0.67781   0.68768   0.69602   0.69924   0.70319
 Alpha virt. eigenvalues --    0.71074   0.71498   0.72046   0.72425   0.72599
 Alpha virt. eigenvalues --    0.72704   0.73190   0.73257   0.73740   0.74089
 Alpha virt. eigenvalues --    0.74716   0.74795   0.75649   0.75943   0.76179
 Alpha virt. eigenvalues --    0.76586   0.76996   0.77086   0.77804   0.78028
 Alpha virt. eigenvalues --    0.78728   0.78961   0.79078   0.79303   0.79435
 Alpha virt. eigenvalues --    0.79893   0.80513   0.80948   0.81282   0.81355
 Alpha virt. eigenvalues --    0.81756   0.81922   0.82151   0.82426   0.83367
 Alpha virt. eigenvalues --    0.83762   0.83919   0.84069   0.84503   0.84896
 Alpha virt. eigenvalues --    0.85532   0.86446   0.86696   0.86853   0.87814
 Alpha virt. eigenvalues --    0.88317   0.88636   0.88820   0.89213   0.89713
 Alpha virt. eigenvalues --    0.90143   0.90917   0.91198   0.91464   0.92215
 Alpha virt. eigenvalues --    0.92835   0.93561   0.94444   0.95184   0.95913
 Alpha virt. eigenvalues --    0.96503   0.96710   0.97400   0.98103   0.98415
 Alpha virt. eigenvalues --    0.99766   0.99973   1.00654   1.01754   1.02670
 Alpha virt. eigenvalues --    1.03539   1.03784   1.04422   1.05157   1.05366
 Alpha virt. eigenvalues --    1.06306   1.06754   1.07547   1.08074   1.09124
 Alpha virt. eigenvalues --    1.09431   1.09998   1.11422   1.11768   1.12740
 Alpha virt. eigenvalues --    1.13076   1.14507   1.14870   1.15311   1.16371
 Alpha virt. eigenvalues --    1.16955   1.17174   1.17898   1.19247   1.20679
 Alpha virt. eigenvalues --    1.21244   1.21824   1.22218   1.22629   1.23692
 Alpha virt. eigenvalues --    1.24388   1.24846   1.25421   1.26615   1.27358
 Alpha virt. eigenvalues --    1.28836   1.28983   1.29765   1.31315   1.32078
 Alpha virt. eigenvalues --    1.32866   1.33301   1.33491   1.34649   1.34806
 Alpha virt. eigenvalues --    1.36232   1.37369   1.38172   1.38714   1.38996
 Alpha virt. eigenvalues --    1.39038   1.40284   1.40836   1.40961   1.42978
 Alpha virt. eigenvalues --    1.43737   1.44609   1.45002   1.46281   1.47788
 Alpha virt. eigenvalues --    1.49341   1.50270   1.51518   1.51874   1.52509
 Alpha virt. eigenvalues --    1.53050   1.55019   1.55655   1.56636   1.57203
 Alpha virt. eigenvalues --    1.58028   1.59916   1.60996   1.61194   1.62076
 Alpha virt. eigenvalues --    1.62458   1.62782   1.63043   1.63922   1.64125
 Alpha virt. eigenvalues --    1.64948   1.65742   1.66189   1.67301   1.67919
 Alpha virt. eigenvalues --    1.68559   1.68784   1.69405   1.69755   1.70245
 Alpha virt. eigenvalues --    1.70664   1.71836   1.71864   1.72359   1.73086
 Alpha virt. eigenvalues --    1.73490   1.74626   1.75287   1.75810   1.76738
 Alpha virt. eigenvalues --    1.77211   1.77807   1.78291   1.79069   1.79217
 Alpha virt. eigenvalues --    1.79620   1.80156   1.81017   1.81467   1.82155
 Alpha virt. eigenvalues --    1.82602   1.83298   1.83404   1.83831   1.84039
 Alpha virt. eigenvalues --    1.84566   1.85387   1.85716   1.86755   1.87107
 Alpha virt. eigenvalues --    1.87210   1.88344   1.89191   1.89590   1.90174
 Alpha virt. eigenvalues --    1.91017   1.91844   1.92535   1.92736   1.93571
 Alpha virt. eigenvalues --    1.93721   1.94060   1.94885   1.95352   1.96387
 Alpha virt. eigenvalues --    1.97037   1.97323   1.97525   1.97896   1.98083
 Alpha virt. eigenvalues --    1.98958   2.00388   2.01333   2.01696   2.01920
 Alpha virt. eigenvalues --    2.02669   2.03336   2.03525   2.03784   2.03912
 Alpha virt. eigenvalues --    2.05643   2.06731   2.07634   2.09624   2.09855
 Alpha virt. eigenvalues --    2.10105   2.10655   2.11823   2.13099   2.13863
 Alpha virt. eigenvalues --    2.14677   2.15973   2.16565   2.17339   2.17635
 Alpha virt. eigenvalues --    2.17914   2.19136   2.19971   2.20064   2.20420
 Alpha virt. eigenvalues --    2.21558   2.21618   2.23137   2.24529   2.25147
 Alpha virt. eigenvalues --    2.27065   2.27522   2.27974   2.28404   2.28894
 Alpha virt. eigenvalues --    2.30184   2.31152   2.31355   2.32787   2.33293
 Alpha virt. eigenvalues --    2.34642   2.34978   2.36905   2.37120   2.38008
 Alpha virt. eigenvalues --    2.38902   2.39850   2.40598   2.41385   2.42059
 Alpha virt. eigenvalues --    2.42819   2.43557   2.44609   2.45522   2.46529
 Alpha virt. eigenvalues --    2.46844   2.48287   2.48992   2.49295   2.50053
 Alpha virt. eigenvalues --    2.51902   2.52859   2.53601   2.54118   2.54624
 Alpha virt. eigenvalues --    2.54936   2.56014   2.56494   2.57865   2.59838
 Alpha virt. eigenvalues --    2.60773   2.61279   2.61888   2.62299   2.62385
 Alpha virt. eigenvalues --    2.63003   2.63954   2.64000   2.65268   2.65622
 Alpha virt. eigenvalues --    2.67812   2.68018   2.71075   2.73429   2.74002
 Alpha virt. eigenvalues --    2.76586   2.77469   2.79826   2.82445   2.83290
 Alpha virt. eigenvalues --    2.87170   2.88838   2.89376   2.90561   2.92746
 Alpha virt. eigenvalues --    2.93613   2.94782   2.95819   2.96238   2.99351
 Alpha virt. eigenvalues --    3.00899   3.01973   3.04035   3.07490   3.10599
 Alpha virt. eigenvalues --    3.29520   3.69573   3.73597   3.79108   3.82942
 Alpha virt. eigenvalues --    3.87979   3.91942   3.92488   3.95532   3.97168
 Alpha virt. eigenvalues --    4.01987   4.04226   4.06064   4.07303   4.08506
 Alpha virt. eigenvalues --    4.09515   4.10179   4.12433   4.14676   4.18710
 Alpha virt. eigenvalues --    4.19315   4.20799   4.21125   4.21830   4.23690
 Alpha virt. eigenvalues --    4.27267   4.30029   4.30872   4.35115   4.37535
 Alpha virt. eigenvalues --    4.40187   4.41650   4.43475   4.50244   4.52934
 Alpha virt. eigenvalues --    4.55864   4.59461   4.60338   4.61433   4.64780
          Condensed to atoms (all electrons):
 Mulliken charges:
               1
     1  N   -0.803676
     2  C   -0.073849
     3  C    0.592927
     4  O   -0.486384
     5  C   -0.392596
     6  C    0.187855
     7  C   -0.203887
     8  C   -0.209919
     9  C   -0.148817
    10  C   -0.141779
    11  C   -0.182368
    12  H    0.348868
    13  H    0.448938
    14  H    0.181845
    15  H    0.190482
    16  H    0.154357
    17  H    0.157580
    18  H    0.157159
    19  H    0.165658
    20  H    0.157037
    21  H    0.159318
    22  H    0.345975
    23  N   -0.613673
    24  C   -0.060481
    25  C    0.611552
    26  O   -0.553952
    27  C   -0.292428
    28  C   -0.090949
    29  C   -0.453302
    30  C   -0.443540
    31  H    0.343425
    32  H    0.222034
    33  H    0.172311
    34  H    0.121853
    35  H    0.123241
    36  H    0.154917
    37  H    0.156042
    38  H    0.160734
    39  H    0.155827
    40  H    0.134808
    41  H    0.160274
    42  N   -0.605952
    43  C   -0.061272
    44  C    0.666616
    45  O   -0.528327
    46  C   -0.402964
    47  C    0.641418
    48  N   -0.752876
    49  O   -0.518698
    50  H    0.353148
    51  H    0.212934
    52  H    0.188770
    53  H    0.184139
    54  H    0.356183
    55  H    0.347900
    56  N   -0.646574
    57  C   -0.069296
    58  C    0.641963
    59  O   -0.461417
    60  C   -0.255770
    61  C   -0.316217
    62  C   -0.152496
    63  N   -0.606883
    64  C    0.793940
    65  N   -0.788231
    66  N   -0.761018
    67  O   -0.585642
    68  H    0.427202
    69  H    0.375461
    70  H    0.164622
    71  H    0.148866
    72  H    0.206060
    73  H    0.203598
    74  H    0.161894
    75  H    0.169731
    76  H    0.198118
    77  H    0.354302
    78  H    0.363994
    79  H    0.373409
    80  H    0.365948
 Sum of Mulliken charges =   1.00000
 Mulliken charges with hydrogens summed into heavy atoms:
               1
     1  N   -0.108833
     2  C    0.107996
     3  C    0.592927
     4  O   -0.486384
     5  C   -0.047757
     6  C    0.187855
     7  C   -0.046307
     8  C   -0.052761
     9  C    0.016840
    10  C    0.015258
    11  C   -0.023050
    23  N   -0.270248
    24  C    0.161552
    25  C    0.611552
    26  O   -0.553952
    27  C    0.001737
    28  C    0.032291
    29  C    0.018391
    30  C    0.007368
    42  N   -0.252804
    43  C    0.151662
    44  C    0.666616
    45  O   -0.528327
    46  C   -0.030055
    47  C    0.641418
    48  N   -0.048793
    49  O   -0.518698
    56  N   -0.271112
    57  C    0.095326
    58  C    0.641963
    59  O   -0.461417
    60  C    0.099156
    61  C    0.049275
    62  C    0.215353
    63  N   -0.252580
    64  C    0.793940
    65  N    0.024702
    66  N   -0.021661
    67  O   -0.158440
 Electronic spatial extent (au):  <R**2>=         216021.9449
 Charge=              1.0000 electrons
 Dipole moment (field-independent basis, Debye):
    X=            -18.8984    Y=             60.3317    Z=            -33.5150  Tot=             71.5564
 Quadrupole moment (field-independent basis, Debye-Ang):
   XX=           -130.5229   YY=            595.8745   ZZ=             63.4178
   XY=           -288.3310   XZ=             98.3482   YZ=           -390.3678
 Traceless Quadrupole moment (field-independent basis, Debye-Ang):
   XX=           -306.7793   YY=            419.6180   ZZ=           -112.8387
   XY=           -288.3310   XZ=             98.3482   YZ=           -390.3678
 Octapole moment (field-independent basis, Debye-Ang**2):
  XXX=           1191.1558  YYY=           4129.4959  ZZZ=           1802.7056  XYY=          -3826.4972
  XXY=          -1017.2292  XXZ=           1134.3738  XZZ=            -26.4260  YZZ=            552.2131
  YYZ=          -3434.2837  XYZ=           1557.4632
 Hexadecapole moment (field-independent basis, Debye-Ang**3):
 XXXX=         -13894.7679 YYYY=          -6672.3773 ZZZZ=         -42262.4219 XXXY=          13264.2186
 XXXZ=          -8434.3449 YYYX=         -44774.0819 YYYZ=         -17060.7359 ZZZX=          -6320.8494
 ZZZY=          23351.0891 XXYY=          -8502.8674 XXZZ=         -13624.6519 YYZZ=          -6185.2936
 XXYZ=           9671.6666 YYXZ=          20860.7888 ZZXY=          -2277.3821
 N-N= 5.025162416749D+03 E-N=-1.436757812271D+04  KE= 1.849308984853D+03
 Unable to Open any file for archive entry.
 1\1\GINC-QML-003\SP\RB3LYP\6-31G(d)\C25H41N8O6(1+)\KENGMITH\11-Jun-202
 2\0\\# B3LYP/6-31G* empiricaldispersion=gd3 guess=read geom=check nosy
 mm integral(ultrafinegrid)\\Candidate Structure: Conf:962 Charge calc 
 in gas phase\\1,1\N,0,-1.8898705915,12.7721417031,-5.368422204\C,0,-1.
 8852517124,11.6858769965,-4.3393791538\C,0,-0.6930417157,10.7718077818
 ,-4.6843413888\O,0,0.4168548344,11.0252824478,-4.2454067716\C,0,-3.250
 2697475,10.989511675,-4.2203260637\C,0,-4.3737029184,11.882828917,-3.7
 303274727\C,0,-4.2403105735,12.6397725324,-2.5553369385\C,0,-5.5862554
 591,11.9489330989,-4.4297039309\C,0,-5.2828060605,13.4499430582,-2.099
 6991121\C,0,-6.6401011415,12.7428229081,-3.9690952492\C,0,-6.492060940
 3,13.5018059413,-2.804663795\H,0,-1.0669027727,13.35140055,-5.18590352
 19\H,0,-3.2662462364,14.0455847255,-5.3959010688\H,0,-1.6289759851,12.
 1491116331,-3.3845896665\H,0,-3.1291327308,10.1454171724,-3.5279534177
 \H,0,-3.5421135162,10.5581013162,-5.1826401408\H,0,-3.3207622206,12.58
 80550602,-1.9783708932\H,0,-5.7264024056,11.3616692432,-5.3336629396\H
 ,0,-5.1637540726,14.0154554988,-1.1796810577\H,0,-7.5799257623,12.7548
 406793,-4.5145685177\H,0,-7.3203187176,14.0950264285,-2.4241278752\H,0
 ,-1.655028757,12.3375695239,-6.2636777635\N,0,-0.9337253176,9.77570222
 18,-5.6065061055\C,0,0.1354989727,9.3809742633,-6.5352007406\C,0,-0.12
 17101025,10.2474424211,-7.7867220677\O,0,-0.1269144921,11.4826835084,-
 7.6681654535\C,0,0.1996512185,7.8611385583,-6.7167195043\C,0,1.4239660
 955,7.3358079324,-7.4988424982\C,0,2.7372245394,7.6109260465,-6.750707
 9153\C,0,1.2591004008,5.8337231802,-7.7712675726\H,0,-1.8735574215,9.6
 951661527,-5.9800640089\H,0,1.0600321872,9.748957462,-6.085579529\H,0,
 0.2076959846,7.4210653576,-5.7124962305\H,0,-0.7326766837,7.5056800021
 ,-7.1838565269\H,0,1.4786177181,7.8523160157,-8.4685775518\H,0,2.92205
 36499,8.6807010153,-6.6058419162\H,0,2.726676823,7.135003968,-5.762294
 2511\H,0,3.5886406811,7.2054346565,-7.3074907977\H,0,1.2008847375,5.27
 28211917,-6.8302730786\H,0,0.3462147775,5.6225959263,-8.3420529961\H,0
 ,2.1092854504,5.4422826292,-8.3398440507\N,0,-0.4605868611,9.643291618
 5,-8.9522074564\C,0,-1.0662852324,10.4152343578,-10.0446348087\C,0,-2.
 5562835393,10.631157455,-9.702111978\O,0,-3.4710717016,10.0073307757,-
 10.2225128839\C,0,-0.9233637562,9.7426587556,-11.4003844828\C,0,-1.421
 4644115,10.7171423621,-12.4770143841\N,0,-1.465324996,10.2156490521,-1
 3.7373896065\O,0,-1.7291684815,11.8727578665,-12.2062052096\H,0,-0.575
 4499069,8.6389744293,-8.9662104821\H,0,-0.5654203813,11.383653292,-10.
 069963537\H,0,0.1261246919,9.4868741634,-11.5865198542\H,0,-1.51656975
 51,8.8216914914,-11.4375955774\H,0,-1.8269342799,10.8048909538,-14.474
 6519702\H,0,-1.2968846756,9.2418216863,-13.9408862413\N,0,-2.744614151
 5,11.516612211,-8.6838405776\C,0,-4.0576551107,11.7960479928,-8.143206
 4244\C,0,-4.8381716466,10.5287836165,-7.8065468233\O,0,-6.0414432165,1
 0.4380832103,-7.8346947365\C,0,-4.8569505018,12.75042588,-9.0422336291
 \C,0,-4.0987934535,14.0541158289,-9.3294937156\C,0,-3.6812801068,14.84
 32103739,-8.0815270387\N,0,-4.8599890034,15.1585841392,-7.2592815116\C
 ,0,-4.9458080262,15.2064355509,-5.9238444255\N,0,-3.9755265623,14.7627
 96417,-5.1284642947\N,0,-6.0433489346,15.7613793197,-5.3599618615\O,0,
 -4.0339357036,9.5439928767,-7.3145450775\H,0,-4.6203573214,8.787975215
 9,-7.1181519678\H,0,-1.914205911,11.9574874795,-8.3030116428\H,0,-3.89
 71082045,12.2655451406,-7.1630477325\H,0,-5.8240422788,12.945541872,-8
 .5674493118\H,0,-5.0616456648,12.2370363527,-9.9859582294\H,0,-3.19442
 31995,13.8373910891,-9.9086578685\H,0,-4.7198061931,14.6951681556,-9.9
 691776951\H,0,-2.9787156923,14.2708215931,-7.4730892882\H,0,-3.1779764
 474,15.7749061379,-8.364636873\H,0,-5.6720020628,15.4708511737,-7.7761
 839527\H,0,-4.1600725601,14.7734034275,-4.1314998043\H,0,-6.3226961802
 ,15.4336302077,-4.4430702772\H,0,-6.7739825264,16.1543383183,-5.935522
 8502\\Version=ES64L-G16RevC.01\HF=-1866.7316954\RMSD=4.188e-09\Dipole=
 -2.5515704,2.3434662,0.3578942\Quadrupole=-228.0829219,311.9757171,-83
 .8927952,-214.3670643,73.1194699,-290.2288646\PG=C01 [X(C25H41N8O6)]\\
 @
 The archive entry for this job was punched.


            ARSENIC

 FOR SMELTER FUMES HAVE I BEEN NAMED,
    I AM AN EVIL POISONOUS SMOKE...
 BUT WHEN FROM POISON I AM FREED,
    THROUGH ART AND SLEIGHT OF HAND,
 THEN CAN I CURE BOTH MAN AND BEAST,
    FROM DIRE DISEASE OFTTIMES DIRECT THEM;
 BUT PREPARE ME CORRECTLY, AND TAKE GREAT CARE
    THAT YOU FAITHFULLY KEEP WATCHFUL GUARD OVER ME;
 FOR ELSE I AM POISON, AND POISON REMAIN,
    THAT PIERCES THE HEART OF MANY A ONE.

 ATTRIBUTED TO THE PROBABLY MYTHICAL 15TH
 CENTURY MONK, BASILIUS VALENTINUS
 Job cpu time:       0 days  0 hours  3 minutes 26.3 seconds.
 Elapsed time:       0 days  0 hours  0 minutes 52.5 seconds.
 File lengths (MBytes):  RWF=    344 Int=      0 D2E=      0 Chk=     48 Scr=     16
 Normal termination of Gaussian 16 at Sat Jun 11 21:14:48 2022.
