 Entering Gaussian System, Link 0=/opt/software/Gaussian/g16-AVX-C.01/g16/g16
 Input=charge-conf-950.com
 Output=charge-conf-950.log
 Initial command:
 /opt/software/Gaussian/g16-AVX-C.01/g16/l1.exe "/mnt/gs18/scratch/users/kengmith/Gau-37633.inp" -scrdir="/mnt/gs18/scratch/users/kengmith/"
 Entering Link 1 = /opt/software/Gaussian/g16-AVX-C.01/g16/l1.exe PID=     37647.
  
 Copyright (c) 1988-2019, Gaussian, Inc.  All Rights Reserved.
  
 This is part of the Gaussian(R) 16 program.  It is based on
 the Gaussian(R) 09 system (copyright 2009, Gaussian, Inc.),
 the Gaussian(R) 03 system (copyright 2003, Gaussian, Inc.),
 the Gaussian(R) 98 system (copyright 1998, Gaussian, Inc.),
 the Gaussian(R) 94 system (copyright 1995, Gaussian, Inc.),
 the Gaussian 92(TM) system (copyright 1992, Gaussian, Inc.),
 the Gaussian 90(TM) system (copyright 1990, Gaussian, Inc.),
 the Gaussian 88(TM) system (copyright 1988, Gaussian, Inc.),
 the Gaussian 86(TM) system (copyright 1986, Carnegie Mellon
 University), and the Gaussian 82(TM) system (copyright 1983,
 Carnegie Mellon University). Gaussian is a federally registered
 trademark of Gaussian, Inc.
  
 This software contains proprietary and confidential information,
 including trade secrets, belonging to Gaussian, Inc.
  
 This software is provided under written license and may be
 used, copied, transmitted, or stored only in accord with that
 written license.
  
 The following legend is applicable only to US Government
 contracts under FAR:
  
                    RESTRICTED RIGHTS LEGEND
  
 Use, reproduction and disclosure by the US Government is
 subject to restrictions as set forth in subparagraphs (a)
 and (c) of the Commercial Computer Software - Restricted
 Rights clause in FAR 52.227-19.
  
 Gaussian, Inc.
 340 Quinnipiac St., Bldg. 40, Wallingford CT 06492
  
  
 ---------------------------------------------------------------
 Warning -- This program may not be used in any manner that
 competes with the business of Gaussian, Inc. or will provide
 assistance to any competitor of Gaussian, Inc.  The licensee
 of this program is prohibited from giving any competitor of
 Gaussian, Inc. access to this program.  By using this program,
 the user acknowledges that Gaussian, Inc. is engaged in the
 business of creating and licensing software in the field of
 computational chemistry and represents and warrants to the
 licensee that it is not a competitor of Gaussian, Inc. and that
 it will not use this program in any manner prohibited above.
 ---------------------------------------------------------------
  

 Cite this work as:
 Gaussian 16, Revision C.01,
 M. J. Frisch, G. W. Trucks, H. B. Schlegel, G. E. Scuseria, 
 M. A. Robb, J. R. Cheeseman, G. Scalmani, V. Barone, 
 G. A. Petersson, H. Nakatsuji, X. Li, M. Caricato, A. V. Marenich, 
 J. Bloino, B. G. Janesko, R. Gomperts, B. Mennucci, H. P. Hratchian, 
 J. V. Ortiz, A. F. Izmaylov, J. L. Sonnenberg, D. Williams-Young, 
 F. Ding, F. Lipparini, F. Egidi, J. Goings, B. Peng, A. Petrone, 
 T. Henderson, D. Ranasinghe, V. G. Zakrzewski, J. Gao, N. Rega, 
 G. Zheng, W. Liang, M. Hada, M. Ehara, K. Toyota, R. Fukuda, 
 J. Hasegawa, M. Ishida, T. Nakajima, Y. Honda, O. Kitao, H. Nakai, 
 T. Vreven, K. Throssell, J. A. Montgomery, Jr., J. E. Peralta, 
 F. Ogliaro, M. J. Bearpark, J. J. Heyd, E. N. Brothers, K. N. Kudin, 
 V. N. Staroverov, T. A. Keith, R. Kobayashi, J. Normand, 
 K. Raghavachari, A. P. Rendell, J. C. Burant, S. S. Iyengar, 
 J. Tomasi, M. Cossi, J. M. Millam, M. Klene, C. Adamo, R. Cammi, 
 J. W. Ochterski, R. L. Martin, K. Morokuma, O. Farkas, 
 J. B. Foresman, and D. J. Fox, Gaussian, Inc., Wallingford CT, 2019.
 
 ******************************************
 Gaussian 16:  ES64L-G16RevC.01  3-Jul-2019
                11-Jun-2022 
 ******************************************
 %mem=8gb
 %nproc=4
 Will use up to    4 processors via shared memory.
 %chk=conf-950.chk
 ----------------------------------------------------------------------
 # B3LYP/6-31G* empiricaldispersion=gd3 guess=read geom=check nosymm in
 tegral(ultrafinegrid)
 ----------------------------------------------------------------------
 1/29=2,38=1,172=1/1;
 2/12=2,15=1,40=1/2;
 3/5=1,6=6,7=1,11=2,14=-4,25=1,30=1,74=-5,75=-5,116=-2,124=31/1,2,3;
 4/5=1/1;
 5/5=2,38=6/2;
 6/7=2,8=2,9=2,10=2,28=1/1;
 99/5=1,9=1/99;
 ------------------------------------------------------
 Candidate Structure: Conf:950 Charge calc in gas phase
 ------------------------------------------------------
 Structure from the checkpoint file:  "conf-950.chk"
 Charge =  1 Multiplicity = 1
 Redundant internal coordinates found in file.  (old form).
 N,0,-1.8087721007,14.660212345,-6.9263060324
 C,0,-1.8793712929,13.9030245496,-5.625914219
 C,0,-0.8853591171,12.7354692698,-5.7730357902
 O,0,-0.2178123822,12.6358682509,-6.8093578436
 C,0,-3.3457157728,13.4987667622,-5.3516170037
 C,0,-4.2763230288,14.6895964957,-5.4482300698
 C,0,-4.4232027156,15.5816680862,-4.3769361426
 C,0,-4.9613270309,14.9447877761,-6.6472418021
 C,0,-5.2455276057,16.7024354045,-4.4955531873
 C,0,-5.7816722637,16.0694623061,-6.7663457356
 C,0,-5.925287151,16.9486871052,-5.6914877554
 H,0,-0.8431820009,14.9194307095,-7.1467454801
 H,0,-2.4086100296,15.4915328452,-6.8773876257
 H,0,-1.5272281616,14.590102131,-4.8481028377
 H,0,-3.3831995051,13.0626500683,-4.3467121755
 H,0,-3.6281864382,12.7107893674,-6.052416725
 H,0,-3.9053181704,15.3890696952,-3.4392307927
 H,0,-4.8533528482,14.2545777369,-7.4811822938
 H,0,-5.3608698592,17.3794870804,-3.6542389221
 H,0,-6.3153900721,16.2517328254,-7.6947186859
 H,0,-6.5683146199,17.8190576882,-5.7818096083
 H,0,-2.1639309538,14.0470803099,-7.7216083029
 N,0,-0.7633482491,11.9054935561,-4.7254713315
 C,0,0.1956464349,10.7833534548,-4.7096683859
 C,0,-0.2214542227,9.6478094622,-5.6697054057
 O,0,0.5859906218,9.1616956997,-6.4415710207
 C,0,0.3626744466,10.2865832253,-3.2643423219
 C,0,1.2862880019,9.0621499428,-3.1061984093
 C,0,2.6843249747,9.3085714254,-3.6919898591
 C,0,1.3644428505,8.6730361074,-1.6232479763
 H,0,-1.3245529336,12.0656880051,-3.8982370869
 H,0,1.1409173548,11.1563911924,-5.1066976508
 H,0,0.7559889865,11.1172336812,-2.6612795363
 H,0,-0.6299219,10.0352272015,-2.8611726127
 H,0,0.8300566036,8.2259183116,-3.6540554227
 H,0,2.6505557354,9.4331096203,-4.7785511503
 H,0,3.1443847193,10.2010649297,-3.247316222
 H,0,3.3406641697,8.4581929118,-3.4792392049
 H,0,1.8334015061,9.4706535344,-1.0330206551
 H,0,0.3706124939,8.480838788,-1.2009874533
 H,0,1.9653649531,7.7671332116,-1.4924573827
 N,0,-1.5193647298,9.2016427267,-5.5272101377
 C,0,-2.1686608218,8.579191458,-6.677864292
 C,0,-2.9526955958,9.7071289817,-7.3816887186
 O,0,-3.2395235123,10.7395224669,-6.7526718572
 C,0,-3.0374198673,7.3775923128,-6.2805259007
 C,0,-3.3681588739,6.4973623754,-7.4901678983
 N,0,-4.0832626882,5.379999813,-7.214670289
 O,0,-3.0098057181,6.7801966906,-8.6325677733
 H,0,-2.1372496816,9.8649721884,-5.0695997209
 H,0,-1.3766074336,8.2320909078,-7.3444825292
 H,0,-2.4836338505,6.7833580933,-5.5438913379
 H,0,-3.9662714812,7.7015939999,-5.7929687371
 H,0,-4.2836417286,4.7398557802,-7.9715598442
 H,0,-4.3085583793,5.0955888791,-6.2727921743
 N,0,-3.2058644278,9.5870712663,-8.6918192253
 C,0,-3.5843518694,10.7797762841,-9.4551205471
 C,0,-2.60852851,11.8922958911,-9.0366191948
 O,0,-2.9370697841,13.0546084609,-8.7743632767
 C,0,-5.0801307282,11.1615099061,-9.3112159449
 C,0,-5.8329208697,11.2405345573,-10.6503279087
 C,0,-5.6339028651,12.5497917242,-11.4374044149
 N,0,-4.2637080139,13.0322174849,-11.5829844492
 C,0,-3.3204660465,12.3452762483,-12.3199336046
 N,0,-3.6019767524,11.2136642004,-12.8646678417
 N,0,-2.0724312519,12.9970909032,-12.3040724854
 O,0,-1.3616259307,11.4613662117,-8.9913891394
 H,0,-0.7887674827,12.0801125784,-8.4845789226
 H,0,-2.9623073319,8.7106584151,-9.1479213593
 H,0,-3.3614191704,10.5507887238,-10.5039331968
 H,0,-5.17233972,12.1019258532,-8.757480707
 H,0,-5.5415861306,10.3913283317,-8.6869650013
 H,0,-5.5426841106,10.3982272085,-11.2849649694
 H,0,-6.9090864658,11.1409462089,-10.4584106155
 H,0,-6.0548337988,12.4261836956,-12.4396118106
 H,0,-6.1861050983,13.3600677425,-10.9462488597
 H,0,-3.8964264871,13.5557335887,-10.800127567
 H,0,-2.8493651762,10.8975808287,-13.4773406414
 H,0,-1.389434523,12.5743441066,-12.9222809873
 H,0,-2.1337179199,13.9983156256,-12.4631234597
 Recover connectivity data from disk.
                           ----------------------------
                           !    Current Parameters    !
                           ! (Angstroms and Degrees)  !
 --------------------------                            --------------------------
 ! Name  Definition              Value                                          !
 --------------------------------------------------------------------------------
 ! R1    R(1,2)                  1.5064                                         !
 ! R2    R(1,12)                 1.0238                                         !
 ! R3    R(1,13)                 1.0263                                         !
 ! R4    R(1,22)                 1.0652                                         !
 ! R5    R(2,3)                  1.5404                                         !
 ! R6    R(2,5)                  1.5456                                         !
 ! R7    R(2,14)                 1.0959                                         !
 ! R8    R(3,4)                  1.2367                                         !
 ! R9    R(3,23)                 1.3421                                         !
 ! R10   R(5,6)                  1.5144                                         !
 ! R11   R(5,15)                 1.0961                                         !
 ! R12   R(5,16)                 1.0917                                         !
 ! R13   R(6,7)                  1.4018                                         !
 ! R14   R(6,8)                  1.4043                                         !
 ! R15   R(7,9)                  1.3951                                         !
 ! R16   R(7,17)                 1.0884                                         !
 ! R17   R(8,10)                 1.3972                                         !
 ! R18   R(8,18)                 1.0879                                         !
 ! R19   R(9,11)                 1.3975                                         !
 ! R20   R(9,19)                 1.0861                                         !
 ! R21   R(10,11)                1.3961                                         !
 ! R22   R(10,20)                1.0863                                         !
 ! R23   R(11,21)                1.0859                                         !
 ! R24   R(23,24)                1.4762                                         !
 ! R25   R(23,31)                1.0124                                         !
 ! R26   R(24,25)                1.5444                                         !
 ! R27   R(24,27)                1.5374                                         !
 ! R28   R(24,32)                1.091                                          !
 ! R29   R(25,26)                1.2182                                         !
 ! R30   R(25,42)                1.3798                                         !
 ! R31   R(27,28)                1.5419                                         !
 ! R32   R(27,33)                1.0993                                         !
 ! R33   R(27,34)                1.1004                                         !
 ! R34   R(28,29)                1.5357                                         !
 ! R35   R(28,30)                1.5351                                         !
 ! R36   R(28,35)                1.0989                                         !
 ! R37   R(29,36)                1.0942                                         !
 ! R38   R(29,37)                1.0982                                         !
 ! R39   R(29,38)                1.0951                                         !
 ! R40   R(30,39)                1.0975                                         !
 ! R41   R(30,40)                1.0968                                         !
 ! R42   R(30,41)                1.0949                                         !
 ! R43   R(42,43)                1.4605                                         !
 ! R44   R(42,50)                1.0155                                         !
 ! R45   R(43,44)                1.5435                                         !
 ! R46   R(43,46)                1.5351                                         !
 ! R47   R(43,51)                1.0919                                         !
 ! R48   R(44,45)                1.2425                                         !
 ! R49   R(44,56)                1.3398                                         !
 ! R50   R(46,47)                1.5321                                         !
 ! R51   R(46,52)                1.0966                                         !
 ! R52   R(46,53)                1.0979                                         !
 ! R53   R(47,48)                1.3549                                         !
 ! R54   R(47,49)                1.2302                                         !
 ! R55   R(48,54)                1.0113                                         !
 ! R56   R(48,55)                1.0093                                         !
 ! R57   R(56,57)                1.4658                                         !
 ! R58   R(56,69)                1.0176                                         !
 ! R59   R(57,58)                1.5379                                         !
 ! R60   R(57,60)                1.5504                                         !
 ! R61   R(57,70)                1.0964                                         !
 ! R62   R(58,59)                1.236                                          !
 ! R63   R(58,67)                1.32                                           !
 ! R64   R(60,61)                1.5382                                         !
 ! R65   R(60,71)                1.0952                                         !
 ! R66   R(60,72)                1.0935                                         !
 ! R67   R(61,62)                1.5405                                         !
 ! R68   R(61,73)                1.0938                                         !
 ! R69   R(61,74)                1.0977                                         !
 ! R70   R(62,63)                1.4599                                         !
 ! R71   R(62,75)                1.094                                          !
 ! R72   R(62,76)                1.0967                                         !
 ! R73   R(63,64)                1.3801                                         !
 ! R74   R(63,77)                1.0109                                         !
 ! R75   R(64,65)                1.2871                                         !
 ! R76   R(64,66)                1.4081                                         !
 ! R77   R(65,78)                1.0206                                         !
 ! R78   R(66,79)                1.0136                                         !
 ! R79   R(66,80)                1.0156                                         !
 ! R80   R(67,68)                0.9838                                         !
 ! A1    A(2,1,12)             110.9365                                         !
 ! A2    A(2,1,13)             109.7921                                         !
 ! A3    A(2,1,22)             109.8507                                         !
 ! A4    A(12,1,13)            110.8799                                         !
 ! A5    A(12,1,22)            107.4248                                         !
 ! A6    A(13,1,22)            107.8769                                         !
 ! A7    A(1,2,3)              105.5623                                         !
 ! A8    A(1,2,5)              109.2159                                         !
 ! A9    A(1,2,14)             106.408                                          !
 ! A10   A(3,2,5)              115.5252                                         !
 ! A11   A(3,2,14)             109.6105                                         !
 ! A12   A(5,2,14)             110.0517                                         !
 ! A13   A(2,3,4)              119.2997                                         !
 ! A14   A(2,3,23)             116.9269                                         !
 ! A15   A(4,3,23)             123.7242                                         !
 ! A16   A(2,5,6)              111.4694                                         !
 ! A17   A(2,5,15)             107.4107                                         !
 ! A18   A(2,5,16)             108.6835                                         !
 ! A19   A(6,5,15)             110.5081                                         !
 ! A20   A(6,5,16)             111.5685                                         !
 ! A21   A(15,5,16)            107.0071                                         !
 ! A22   A(5,6,7)              121.0667                                         !
 ! A23   A(5,6,8)              119.8097                                         !
 ! A24   A(7,6,8)              119.0626                                         !
 ! A25   A(6,7,9)              120.5313                                         !
 ! A26   A(6,7,17)             119.7328                                         !
 ! A27   A(9,7,17)             119.7272                                         !
 ! A28   A(6,8,10)             120.3635                                         !
 ! A29   A(6,8,18)             119.3938                                         !
 ! A30   A(10,8,18)            120.2413                                         !
 ! A31   A(7,9,11)             120.0675                                         !
 ! A32   A(7,9,19)             119.8375                                         !
 ! A33   A(11,9,19)            120.0939                                         !
 ! A34   A(8,10,11)            120.1147                                         !
 ! A35   A(8,10,20)            119.7634                                         !
 ! A36   A(11,10,20)           120.1189                                         !
 ! A37   A(9,11,10)            119.859                                          !
 ! A38   A(9,11,21)            120.0298                                         !
 ! A39   A(10,11,21)           120.1102                                         !
 ! A40   A(3,23,24)            122.5154                                         !
 ! A41   A(3,23,31)            119.3112                                         !
 ! A42   A(24,23,31)           118.142                                          !
 ! A43   A(23,24,25)           112.1369                                         !
 ! A44   A(23,24,27)           109.0423                                         !
 ! A45   A(23,24,32)           107.4006                                         !
 ! A46   A(25,24,27)           112.0959                                         !
 ! A47   A(25,24,32)           105.0216                                         !
 ! A48   A(27,24,32)           111.0057                                         !
 ! A49   A(24,25,26)           120.5481                                         !
 ! A50   A(24,25,42)           115.3151                                         !
 ! A51   A(26,25,42)           124.0462                                         !
 ! A52   A(24,27,28)           114.7149                                         !
 ! A53   A(24,27,33)           108.0867                                         !
 ! A54   A(24,27,34)           108.6772                                         !
 ! A55   A(28,27,33)           109.2373                                         !
 ! A56   A(28,27,34)           108.7448                                         !
 ! A57   A(33,27,34)           107.118                                          !
 ! A58   A(27,28,29)           112.258                                          !
 ! A59   A(27,28,30)           109.3214                                         !
 ! A60   A(27,28,35)           107.7267                                         !
 ! A61   A(29,28,30)           111.2726                                         !
 ! A62   A(29,28,35)           108.0526                                         !
 ! A63   A(30,28,35)           108.0504                                         !
 ! A64   A(28,29,36)           111.6512                                         !
 ! A65   A(28,29,37)           110.9367                                         !
 ! A66   A(28,29,38)           110.2986                                         !
 ! A67   A(36,29,37)           108.8161                                         !
 ! A68   A(36,29,38)           107.4459                                         !
 ! A69   A(37,29,38)           107.5391                                         !
 ! A70   A(28,30,39)           110.9194                                         !
 ! A71   A(28,30,40)           111.7276                                         !
 ! A72   A(28,30,41)           110.6735                                         !
 ! A73   A(39,30,40)           107.9083                                         !
 ! A74   A(39,30,41)           107.6105                                         !
 ! A75   A(40,30,41)           107.8383                                         !
 ! A76   A(25,42,43)           118.335                                          !
 ! A77   A(25,42,50)           114.058                                          !
 ! A78   A(43,42,50)           111.2799                                         !
 ! A79   A(42,43,44)           105.8808                                         !
 ! A80   A(42,43,46)           112.4131                                         !
 ! A81   A(42,43,51)           107.097                                          !
 ! A82   A(44,43,46)           113.7394                                         !
 ! A83   A(44,43,51)           108.8075                                         !
 ! A84   A(46,43,51)           108.6464                                         !
 ! A85   A(43,44,45)           119.5789                                         !
 ! A86   A(43,44,56)           118.4517                                         !
 ! A87   A(45,44,56)           121.7287                                         !
 ! A88   A(43,46,47)           111.5626                                         !
 ! A89   A(43,46,52)           108.1953                                         !
 ! A90   A(43,46,53)           111.2681                                         !
 ! A91   A(47,46,52)           109.151                                          !
 ! A92   A(47,46,53)           109.7255                                         !
 ! A93   A(52,46,53)           106.7896                                         !
 ! A94   A(46,47,48)           115.2892                                         !
 ! A95   A(46,47,49)           122.56                                           !
 ! A96   A(48,47,49)           122.1507                                         !
 ! A97   A(47,48,54)           118.3195                                         !
 ! A98   A(47,48,55)           122.6785                                         !
 ! A99   A(54,48,55)           118.411                                          !
 ! A100  A(44,56,57)           119.0202                                         !
 ! A101  A(44,56,69)           118.0516                                         !
 ! A102  A(57,56,69)           121.9531                                         !
 ! A103  A(56,57,58)           106.4447                                         !
 ! A104  A(56,57,60)           113.6491                                         !
 ! A105  A(56,57,70)           106.0036                                         !
 ! A106  A(58,57,60)           114.129                                          !
 ! A107  A(58,57,70)           106.4023                                         !
 ! A108  A(60,57,70)           109.6559                                         !
 ! A109  A(57,58,59)           124.7058                                         !
 ! A110  A(57,58,67)           111.8719                                         !
 ! A111  A(59,58,67)           123.4221                                         !
 ! A112  A(57,60,61)           113.8277                                         !
 ! A113  A(57,60,71)           109.8504                                         !
 ! A114  A(57,60,72)           106.66                                           !
 ! A115  A(61,60,71)           110.783                                          !
 ! A116  A(61,60,72)           109.0644                                         !
 ! A117  A(71,60,72)           106.2964                                         !
 ! A118  A(60,61,62)           115.1641                                         !
 ! A119  A(60,61,73)           109.6136                                         !
 ! A120  A(60,61,74)           108.8402                                         !
 ! A121  A(62,61,73)           108.889                                          !
 ! A122  A(62,61,74)           107.0431                                         !
 ! A123  A(73,61,74)           106.9607                                         !
 ! A124  A(61,62,63)           116.9384                                         !
 ! A125  A(61,62,75)           108.8024                                         !
 ! A126  A(61,62,76)           109.5153                                         !
 ! A127  A(63,62,75)           107.8843                                         !
 ! A128  A(63,62,76)           105.848                                          !
 ! A129  A(75,62,76)           107.4586                                         !
 ! A130  A(62,63,64)           122.0205                                         !
 ! A131  A(62,63,77)           115.78                                           !
 ! A132  A(64,63,77)           115.0238                                         !
 ! A133  A(63,64,65)           120.9401                                         !
 ! A134  A(63,64,66)           111.6753                                         !
 ! A135  A(65,64,66)           127.2741                                         !
 ! A136  A(64,65,78)           111.4116                                         !
 ! A137  A(64,66,79)           113.4098                                         !
 ! A138  A(64,66,80)           113.6466                                         !
 ! A139  A(79,66,80)           110.8735                                         !
 ! A140  A(58,67,68)           111.2453                                         !
 ! D1    D(12,1,2,3)           -53.6629                                         !
 ! D2    D(12,1,2,5)          -178.4666                                         !
 ! D3    D(12,1,2,14)           62.773                                          !
 ! D4    D(13,1,2,3)          -176.5677                                         !
 ! D5    D(13,1,2,5)            58.6286                                         !
 ! D6    D(13,1,2,14)          -60.1318                                         !
 ! D7    D(22,1,2,3)            64.9574                                         !
 ! D8    D(22,1,2,5)           -59.8464                                         !
 ! D9    D(22,1,2,14)         -178.6068                                         !
 ! D10   D(1,2,3,4)              2.2525                                         !
 ! D11   D(1,2,3,23)           179.798                                          !
 ! D12   D(5,2,3,4)            123.0226                                         !
 ! D13   D(5,2,3,23)           -59.432                                          !
 ! D14   D(14,2,3,4)          -111.984                                          !
 ! D15   D(14,2,3,23)           65.5614                                         !
 ! D16   D(1,2,5,6)            -51.9212                                         !
 ! D17   D(1,2,5,15)          -173.1105                                         !
 ! D18   D(1,2,5,16)            71.4455                                         !
 ! D19   D(3,2,5,6)           -170.6904                                         !
 ! D20   D(3,2,5,15)            68.1203                                         !
 ! D21   D(3,2,5,16)           -47.3237                                         !
 ! D22   D(14,2,5,6)            64.5445                                         !
 ! D23   D(14,2,5,15)          -56.6449                                         !
 ! D24   D(14,2,5,16)         -172.0889                                         !
 ! D25   D(2,3,23,24)         -177.1969                                         !
 ! D26   D(2,3,23,31)            0.726                                          !
 ! D27   D(4,3,23,24)            0.2294                                         !
 ! D28   D(4,3,23,31)          178.1523                                         !
 ! D29   D(2,5,6,7)            -81.3212                                         !
 ! D30   D(2,5,6,8)             95.8129                                         !
 ! D31   D(15,5,6,7)            38.0453                                         !
 ! D32   D(15,5,6,8)          -144.8206                                         !
 ! D33   D(16,5,6,7)           156.9695                                         !
 ! D34   D(16,5,6,8)           -25.8965                                         !
 ! D35   D(5,6,7,9)            177.6121                                         !
 ! D36   D(5,6,7,17)            -3.4651                                         !
 ! D37   D(8,6,7,9)              0.457                                          !
 ! D38   D(8,6,7,17)           179.3799                                         !
 ! D39   D(5,6,8,10)          -177.4677                                         !
 ! D40   D(5,6,8,18)             2.9739                                         !
 ! D41   D(7,6,8,10)            -0.2762                                         !
 ! D42   D(7,6,8,18)          -179.8346                                         !
 ! D43   D(6,7,9,11)            -0.3814                                         !
 ! D44   D(6,7,9,19)           179.2376                                         !
 ! D45   D(17,7,9,11)         -179.3043                                         !
 ! D46   D(17,7,9,19)            0.3147                                         !
 ! D47   D(6,8,10,11)            0.02                                           !
 ! D48   D(6,8,10,20)         -179.3464                                         !
 ! D49   D(18,8,10,11)         179.5746                                         !
 ! D50   D(18,8,10,20)           0.2082                                         !
 ! D51   D(7,9,11,10)            0.1192                                         !
 ! D52   D(7,9,11,21)          179.7543                                         !
 ! D53   D(19,9,11,10)        -179.4988                                         !
 ! D54   D(19,9,11,21)           0.1363                                         !
 ! D55   D(8,10,11,9)            0.0604                                         !
 ! D56   D(8,10,11,21)        -179.5744                                         !
 ! D57   D(20,10,11,9)         179.4245                                         !
 ! D58   D(20,10,11,21)         -0.2103                                         !
 ! D59   D(3,23,24,25)         -70.7428                                         !
 ! D60   D(3,23,24,27)         164.5061                                         !
 ! D61   D(3,23,24,32)          44.1371                                         !
 ! D62   D(31,23,24,25)        111.3112                                         !
 ! D63   D(31,23,24,27)        -13.4399                                         !
 ! D64   D(31,23,24,32)       -133.8089                                         !
 ! D65   D(23,24,25,26)        132.1779                                         !
 ! D66   D(23,24,25,42)        -51.1455                                         !
 ! D67   D(27,24,25,26)       -104.7766                                         !
 ! D68   D(27,24,25,42)         71.9                                            !
 ! D69   D(32,24,25,26)         15.8543                                         !
 ! D70   D(32,24,25,42)       -167.4691                                         !
 ! D71   D(23,24,27,28)        176.9956                                         !
 ! D72   D(23,24,27,33)        -60.8719                                         !
 ! D73   D(23,24,27,34)         55.057                                          !
 ! D74   D(25,24,27,28)         52.2205                                         !
 ! D75   D(25,24,27,33)        174.353                                          !
 ! D76   D(25,24,27,34)        -69.7181                                         !
 ! D77   D(32,24,27,28)        -64.8782                                         !
 ! D78   D(32,24,27,33)         57.2543                                         !
 ! D79   D(32,24,27,34)        173.1831                                         !
 ! D80   D(24,25,42,43)        154.8523                                         !
 ! D81   D(24,25,42,50)         21.0409                                         !
 ! D82   D(26,25,42,43)        -28.6021                                         !
 ! D83   D(26,25,42,50)       -162.4134                                         !
 ! D84   D(24,27,28,29)         56.017                                          !
 ! D85   D(24,27,28,30)        179.9974                                         !
 ! D86   D(24,27,28,35)        -62.8224                                         !
 ! D87   D(33,27,28,29)        -65.4892                                         !
 ! D88   D(33,27,28,30)         58.4912                                         !
 ! D89   D(33,27,28,35)        175.6714                                         !
 ! D90   D(34,27,28,29)        177.9188                                         !
 ! D91   D(34,27,28,30)        -58.1007                                         !
 ! D92   D(34,27,28,35)         59.0794                                         !
 ! D93   D(27,28,29,36)        -65.9559                                         !
 ! D94   D(27,28,29,37)         55.6062                                         !
 ! D95   D(27,28,29,38)        174.6541                                         !
 ! D96   D(30,28,29,36)        171.1568                                         !
 ! D97   D(30,28,29,37)        -67.2811                                         !
 ! D98   D(30,28,29,38)         51.7668                                         !
 ! D99   D(35,28,29,36)         52.6918                                         !
 ! D100  D(35,28,29,37)        174.2538                                         !
 ! D101  D(35,28,29,38)        -66.6983                                         !
 ! D102  D(27,28,30,39)        -64.1629                                         !
 ! D103  D(27,28,30,40)         56.2813                                         !
 ! D104  D(27,28,30,41)        176.4686                                         !
 ! D105  D(29,28,30,39)         60.3949                                         !
 ! D106  D(29,28,30,40)       -179.1608                                         !
 ! D107  D(29,28,30,41)        -58.9736                                         !
 ! D108  D(35,28,30,39)        178.8613                                         !
 ! D109  D(35,28,30,40)        -60.6945                                         !
 ! D110  D(35,28,30,41)         59.4928                                         !
 ! D111  D(25,42,43,44)        -94.3726                                         !
 ! D112  D(25,42,43,46)        140.8709                                         !
 ! D113  D(25,42,43,51)         21.6157                                         !
 ! D114  D(50,42,43,44)         40.6237                                         !
 ! D115  D(50,42,43,46)        -84.1328                                         !
 ! D116  D(50,42,43,51)        156.612                                          !
 ! D117  D(42,43,44,45)        -20.1217                                         !
 ! D118  D(42,43,44,56)        154.3407                                         !
 ! D119  D(46,43,44,45)        103.8077                                         !
 ! D120  D(46,43,44,56)        -81.7298                                         !
 ! D121  D(51,43,44,45)       -134.943                                          !
 ! D122  D(51,43,44,56)         39.5194                                         !
 ! D123  D(42,43,46,47)       -163.1198                                         !
 ! D124  D(42,43,46,52)        -43.0402                                         !
 ! D125  D(42,43,46,53)         73.9748                                         !
 ! D126  D(44,43,46,47)         76.5659                                         !
 ! D127  D(44,43,46,52)       -163.3545                                         !
 ! D128  D(44,43,46,53)        -46.3395                                         !
 ! D129  D(51,43,46,47)        -44.7733                                         !
 ! D130  D(51,43,46,52)         75.3063                                         !
 ! D131  D(51,43,46,53)       -167.6786                                         !
 ! D132  D(43,44,56,57)       -162.2319                                         !
 ! D133  D(43,44,56,69)          6.6969                                         !
 ! D134  D(45,44,56,57)         12.1056                                         !
 ! D135  D(45,44,56,69)       -178.9656                                         !
 ! D136  D(43,46,47,48)        177.1607                                         !
 ! D137  D(43,46,47,49)         -2.724                                          !
 ! D138  D(52,46,47,48)         57.6452                                         !
 ! D139  D(52,46,47,49)       -122.2395                                         !
 ! D140  D(53,46,47,48)        -59.0575                                         !
 ! D141  D(53,46,47,49)        121.0578                                         !
 ! D142  D(46,47,48,54)       -176.7092                                         !
 ! D143  D(46,47,48,55)         -5.6714                                         !
 ! D144  D(49,47,48,54)          3.176                                          !
 ! D145  D(49,47,48,55)        174.2139                                         !
 ! D146  D(44,56,57,58)         45.4678                                         !
 ! D147  D(44,56,57,60)        -81.0136                                         !
 ! D148  D(44,56,57,70)        158.4815                                         !
 ! D149  D(69,56,57,58)       -123.0109                                         !
 ! D150  D(69,56,57,60)        110.5078                                         !
 ! D151  D(69,56,57,70)         -9.9971                                         !
 ! D152  D(56,57,58,59)       -135.4792                                         !
 ! D153  D(56,57,58,67)         44.6813                                         !
 ! D154  D(60,57,58,59)         -9.2869                                         !
 ! D155  D(60,57,58,67)        170.8737                                         !
 ! D156  D(70,57,58,59)        111.7817                                         !
 ! D157  D(70,57,58,67)        -68.0578                                         !
 ! D158  D(56,57,60,61)       -123.2524                                         !
 ! D159  D(56,57,60,71)        111.8696                                         !
 ! D160  D(56,57,60,72)         -2.9297                                         !
 ! D161  D(58,57,60,61)        114.4183                                         !
 ! D162  D(58,57,60,71)        -10.4597                                         !
 ! D163  D(58,57,60,72)       -125.259                                          !
 ! D164  D(70,57,60,61)         -4.8272                                         !
 ! D165  D(70,57,60,71)       -129.7053                                         !
 ! D166  D(70,57,60,72)        115.4955                                         !
 ! D167  D(57,58,67,68)       -163.575                                          !
 ! D168  D(59,58,67,68)         16.5832                                         !
 ! D169  D(57,60,61,62)        -80.6448                                         !
 ! D170  D(57,60,61,73)         42.5254                                         !
 ! D171  D(57,60,61,74)        159.1926                                         !
 ! D172  D(71,60,61,62)         43.7333                                         !
 ! D173  D(71,60,61,73)        166.9035                                         !
 ! D174  D(71,60,61,74)        -76.4293                                         !
 ! D175  D(72,60,61,62)        160.3944                                         !
 ! D176  D(72,60,61,73)        -76.4354                                         !
 ! D177  D(72,60,61,74)         40.2317                                         !
 ! D178  D(60,61,62,63)         47.207                                          !
 ! D179  D(60,61,62,75)        169.6806                                         !
 ! D180  D(60,61,62,76)        -73.131                                          !
 ! D181  D(73,61,62,63)        -76.3476                                         !
 ! D182  D(73,61,62,75)         46.1261                                         !
 ! D183  D(73,61,62,76)        163.3144                                         !
 ! D184  D(74,61,62,63)        168.3515                                         !
 ! D185  D(74,61,62,75)        -69.1749                                         !
 ! D186  D(74,61,62,76)         48.0135                                         !
 ! D187  D(61,62,63,64)         66.4406                                         !
 ! D188  D(61,62,63,77)        -82.4393                                         !
 ! D189  D(75,62,63,64)        -56.507                                          !
 ! D190  D(75,62,63,77)        154.6131                                         !
 ! D191  D(76,62,63,64)       -171.298                                          !
 ! D192  D(76,62,63,77)         39.822                                          !
 ! D193  D(62,63,64,65)         -2.9919                                         !
 ! D194  D(62,63,64,66)       -179.4364                                         !
 ! D195  D(77,63,64,65)        146.104                                          !
 ! D196  D(77,63,64,66)        -30.3405                                         !
 ! D197  D(63,64,65,78)        172.1209                                         !
 ! D198  D(66,64,65,78)        -12.0322                                         !
 ! D199  D(63,64,66,79)       -173.3573                                         !
 ! D200  D(63,64,66,80)        -45.52                                           !
 ! D201  D(65,64,66,79)         10.4754                                         !
 ! D202  D(65,64,66,80)        138.3127                                         !
 --------------------------------------------------------------------------------
 Symmetry turned off by external request.
 Stoichiometry    C25H41N8O6(1+)
 Framework group  C1[X(C25H41N8O6)]
 Deg. of freedom   234
 Full point group                 C1      NOp   1
                          Input orientation:                          
 ---------------------------------------------------------------------
 Center     Atomic      Atomic             Coordinates (Angstroms)
 Number     Number       Type             X           Y           Z
 ---------------------------------------------------------------------
      1          7           0       -1.808772   14.660212   -6.926306
      2          6           0       -1.879371   13.903025   -5.625914
      3          6           0       -0.885359   12.735469   -5.773036
      4          8           0       -0.217812   12.635868   -6.809358
      5          6           0       -3.345716   13.498767   -5.351617
      6          6           0       -4.276323   14.689596   -5.448230
      7          6           0       -4.423203   15.581668   -4.376936
      8          6           0       -4.961327   14.944788   -6.647242
      9          6           0       -5.245528   16.702435   -4.495553
     10          6           0       -5.781672   16.069462   -6.766346
     11          6           0       -5.925287   16.948687   -5.691488
     12          1           0       -0.843182   14.919431   -7.146745
     13          1           0       -2.408610   15.491533   -6.877388
     14          1           0       -1.527228   14.590102   -4.848103
     15          1           0       -3.383200   13.062650   -4.346712
     16          1           0       -3.628186   12.710789   -6.052417
     17          1           0       -3.905318   15.389070   -3.439231
     18          1           0       -4.853353   14.254578   -7.481182
     19          1           0       -5.360870   17.379487   -3.654239
     20          1           0       -6.315390   16.251733   -7.694719
     21          1           0       -6.568315   17.819058   -5.781810
     22          1           0       -2.163931   14.047080   -7.721608
     23          7           0       -0.763348   11.905494   -4.725471
     24          6           0        0.195646   10.783353   -4.709668
     25          6           0       -0.221454    9.647809   -5.669705
     26          8           0        0.585991    9.161696   -6.441571
     27          6           0        0.362674   10.286583   -3.264342
     28          6           0        1.286288    9.062150   -3.106198
     29          6           0        2.684325    9.308571   -3.691990
     30          6           0        1.364443    8.673036   -1.623248
     31          1           0       -1.324553   12.065688   -3.898237
     32          1           0        1.140917   11.156391   -5.106698
     33          1           0        0.755989   11.117234   -2.661280
     34          1           0       -0.629922   10.035227   -2.861173
     35          1           0        0.830057    8.225918   -3.654055
     36          1           0        2.650556    9.433110   -4.778551
     37          1           0        3.144385   10.201065   -3.247316
     38          1           0        3.340664    8.458193   -3.479239
     39          1           0        1.833402    9.470654   -1.033021
     40          1           0        0.370612    8.480839   -1.200987
     41          1           0        1.965365    7.767133   -1.492457
     42          7           0       -1.519365    9.201643   -5.527210
     43          6           0       -2.168661    8.579191   -6.677864
     44          6           0       -2.952696    9.707129   -7.381689
     45          8           0       -3.239524   10.739522   -6.752672
     46          6           0       -3.037420    7.377592   -6.280526
     47          6           0       -3.368159    6.497362   -7.490168
     48          7           0       -4.083263    5.380000   -7.214670
     49          8           0       -3.009806    6.780197   -8.632568
     50          1           0       -2.137250    9.864972   -5.069600
     51          1           0       -1.376607    8.232091   -7.344483
     52          1           0       -2.483634    6.783358   -5.543891
     53          1           0       -3.966271    7.701594   -5.792969
     54          1           0       -4.283642    4.739856   -7.971560
     55          1           0       -4.308558    5.095589   -6.272792
     56          7           0       -3.205864    9.587071   -8.691819
     57          6           0       -3.584352   10.779776   -9.455121
     58          6           0       -2.608529   11.892296   -9.036619
     59          8           0       -2.937070   13.054608   -8.774363
     60          6           0       -5.080131   11.161510   -9.311216
     61          6           0       -5.832921   11.240535  -10.650328
     62          6           0       -5.633903   12.549792  -11.437404
     63          7           0       -4.263708   13.032217  -11.582984
     64          6           0       -3.320466   12.345276  -12.319934
     65          7           0       -3.601977   11.213664  -12.864668
     66          7           0       -2.072431   12.997091  -12.304072
     67          8           0       -1.361626   11.461366   -8.991389
     68          1           0       -0.788767   12.080113   -8.484579
     69          1           0       -2.962307    8.710658   -9.147921
     70          1           0       -3.361419   10.550789  -10.503933
     71          1           0       -5.172340   12.101926   -8.757481
     72          1           0       -5.541586   10.391328   -8.686965
     73          1           0       -5.542684   10.398227  -11.284965
     74          1           0       -6.909086   11.140946  -10.458411
     75          1           0       -6.054834   12.426184  -12.439612
     76          1           0       -6.186105   13.360068  -10.946249
     77          1           0       -3.896426   13.555734  -10.800128
     78          1           0       -2.849365   10.897581  -13.477341
     79          1           0       -1.389435   12.574344  -12.922281
     80          1           0       -2.133718   13.998316  -12.463123
 ---------------------------------------------------------------------
 Rotational constants (GHZ):           0.0970461           0.0728122           0.0521545
 Standard basis: 6-31G(d) (6D, 7F)
   667 basis functions,  1256 primitive gaussians,   667 cartesian basis functions
   147 alpha electrons      147 beta electrons
       nuclear repulsion energy      4944.1748056989 Hartrees.
 NAtoms=   80 NActive=   80 NUniq=   80 SFac= 1.00D+00 NAtFMM=   60 NAOKFM=T Big=T
 Integral buffers will be    131072 words long.
 Raffenetti 2 integral format.
 Two-electron integral symmetry is turned off.
 Nuclear repulsion after empirical dispersion term =     4944.0621794289 Hartrees.
 One-electron integrals computed using PRISM.
 NBasis=   667 RedAO= T EigKep=  4.51D-04  NBF=   667
 NBsUse=   667 1.00D-06 EigRej= -1.00D+00 NBFU=   667
 Initial guess from the checkpoint file:  "conf-950.chk"
 B after Tr=     0.000000    0.000000    0.000000
         Rot=    1.000000    0.000000    0.000000    0.000000 Ang=   0.00 deg.
 Requested convergence on RMS density matrix=1.00D-08 within 128 cycles.
 Requested convergence on MAX density matrix=1.00D-06.
 Requested convergence on             energy=1.00D-06.
 No special actions if energy rises.
 SCF Done:  E(RB3LYP) =  -1866.71486129     A.U. after    3 cycles
            NFock=  3  Conv=0.76D-09     -V/T= 2.0094

 **********************************************************************

            Population analysis using the SCF Density.

 **********************************************************************

 Alpha  occ. eigenvalues --  -19.29686 -19.26482 -19.26393 -19.22231 -19.21214
 Alpha  occ. eigenvalues --  -19.21104 -14.57375 -14.50179 -14.45213 -14.44962
 Alpha  occ. eigenvalues --  -14.44919 -14.42299 -14.41655 -14.35772 -10.44046
 Alpha  occ. eigenvalues --  -10.43654 -10.39715 -10.38825 -10.38564 -10.38161
 Alpha  occ. eigenvalues --  -10.35313 -10.34017 -10.33025 -10.32849 -10.32127
 Alpha  occ. eigenvalues --  -10.30992 -10.29806 -10.29754 -10.29593 -10.29338
 Alpha  occ. eigenvalues --  -10.29308 -10.29084 -10.29021 -10.28508 -10.27288
 Alpha  occ. eigenvalues --  -10.26731 -10.24990 -10.24765 -10.24245  -1.21940
 Alpha  occ. eigenvalues --   -1.18432  -1.14222  -1.13269  -1.12929  -1.12736
 Alpha  occ. eigenvalues --   -1.11935  -1.06335  -1.04792  -1.02219  -1.01634
 Alpha  occ. eigenvalues --   -0.99730  -0.96562  -0.95843  -0.92496  -0.91315
 Alpha  occ. eigenvalues --   -0.90401  -0.88586  -0.86813  -0.86113  -0.84896
 Alpha  occ. eigenvalues --   -0.83574  -0.82394  -0.78513  -0.77519  -0.76519
 Alpha  occ. eigenvalues --   -0.75741  -0.74796  -0.73078  -0.72168  -0.71963
 Alpha  occ. eigenvalues --   -0.71415  -0.70473  -0.69469  -0.68920  -0.68005
 Alpha  occ. eigenvalues --   -0.67349  -0.66305  -0.65482  -0.64781  -0.64142
 Alpha  occ. eigenvalues --   -0.64009  -0.63224  -0.62360  -0.61562  -0.61130
 Alpha  occ. eigenvalues --   -0.60536  -0.59906  -0.59491  -0.59080  -0.58901
 Alpha  occ. eigenvalues --   -0.57730  -0.57097  -0.56743  -0.56204  -0.55600
 Alpha  occ. eigenvalues --   -0.55039  -0.54759  -0.54521  -0.54189  -0.53541
 Alpha  occ. eigenvalues --   -0.53031  -0.52488  -0.52296  -0.52038  -0.51516
 Alpha  occ. eigenvalues --   -0.51384  -0.51088  -0.50886  -0.50687  -0.50153
 Alpha  occ. eigenvalues --   -0.49865  -0.49472  -0.48766  -0.48482  -0.48042
 Alpha  occ. eigenvalues --   -0.47392  -0.46785  -0.46438  -0.46354  -0.45917
 Alpha  occ. eigenvalues --   -0.45654  -0.45097  -0.44909  -0.44764  -0.44495
 Alpha  occ. eigenvalues --   -0.44363  -0.43461  -0.42381  -0.41710  -0.41472
 Alpha  occ. eigenvalues --   -0.40769  -0.40623  -0.40543  -0.40463  -0.40334
 Alpha  occ. eigenvalues --   -0.39913  -0.36733  -0.36047  -0.35927  -0.35626
 Alpha  occ. eigenvalues --   -0.35286  -0.35183  -0.34745  -0.33937  -0.33788
 Alpha  occ. eigenvalues --   -0.32549  -0.29899
 Alpha virt. eigenvalues --   -0.12909  -0.11296  -0.10921  -0.10791  -0.08469
 Alpha virt. eigenvalues --   -0.07544  -0.07476  -0.06706  -0.05524  -0.02532
 Alpha virt. eigenvalues --   -0.02407  -0.01770  -0.00974  -0.00737  -0.00536
 Alpha virt. eigenvalues --    0.00367   0.00502   0.01710   0.02167   0.02538
 Alpha virt. eigenvalues --    0.02614   0.03195   0.03543   0.03938   0.04512
 Alpha virt. eigenvalues --    0.04801   0.04992   0.05155   0.05488   0.05796
 Alpha virt. eigenvalues --    0.05882   0.06052   0.06792   0.06991   0.07270
 Alpha virt. eigenvalues --    0.07608   0.07833   0.08204   0.08325   0.09035
 Alpha virt. eigenvalues --    0.09044   0.09315   0.09765   0.10015   0.10230
 Alpha virt. eigenvalues --    0.10314   0.10897   0.11303   0.11762   0.11998
 Alpha virt. eigenvalues --    0.12240   0.12615   0.12741   0.13114   0.13569
 Alpha virt. eigenvalues --    0.14414   0.14616   0.15375   0.15513   0.15817
 Alpha virt. eigenvalues --    0.15975   0.16528   0.17136   0.17584   0.17875
 Alpha virt. eigenvalues --    0.18002   0.19012   0.19585   0.20124   0.20976
 Alpha virt. eigenvalues --    0.21486   0.21952   0.22873   0.23093   0.23921
 Alpha virt. eigenvalues --    0.24376   0.24688   0.25504   0.26689   0.28136
 Alpha virt. eigenvalues --    0.28548   0.28788   0.29979   0.31467   0.32027
 Alpha virt. eigenvalues --    0.33053   0.34050   0.36708   0.38096   0.38474
 Alpha virt. eigenvalues --    0.39086   0.40048   0.40629   0.41293   0.41828
 Alpha virt. eigenvalues --    0.42761   0.43136   0.43195   0.43688   0.43906
 Alpha virt. eigenvalues --    0.44172   0.44838   0.45079   0.45430   0.45983
 Alpha virt. eigenvalues --    0.46367   0.46863   0.47125   0.47590   0.48315
 Alpha virt. eigenvalues --    0.48439   0.49077   0.49468   0.50016   0.50293
 Alpha virt. eigenvalues --    0.50497   0.50888   0.51124   0.51256   0.51674
 Alpha virt. eigenvalues --    0.51792   0.52172   0.52798   0.53397   0.53810
 Alpha virt. eigenvalues --    0.54092   0.54284   0.54442   0.54947   0.55153
 Alpha virt. eigenvalues --    0.55443   0.55942   0.56636   0.57406   0.57657
 Alpha virt. eigenvalues --    0.58028   0.58713   0.58948   0.59419   0.59904
 Alpha virt. eigenvalues --    0.60475   0.61441   0.61493   0.61956   0.62408
 Alpha virt. eigenvalues --    0.62858   0.64052   0.64200   0.64494   0.64693
 Alpha virt. eigenvalues --    0.65539   0.65642   0.66060   0.67343   0.67814
 Alpha virt. eigenvalues --    0.68241   0.68328   0.69741   0.70388   0.70751
 Alpha virt. eigenvalues --    0.71165   0.71417   0.71980   0.72230   0.72566
 Alpha virt. eigenvalues --    0.73191   0.73411   0.73776   0.74376   0.74471
 Alpha virt. eigenvalues --    0.74569   0.75090   0.75136   0.75383   0.75685
 Alpha virt. eigenvalues --    0.76029   0.76412   0.77309   0.77876   0.78141
 Alpha virt. eigenvalues --    0.78797   0.78902   0.79024   0.79450   0.79745
 Alpha virt. eigenvalues --    0.80162   0.80719   0.81224   0.81256   0.81357
 Alpha virt. eigenvalues --    0.81856   0.82206   0.82730   0.83159   0.83414
 Alpha virt. eigenvalues --    0.83774   0.84110   0.84424   0.84533   0.84953
 Alpha virt. eigenvalues --    0.85183   0.85388   0.85668   0.85939   0.86497
 Alpha virt. eigenvalues --    0.87013   0.87199   0.87706   0.87922   0.88533
 Alpha virt. eigenvalues --    0.89068   0.89582   0.90205   0.90602   0.90896
 Alpha virt. eigenvalues --    0.91539   0.92120   0.92719   0.93284   0.94126
 Alpha virt. eigenvalues --    0.94733   0.95506   0.96058   0.96284   0.97256
 Alpha virt. eigenvalues --    0.97528   0.98572   0.99585   0.99926   1.00825
 Alpha virt. eigenvalues --    1.02018   1.02404   1.02826   1.03557   1.04227
 Alpha virt. eigenvalues --    1.05597   1.06381   1.06911   1.07084   1.07847
 Alpha virt. eigenvalues --    1.09001   1.09879   1.10570   1.11905   1.13616
 Alpha virt. eigenvalues --    1.14331   1.14962   1.15251   1.15789   1.16840
 Alpha virt. eigenvalues --    1.17853   1.18250   1.19539   1.19714   1.21264
 Alpha virt. eigenvalues --    1.21443   1.21900   1.22863   1.23654   1.23803
 Alpha virt. eigenvalues --    1.25332   1.26470   1.27592   1.27971   1.29059
 Alpha virt. eigenvalues --    1.30526   1.30778   1.30928   1.31603   1.32378
 Alpha virt. eigenvalues --    1.32700   1.33615   1.34054   1.34744   1.35415
 Alpha virt. eigenvalues --    1.35999   1.36673   1.37230   1.37527   1.38416
 Alpha virt. eigenvalues --    1.38842   1.38918   1.40422   1.40710   1.41323
 Alpha virt. eigenvalues --    1.41781   1.43055   1.44420   1.46707   1.48120
 Alpha virt. eigenvalues --    1.48321   1.49627   1.50291   1.51438   1.52381
 Alpha virt. eigenvalues --    1.53748   1.54478   1.55817   1.56158   1.57028
 Alpha virt. eigenvalues --    1.57212   1.57922   1.59882   1.60184   1.61791
 Alpha virt. eigenvalues --    1.62721   1.62945   1.63824   1.64099   1.64970
 Alpha virt. eigenvalues --    1.65258   1.66396   1.67050   1.67419   1.68040
 Alpha virt. eigenvalues --    1.68458   1.69267   1.69720   1.69976   1.70399
 Alpha virt. eigenvalues --    1.70974   1.71440   1.71977   1.72499   1.73957
 Alpha virt. eigenvalues --    1.74173   1.74578   1.74855   1.75346   1.75982
 Alpha virt. eigenvalues --    1.76352   1.76985   1.78029   1.78543   1.78907
 Alpha virt. eigenvalues --    1.79282   1.79768   1.80058   1.80682   1.81575
 Alpha virt. eigenvalues --    1.81829   1.82817   1.83095   1.84044   1.84746
 Alpha virt. eigenvalues --    1.85029   1.85337   1.86551   1.87145   1.87294
 Alpha virt. eigenvalues --    1.87778   1.88480   1.89183   1.90125   1.90308
 Alpha virt. eigenvalues --    1.91084   1.91680   1.91989   1.93333   1.93585
 Alpha virt. eigenvalues --    1.93973   1.94198   1.94626   1.94730   1.94932
 Alpha virt. eigenvalues --    1.95376   1.95555   1.96686   1.96963   1.97501
 Alpha virt. eigenvalues --    1.98624   1.99165   2.00963   2.02231   2.03643
 Alpha virt. eigenvalues --    2.03774   2.03868   2.04404   2.05259   2.06419
 Alpha virt. eigenvalues --    2.06703   2.08753   2.09603   2.10417   2.10678
 Alpha virt. eigenvalues --    2.10786   2.12083   2.12944   2.14364   2.14894
 Alpha virt. eigenvalues --    2.15934   2.16794   2.16920   2.17342   2.17828
 Alpha virt. eigenvalues --    2.18738   2.19016   2.20448   2.20788   2.21767
 Alpha virt. eigenvalues --    2.21850   2.22565   2.23902   2.24526   2.25776
 Alpha virt. eigenvalues --    2.27159   2.27951   2.30073   2.30724   2.31404
 Alpha virt. eigenvalues --    2.32134   2.33229   2.33568   2.33789   2.33930
 Alpha virt. eigenvalues --    2.34964   2.35328   2.36928   2.37049   2.38459
 Alpha virt. eigenvalues --    2.38632   2.39460   2.40993   2.42053   2.43045
 Alpha virt. eigenvalues --    2.43624   2.44427   2.45321   2.46431   2.47148
 Alpha virt. eigenvalues --    2.47972   2.48503   2.49251   2.49981   2.50355
 Alpha virt. eigenvalues --    2.51391   2.52458   2.53023   2.54062   2.54691
 Alpha virt. eigenvalues --    2.55244   2.56076   2.57058   2.58068   2.59591
 Alpha virt. eigenvalues --    2.59790   2.61122   2.61624   2.62900   2.63725
 Alpha virt. eigenvalues --    2.63904   2.64604   2.65035   2.65732   2.66244
 Alpha virt. eigenvalues --    2.67114   2.67269   2.69937   2.72206   2.74842
 Alpha virt. eigenvalues --    2.75908   2.78271   2.78872   2.83290   2.83901
 Alpha virt. eigenvalues --    2.86142   2.87916   2.91238   2.92016   2.92332
 Alpha virt. eigenvalues --    2.93418   2.94164   2.96744   2.98399   2.99119
 Alpha virt. eigenvalues --    2.99782   3.01960   3.02513   3.06560   3.09951
 Alpha virt. eigenvalues --    3.30246   3.72235   3.73899   3.74870   3.84849
 Alpha virt. eigenvalues --    3.85279   3.87356   3.92535   3.96389   3.97649
 Alpha virt. eigenvalues --    3.99173   3.99906   4.01952   4.05449   4.07488
 Alpha virt. eigenvalues --    4.08265   4.09130   4.13001   4.13081   4.19194
 Alpha virt. eigenvalues --    4.21216   4.22079   4.22719   4.24225   4.24686
 Alpha virt. eigenvalues --    4.27447   4.31827   4.31877   4.36494   4.40464
 Alpha virt. eigenvalues --    4.41326   4.41992   4.45717   4.47595   4.50072
 Alpha virt. eigenvalues --    4.54623   4.58192   4.60455   4.60991   4.63894
          Condensed to atoms (all electrons):
 Mulliken charges:
               1
     1  N   -0.760400
     2  C   -0.135356
     3  C    0.696632
     4  O   -0.566050
     5  C   -0.400555
     6  C    0.123865
     7  C   -0.184364
     8  C   -0.229911
     9  C   -0.125001
    10  C   -0.129123
    11  C   -0.124976
    12  H    0.405501
    13  H    0.403885
    14  H    0.210236
    15  H    0.166595
    16  H    0.254988
    17  H    0.135253
    18  H    0.175876
    19  H    0.161356
    20  H    0.157755
    21  H    0.163144
    22  H    0.444488
    23  N   -0.631578
    24  C   -0.048078
    25  C    0.618406
    26  O   -0.483853
    27  C   -0.300579
    28  C   -0.083065
    29  C   -0.464868
    30  C   -0.446748
    31  H    0.347374
    32  H    0.206800
    33  H    0.153711
    34  H    0.135774
    35  H    0.150807
    36  H    0.176482
    37  H    0.138867
    38  H    0.161652
    39  H    0.148052
    40  H    0.142032
    41  H    0.162990
    42  N   -0.588108
    43  C   -0.078864
    44  C    0.616965
    45  O   -0.576975
    46  C   -0.388583
    47  C    0.626688
    48  N   -0.742339
    49  O   -0.521562
    50  H    0.328604
    51  H    0.225966
    52  H    0.196957
    53  H    0.180553
    54  H    0.363021
    55  H    0.352450
    56  N   -0.600666
    57  C   -0.021179
    58  C    0.629621
    59  O   -0.559938
    60  C   -0.286058
    61  C   -0.282773
    62  C   -0.120367
    63  N   -0.600058
    64  C    0.567465
    65  N   -0.646251
    66  N   -0.762795
    67  O   -0.547408
    68  H    0.454409
    69  H    0.391490
    70  H    0.233175
    71  H    0.159066
    72  H    0.161854
    73  H    0.185939
    74  H    0.142331
    75  H    0.180355
    76  H    0.133966
    77  H    0.329505
    78  H    0.277817
    79  H    0.329712
    80  H    0.327996
 Sum of Mulliken charges =   1.00000
 Mulliken charges with hydrogens summed into heavy atoms:
               1
     1  N    0.493474
     2  C    0.074880
     3  C    0.696632
     4  O   -0.566050
     5  C    0.021028
     6  C    0.123865
     7  C   -0.049110
     8  C   -0.054036
     9  C    0.036355
    10  C    0.028632
    11  C    0.038168
    23  N   -0.284204
    24  C    0.158723
    25  C    0.618406
    26  O   -0.483853
    27  C   -0.011094
    28  C    0.067741
    29  C    0.012133
    30  C    0.006327
    42  N   -0.259504
    43  C    0.147103
    44  C    0.616965
    45  O   -0.576975
    46  C   -0.011073
    47  C    0.626688
    48  N   -0.026868
    49  O   -0.521562
    56  N   -0.209176
    57  C    0.211995
    58  C    0.629621
    59  O   -0.559938
    60  C    0.034862
    61  C    0.045496
    62  C    0.193955
    63  N   -0.270553
    64  C    0.567465
    65  N   -0.368433
    66  N   -0.105087
    67  O   -0.092999
 Electronic spatial extent (au):  <R**2>=         218741.2514
 Charge=              1.0000 electrons
 Dipole moment (field-independent basis, Debye):
    X=            -13.0339    Y=             61.3946    Z=            -28.4130  Tot=             68.8947
 Quadrupole moment (field-independent basis, Debye-Ang):
   XX=           -179.0923   YY=            643.3192   ZZ=            -21.7365
   XY=           -153.3136   XZ=             80.9450   YZ=           -382.3960
 Traceless Quadrupole moment (field-independent basis, Debye-Ang):
   XX=           -326.5891   YY=            495.8224   ZZ=           -169.2333
   XY=           -153.3136   XZ=             80.9450   YZ=           -382.3960
 Octapole moment (field-independent basis, Debye-Ang**2):
  XXX=           1503.6832  YYY=           5096.5581  ZZZ=           3036.3640  XYY=          -1608.6921
  XXY=          -2029.4325  XXZ=           1322.3583  XZZ=             79.6681  YZZ=            313.5104
  YYZ=          -4002.6014  XYZ=            960.4068
 Hexadecapole moment (field-independent basis, Debye-Ang**3):
 XXXX=         -14689.8895 YYYY=           5764.4002 ZZZZ=         -61027.6321 XXXY=          18644.2301
 XXXZ=         -12900.7505 YYYX=         -12340.6057 YYYZ=         -29002.0645 ZZZX=         -11829.1639
 ZZZY=          29188.9344 XXYY=         -25624.6091 XXZZ=         -14250.0580 YYZZ=          -1150.6959
 XXYZ=          15056.7546 YYXZ=           8956.5116 ZZXY=            933.7943
 N-N= 4.944062179429D+03 E-N=-1.420684125926D+04  KE= 1.849275241496D+03
 Unable to Open any file for archive entry.
 1\1\GINC-QML-003\SP\RB3LYP\6-31G(d)\C25H41N8O6(1+)\KENGMITH\11-Jun-202
 2\0\\# B3LYP/6-31G* empiricaldispersion=gd3 guess=read geom=check nosy
 mm integral(ultrafinegrid)\\Candidate Structure: Conf:950 Charge calc 
 in gas phase\\1,1\N,0,-1.8087721007,14.660212345,-6.9263060324\C,0,-1.
 8793712929,13.9030245496,-5.625914219\C,0,-0.8853591171,12.7354692698,
 -5.7730357902\O,0,-0.2178123822,12.6358682509,-6.8093578436\C,0,-3.345
 7157728,13.4987667622,-5.3516170037\C,0,-4.2763230288,14.6895964957,-5
 .4482300698\C,0,-4.4232027156,15.5816680862,-4.3769361426\C,0,-4.96132
 70309,14.9447877761,-6.6472418021\C,0,-5.2455276057,16.7024354045,-4.4
 955531873\C,0,-5.7816722637,16.0694623061,-6.7663457356\C,0,-5.9252871
 51,16.9486871052,-5.6914877554\H,0,-0.8431820009,14.9194307095,-7.1467
 454801\H,0,-2.4086100296,15.4915328452,-6.8773876257\H,0,-1.5272281616
 ,14.590102131,-4.8481028377\H,0,-3.3831995051,13.0626500683,-4.3467121
 755\H,0,-3.6281864382,12.7107893674,-6.052416725\H,0,-3.9053181704,15.
 3890696952,-3.4392307927\H,0,-4.8533528482,14.2545777369,-7.4811822938
 \H,0,-5.3608698592,17.3794870804,-3.6542389221\H,0,-6.3153900721,16.25
 17328254,-7.6947186859\H,0,-6.5683146199,17.8190576882,-5.7818096083\H
 ,0,-2.1639309538,14.0470803099,-7.7216083029\N,0,-0.7633482491,11.9054
 935561,-4.7254713315\C,0,0.1956464349,10.7833534548,-4.7096683859\C,0,
 -0.2214542227,9.6478094622,-5.6697054057\O,0,0.5859906218,9.1616956997
 ,-6.4415710207\C,0,0.3626744466,10.2865832253,-3.2643423219\C,0,1.2862
 880019,9.0621499428,-3.1061984093\C,0,2.6843249747,9.3085714254,-3.691
 9898591\C,0,1.3644428505,8.6730361074,-1.6232479763\H,0,-1.3245529336,
 12.0656880051,-3.8982370869\H,0,1.1409173548,11.1563911924,-5.10669765
 08\H,0,0.7559889865,11.1172336812,-2.6612795363\H,0,-0.6299219,10.0352
 272015,-2.8611726127\H,0,0.8300566036,8.2259183116,-3.6540554227\H,0,2
 .6505557354,9.4331096203,-4.7785511503\H,0,3.1443847193,10.2010649297,
 -3.247316222\H,0,3.3406641697,8.4581929118,-3.4792392049\H,0,1.8334015
 061,9.4706535344,-1.0330206551\H,0,0.3706124939,8.480838788,-1.2009874
 533\H,0,1.9653649531,7.7671332116,-1.4924573827\N,0,-1.5193647298,9.20
 16427267,-5.5272101377\C,0,-2.1686608218,8.579191458,-6.677864292\C,0,
 -2.9526955958,9.7071289817,-7.3816887186\O,0,-3.2395235123,10.73952246
 69,-6.7526718572\C,0,-3.0374198673,7.3775923128,-6.2805259007\C,0,-3.3
 681588739,6.4973623754,-7.4901678983\N,0,-4.0832626882,5.379999813,-7.
 214670289\O,0,-3.0098057181,6.7801966906,-8.6325677733\H,0,-2.13724968
 16,9.8649721884,-5.0695997209\H,0,-1.3766074336,8.2320909078,-7.344482
 5292\H,0,-2.4836338505,6.7833580933,-5.5438913379\H,0,-3.9662714812,7.
 7015939999,-5.7929687371\H,0,-4.2836417286,4.7398557802,-7.9715598442\
 H,0,-4.3085583793,5.0955888791,-6.2727921743\N,0,-3.2058644278,9.58707
 12663,-8.6918192253\C,0,-3.5843518694,10.7797762841,-9.4551205471\C,0,
 -2.60852851,11.8922958911,-9.0366191948\O,0,-2.9370697841,13.054608460
 9,-8.7743632767\C,0,-5.0801307282,11.1615099061,-9.3112159449\C,0,-5.8
 329208697,11.2405345573,-10.6503279087\C,0,-5.6339028651,12.5497917242
 ,-11.4374044149\N,0,-4.2637080139,13.0322174849,-11.5829844492\C,0,-3.
 3204660465,12.3452762483,-12.3199336046\N,0,-3.6019767524,11.213664200
 4,-12.8646678417\N,0,-2.0724312519,12.9970909032,-12.3040724854\O,0,-1
 .3616259307,11.4613662117,-8.9913891394\H,0,-0.7887674827,12.080112578
 4,-8.4845789226\H,0,-2.9623073319,8.7106584151,-9.1479213593\H,0,-3.36
 14191704,10.5507887238,-10.5039331968\H,0,-5.17233972,12.1019258532,-8
 .757480707\H,0,-5.5415861306,10.3913283317,-8.6869650013\H,0,-5.542684
 1106,10.3982272085,-11.2849649694\H,0,-6.9090864658,11.1409462089,-10.
 4584106155\H,0,-6.0548337988,12.4261836956,-12.4396118106\H,0,-6.18610
 50983,13.3600677425,-10.9462488597\H,0,-3.8964264871,13.5557335887,-10
 .800127567\H,0,-2.8493651762,10.8975808287,-13.4773406414\H,0,-1.38943
 4523,12.5743441066,-12.9222809873\H,0,-2.1337179199,13.9983156256,-12.
 4631234597\\Version=ES64L-G16RevC.01\HF=-1866.7148613\RMSD=7.569e-10\D
 ipole=-0.3829159,2.6101232,2.3416422\Quadrupole=-242.8109902,368.63181
 39,-125.8208236,-113.9848788,60.1806223,-284.3020462\PG=C01 [X(C25H41N
 8O6)]\\@
 The archive entry for this job was punched.


 ONE OF THE BENEFITS OF A COLLEGE EDUCATION
 IS TO SHOW THE BOY ITS LITTLE AVAIL 
                                    EMERSON IN 'CULTURE'
 Job cpu time:       0 days  0 hours  7 minutes 25.1 seconds.
 Elapsed time:       0 days  0 hours  1 minutes 52.0 seconds.
 File lengths (MBytes):  RWF=    344 Int=      0 D2E=      0 Chk=     56 Scr=     16
 Normal termination of Gaussian 16 at Sat Jun 11 21:15:48 2022.
