 Entering Gaussian System, Link 0=/opt/software/Gaussian/g16-AVX2-C.01/g16/g16
 Input=charge-conf-549.com
 Output=charge-conf-549.log
 Initial command:
 /opt/software/Gaussian/g16-AVX2-C.01/g16/l1.exe "/mnt/gs18/scratch/users/kengmith/Gau-26510.inp" -scrdir="/mnt/gs18/scratch/users/kengmith/"
 Entering Link 1 = /opt/software/Gaussian/g16-AVX2-C.01/g16/l1.exe PID=     26521.
  
 Copyright (c) 1988-2019, Gaussian, Inc.  All Rights Reserved.
  
 This is part of the Gaussian(R) 16 program.  It is based on
 the Gaussian(R) 09 system (copyright 2009, Gaussian, Inc.),
 the Gaussian(R) 03 system (copyright 2003, Gaussian, Inc.),
 the Gaussian(R) 98 system (copyright 1998, Gaussian, Inc.),
 the Gaussian(R) 94 system (copyright 1995, Gaussian, Inc.),
 the Gaussian 92(TM) system (copyright 1992, Gaussian, Inc.),
 the Gaussian 90(TM) system (copyright 1990, Gaussian, Inc.),
 the Gaussian 88(TM) system (copyright 1988, Gaussian, Inc.),
 the Gaussian 86(TM) system (copyright 1986, Carnegie Mellon
 University), and the Gaussian 82(TM) system (copyright 1983,
 Carnegie Mellon University). Gaussian is a federally registered
 trademark of Gaussian, Inc.
  
 This software contains proprietary and confidential information,
 including trade secrets, belonging to Gaussian, Inc.
  
 This software is provided under written license and may be
 used, copied, transmitted, or stored only in accord with that
 written license.
  
 The following legend is applicable only to US Government
 contracts under FAR:
  
                    RESTRICTED RIGHTS LEGEND
  
 Use, reproduction and disclosure by the US Government is
 subject to restrictions as set forth in subparagraphs (a)
 and (c) of the Commercial Computer Software - Restricted
 Rights clause in FAR 52.227-19.
  
 Gaussian, Inc.
 340 Quinnipiac St., Bldg. 40, Wallingford CT 06492
  
  
 ---------------------------------------------------------------
 Warning -- This program may not be used in any manner that
 competes with the business of Gaussian, Inc. or will provide
 assistance to any competitor of Gaussian, Inc.  The licensee
 of this program is prohibited from giving any competitor of
 Gaussian, Inc. access to this program.  By using this program,
 the user acknowledges that Gaussian, Inc. is engaged in the
 business of creating and licensing software in the field of
 computational chemistry and represents and warrants to the
 licensee that it is not a competitor of Gaussian, Inc. and that
 it will not use this program in any manner prohibited above.
 ---------------------------------------------------------------
  

 Cite this work as:
 Gaussian 16, Revision C.01,
 M. J. Frisch, G. W. Trucks, H. B. Schlegel, G. E. Scuseria, 
 M. A. Robb, J. R. Cheeseman, G. Scalmani, V. Barone, 
 G. A. Petersson, H. Nakatsuji, X. Li, M. Caricato, A. V. Marenich, 
 J. Bloino, B. G. Janesko, R. Gomperts, B. Mennucci, H. P. Hratchian, 
 J. V. Ortiz, A. F. Izmaylov, J. L. Sonnenberg, D. Williams-Young, 
 F. Ding, F. Lipparini, F. Egidi, J. Goings, B. Peng, A. Petrone, 
 T. Henderson, D. Ranasinghe, V. G. Zakrzewski, J. Gao, N. Rega, 
 G. Zheng, W. Liang, M. Hada, M. Ehara, K. Toyota, R. Fukuda, 
 J. Hasegawa, M. Ishida, T. Nakajima, Y. Honda, O. Kitao, H. Nakai, 
 T. Vreven, K. Throssell, J. A. Montgomery, Jr., J. E. Peralta, 
 F. Ogliaro, M. J. Bearpark, J. J. Heyd, E. N. Brothers, K. N. Kudin, 
 V. N. Staroverov, T. A. Keith, R. Kobayashi, J. Normand, 
 K. Raghavachari, A. P. Rendell, J. C. Burant, S. S. Iyengar, 
 J. Tomasi, M. Cossi, J. M. Millam, M. Klene, C. Adamo, R. Cammi, 
 J. W. Ochterski, R. L. Martin, K. Morokuma, O. Farkas, 
 J. B. Foresman, and D. J. Fox, Gaussian, Inc., Wallingford CT, 2019.
 
 ******************************************
 Gaussian 16:  ES64L-G16RevC.01  3-Jul-2019
                11-Jun-2022 
 ******************************************
 %mem=8gb
 %nproc=4
 Will use up to    4 processors via shared memory.
 %chk=conf-549.chk
 ----------------------------------------------------------------------
 # B3LYP/6-31G* empiricaldispersion=gd3 guess=read geom=check nosymm in
 tegral(ultrafinegrid)
 ----------------------------------------------------------------------
 1/29=2,38=1,172=1/1;
 2/12=2,15=1,40=1/2;
 3/5=1,6=6,7=1,11=2,14=-4,25=1,30=1,74=-5,75=-5,116=-2,124=31/1,2,3;
 4/5=1/1;
 5/5=2,38=6/2;
 6/7=2,8=2,9=2,10=2,28=1/1;
 99/5=1,9=1/99;
 ------------------------------------------------------
 Candidate Structure: Conf:549 Charge calc in gas phase
 ------------------------------------------------------
 Structure from the checkpoint file:  "conf-549.chk"
 Charge =  1 Multiplicity = 1
 Redundant internal coordinates found in file.  (old form).
 N,0,-4.3258337731,10.6171384343,-7.8501049768
 C,0,-3.4205184664,9.6848688199,-8.5849499575
 C,0,-2.4490802335,9.1457661199,-7.5058821259
 O,0,-2.8686858272,8.9737322694,-6.3621119058
 C,0,-2.7754739621,10.4069549029,-9.7787398366
 C,0,-3.7829029723,11.046837414,-10.7135882251
 C,0,-4.7374193396,10.2658567127,-11.3813223535
 C,0,-3.7788939259,12.4311031097,-10.9169686979
 C,0,-5.6724972307,10.8574498689,-12.2314680907
 C,0,-4.7003441898,13.0249509413,-11.7850410218
 C,0,-5.6547401397,12.2411591116,-12.4378724702
 H,0,-4.6636427841,10.18138529,-6.9802972125
 H,0,-5.1615190989,10.9776610143,-8.3880842454
 H,0,-4.03784856,8.8491901746,-8.9313600077
 H,0,-2.1811930531,9.6730169823,-10.3386351581
 H,0,-2.0895925065,11.168312652,-9.3914485676
 H,0,-4.7459935407,9.1859399665,-11.2486280318
 H,0,-3.0528082908,13.0505708965,-10.396848272
 H,0,-6.4030226261,10.2392364931,-12.7450149613
 H,0,-4.6696364684,14.0981799565,-11.9520106098
 H,0,-6.3713481957,12.7016241739,-13.1114047117
 H,0,-3.7692033019,11.4280995479,-7.5116678789
 N,0,-1.1700730096,8.9116491003,-7.8666659673
 C,0,-0.1382582286,8.5915464291,-6.8693073445
 C,0,0.1054724762,9.7864051456,-5.921940585
 O,0,0.3017419579,9.613964672,-4.7326999858
 C,0,1.1494031356,8.1556383306,-7.588575044
 C,0,2.3433993443,7.8502456695,-6.6621849457
 C,0,2.0072415752,6.7785959116,-5.6150476922
 C,0,3.5519160781,7.4361921557,-7.5137126146
 H,0,-0.8830751653,9.0324850943,-8.8280452763
 H,0,-0.5183190937,7.7920156777,-6.2319645856
 H,0,0.9162119004,7.2614607363,-8.1836337956
 H,0,1.4413425712,8.9474507249,-8.2950523485
 H,0,2.6021471922,8.7749680826,-6.1284504793
 H,0,1.6385314385,5.8622897688,-6.0949169843
 H,0,2.9016631289,6.514164742,-5.0411584056
 H,0,1.2546634356,7.1332364621,-4.9046810256
 H,0,3.808386065,8.2028370452,-8.255059784
 H,0,4.4316020584,7.2723947906,-6.8826499926
 H,0,3.3503567642,6.5011029816,-8.0517264767
 N,0,0.1524710393,11.0261952778,-6.5349079266
 C,0,-0.1141632384,12.2132265706,-5.7354491303
 C,0,-1.6304242669,12.4997178604,-5.8321854562
 O,0,-2.2659664852,12.1179560444,-6.836385385
 C,0,0.757181851,13.4076950377,-6.1491943163
 C,0,0.8067296608,14.4727130002,-5.0477116251
 N,0,1.6063782535,15.5347446849,-5.3039413546
 O,0,0.1667581391,14.3718266425,-4.0012634261
 H,0,-0.2758240883,11.060085101,-7.4522156137
 H,0,0.12325451,11.9497733199,-4.7030949132
 H,0,1.7724593275,13.0401446405,-6.3402496715
 H,0,0.4001832029,13.8586896531,-7.0844665688
 H,0,1.7148412553,16.2384113568,-4.585486224
 H,0,2.2020047776,15.5845983121,-6.117379415
 N,0,-2.2008912699,13.0761196236,-4.7696474156
 C,0,-3.6431307492,13.0181998418,-4.5254435919
 C,0,-4.0950161225,11.5537959436,-4.7064393481
 O,0,-5.1054998191,11.2095698766,-5.3014695115
 C,0,-4.462419485,13.9884128686,-5.3879783103
 C,0,-5.9164432609,14.1471266158,-4.89924408
 C,0,-6.920285536,14.3568577434,-6.04098395
 N,0,-7.0091884497,13.2041895923,-6.9397576184
 C,0,-6.4559877573,13.2258382723,-8.1980115341
 N,0,-5.8421776763,14.2459842653,-8.6689328724
 N,0,-6.6152202217,11.9651438448,-8.8757617876
 O,0,-3.2313294237,10.7002384448,-4.1620975581
 H,0,-3.4174041887,9.7971476277,-4.4915121213
 H,0,-1.5655855578,13.4196845049,-4.0506833085
 H,0,-3.7766467361,13.2614456406,-3.4644839693
 H,0,-4.4359526822,13.6449254892,-6.4240219585
 H,0,-3.9514794785,14.9563648298,-5.375026875
 H,0,-6.225573635,13.2624413911,-4.3296469494
 H,0,-5.9914977054,14.9952876949,-4.2075997405
 H,0,-7.9152088573,14.543731632,-5.6198394989
 H,0,-6.6449612706,15.218176827,-6.6523916847
 H,0,-7.0149357302,12.3035352899,-6.4754465362
 H,0,-5.6105282105,14.1206033936,-9.6521792714
 H,0,-6.5085414316,12.0705444436,-9.8832910703
 H,0,-7.527122411,11.549954038,-8.6871369098
 Recover connectivity data from disk.
                           ----------------------------
                           !    Current Parameters    !
                           ! (Angstroms and Degrees)  !
 --------------------------                            --------------------------
 ! Name  Definition              Value                                          !
 --------------------------------------------------------------------------------
 ! R1    R(1,2)                  1.4929                                         !
 ! R2    R(1,12)                 1.0298                                         !
 ! R3    R(1,13)                 1.0572                                         !
 ! R4    R(1,22)                 1.0402                                         !
 ! R5    R(2,3)                  1.5488                                         !
 ! R6    R(2,5)                  1.5371                                         !
 ! R7    R(2,14)                 1.0952                                         !
 ! R8    R(3,4)                  1.2304                                         !
 ! R9    R(3,23)                 1.3494                                         !
 ! R10   R(5,6)                  1.516                                          !
 ! R11   R(5,15)                 1.0979                                         !
 ! R12   R(5,16)                 1.0955                                         !
 ! R13   R(6,7)                  1.4025                                         !
 ! R14   R(6,8)                  1.3991                                         !
 ! R15   R(7,9)                  1.3954                                         !
 ! R16   R(7,17)                 1.0881                                         !
 ! R17   R(8,10)                 1.3983                                         !
 ! R18   R(8,18)                 1.087                                          !
 ! R19   R(9,11)                 1.3991                                         !
 ! R20   R(9,19)                 1.0861                                         !
 ! R21   R(10,11)                1.3969                                         !
 ! R22   R(10,20)                1.0866                                         !
 ! R23   R(11,21)                1.0859                                         !
 ! R24   R(23,24)                1.4703                                         !
 ! R25   R(23,31)                1.0106                                         !
 ! R26   R(24,25)                1.5442                                         !
 ! R27   R(24,27)                1.538                                          !
 ! R28   R(24,32)                1.0908                                         !
 ! R29   R(25,26)                1.2176                                         !
 ! R30   R(25,42)                1.3838                                         !
 ! R31   R(27,28)                1.5418                                         !
 ! R32   R(27,33)                1.0991                                         !
 ! R33   R(27,34)                1.1006                                         !
 ! R34   R(28,29)                1.5356                                         !
 ! R35   R(28,30)                1.5353                                         !
 ! R36   R(28,35)                1.0986                                         !
 ! R37   R(29,36)                1.0981                                         !
 ! R38   R(29,37)                1.0951                                         !
 ! R39   R(29,38)                1.094                                          !
 ! R40   R(30,39)                1.0969                                         !
 ! R41   R(30,40)                1.095                                          !
 ! R42   R(30,41)                1.0975                                         !
 ! R43   R(42,43)                1.4558                                         !
 ! R44   R(42,50)                1.0129                                         !
 ! R45   R(43,44)                1.5461                                         !
 ! R46   R(43,46)                1.5353                                         !
 ! R47   R(43,51)                1.0916                                         !
 ! R48   R(44,45)                1.2482                                         !
 ! R49   R(44,56)                1.3367                                         !
 ! R50   R(46,47)                1.533                                          !
 ! R51   R(46,52)                1.0965                                         !
 ! R52   R(46,53)                1.098                                          !
 ! R53   R(47,48)                1.3539                                         !
 ! R54   R(47,49)                1.2308                                         !
 ! R55   R(48,54)                1.0115                                         !
 ! R56   R(48,55)                1.0094                                         !
 ! R57   R(56,57)                1.4639                                         !
 ! R58   R(56,69)                1.0191                                         !
 ! R59   R(57,58)                1.5432                                         !
 ! R60   R(57,60)                1.5351                                         !
 ! R61   R(57,70)                1.0966                                         !
 ! R62   R(58,59)                1.2221                                         !
 ! R63   R(58,67)                1.3307                                         !
 ! R64   R(60,61)                1.5422                                         !
 ! R65   R(60,71)                1.0918                                         !
 ! R66   R(60,72)                1.0946                                         !
 ! R67   R(61,62)                1.5347                                         !
 ! R68   R(61,73)                1.0967                                         !
 ! R69   R(61,74)                1.097                                          !
 ! R70   R(62,63)                1.4644                                         !
 ! R71   R(62,75)                1.0964                                         !
 ! R72   R(62,76)                1.0916                                         !
 ! R73   R(63,64)                1.3747                                         !
 ! R74   R(63,77)                1.0133                                         !
 ! R75   R(64,65)                1.2803                                         !
 ! R76   R(64,66)                1.4402                                         !
 ! R77   R(65,78)                1.0179                                         !
 ! R78   R(66,79)                1.0186                                         !
 ! R79   R(66,80)                1.0196                                         !
 ! R80   R(67,68)                0.9791                                         !
 ! A1    A(2,1,12)             110.5135                                         !
 ! A2    A(2,1,13)             116.2194                                         !
 ! A3    A(2,1,22)             108.8138                                         !
 ! A4    A(12,1,13)            108.3479                                         !
 ! A5    A(12,1,22)            103.3329                                         !
 ! A6    A(13,1,22)            108.8251                                         !
 ! A7    A(1,2,3)              104.7608                                         !
 ! A8    A(1,2,5)              110.0853                                         !
 ! A9    A(1,2,14)             106.8801                                         !
 ! A10   A(3,2,5)              116.1943                                         !
 ! A11   A(3,2,14)             107.9582                                         !
 ! A12   A(5,2,14)             110.4475                                         !
 ! A13   A(2,3,4)              118.8444                                         !
 ! A14   A(2,3,23)             117.9452                                         !
 ! A15   A(4,3,23)             123.1979                                         !
 ! A16   A(2,5,6)              113.4744                                         !
 ! A17   A(2,5,15)             108.0106                                         !
 ! A18   A(2,5,16)             108.3404                                         !
 ! A19   A(6,5,15)             109.1108                                         !
 ! A20   A(6,5,16)             109.9206                                         !
 ! A21   A(15,5,16)            107.8183                                         !
 ! A22   A(5,6,7)              120.7191                                         !
 ! A23   A(5,6,8)              120.3532                                         !
 ! A24   A(7,6,8)              118.9265                                         !
 ! A25   A(6,7,9)              120.6685                                         !
 ! A26   A(6,7,17)             119.9993                                         !
 ! A27   A(9,7,17)             119.3278                                         !
 ! A28   A(6,8,10)             120.5659                                         !
 ! A29   A(6,8,18)             119.7498                                         !
 ! A30   A(10,8,18)            119.6843                                         !
 ! A31   A(7,9,11)             120.044                                          !
 ! A32   A(7,9,19)             119.8343                                         !
 ! A33   A(11,9,19)            120.1138                                         !
 ! A34   A(8,10,11)            120.1361                                         !
 ! A35   A(8,10,20)            119.752                                          !
 ! A36   A(11,10,20)           120.1118                                         !
 ! A37   A(9,11,10)            119.6453                                         !
 ! A38   A(9,11,21)            120.1647                                         !
 ! A39   A(10,11,21)           120.1858                                         !
 ! A40   A(3,23,24)            121.4377                                         !
 ! A41   A(3,23,31)            120.1855                                         !
 ! A42   A(24,23,31)           118.1676                                         !
 ! A43   A(23,24,25)           111.0055                                         !
 ! A44   A(23,24,27)           109.391                                          !
 ! A45   A(23,24,32)           108.1435                                         !
 ! A46   A(25,24,27)           111.9669                                         !
 ! A47   A(25,24,32)           105.2886                                         !
 ! A48   A(27,24,32)           110.929                                          !
 ! A49   A(24,25,26)           121.0018                                         !
 ! A50   A(24,25,42)           115.2669                                         !
 ! A51   A(26,25,42)           123.6443                                         !
 ! A52   A(24,27,28)           115.0567                                         !
 ! A53   A(24,27,33)           107.8271                                         !
 ! A54   A(24,27,34)           108.5644                                         !
 ! A55   A(28,27,33)           109.1757                                         !
 ! A56   A(28,27,34)           108.831                                          !
 ! A57   A(33,27,34)           107.1006                                         !
 ! A58   A(27,28,29)           112.2373                                         !
 ! A59   A(27,28,30)           109.2544                                         !
 ! A60   A(27,28,35)           107.9136                                         !
 ! A61   A(29,28,30)           111.2436                                         !
 ! A62   A(29,28,35)           107.9201                                         !
 ! A63   A(30,28,35)           108.1239                                         !
 ! A64   A(28,29,36)           110.9685                                         !
 ! A65   A(28,29,37)           110.3089                                         !
 ! A66   A(28,29,38)           111.541                                          !
 ! A67   A(36,29,37)           107.563                                          !
 ! A68   A(36,29,38)           108.8617                                         !
 ! A69   A(37,29,38)           107.4488                                         !
 ! A70   A(28,30,39)           111.742                                          !
 ! A71   A(28,30,40)           110.6768                                         !
 ! A72   A(28,30,41)           110.9234                                         !
 ! A73   A(39,30,40)           107.8327                                         !
 ! A74   A(39,30,41)           107.8863                                         !
 ! A75   A(40,30,41)           107.6154                                         !
 ! A76   A(25,42,43)           118.7538                                         !
 ! A77   A(25,42,50)           114.6291                                         !
 ! A78   A(43,42,50)           113.1161                                         !
 ! A79   A(42,43,44)           107.2385                                         !
 ! A80   A(42,43,46)           112.4847                                         !
 ! A81   A(42,43,51)           106.4237                                         !
 ! A82   A(44,43,46)           113.3006                                         !
 ! A83   A(44,43,51)           108.4934                                         !
 ! A84   A(46,43,51)           108.6144                                         !
 ! A85   A(43,44,45)           119.5371                                         !
 ! A86   A(43,44,56)           116.6611                                         !
 ! A87   A(45,44,56)           123.6488                                         !
 ! A88   A(43,46,47)           111.421                                          !
 ! A89   A(43,46,52)           108.159                                          !
 ! A90   A(43,46,53)           111.3818                                         !
 ! A91   A(47,46,52)           109.156                                          !
 ! A92   A(47,46,53)           109.706                                          !
 ! A93   A(52,46,53)           106.8765                                         !
 ! A94   A(46,47,48)           115.3461                                         !
 ! A95   A(46,47,49)           122.491                                          !
 ! A96   A(48,47,49)           122.1628                                         !
 ! A97   A(47,48,54)           118.3347                                         !
 ! A98   A(47,48,55)           122.6676                                         !
 ! A99   A(54,48,55)           118.3437                                         !
 ! A100  A(44,56,57)           122.4125                                         !
 ! A101  A(44,56,69)           116.1121                                         !
 ! A102  A(57,56,69)           120.652                                          !
 ! A103  A(56,57,58)           107.8466                                         !
 ! A104  A(56,57,60)           114.0208                                         !
 ! A105  A(56,57,70)           105.8166                                         !
 ! A106  A(58,57,60)           112.1833                                         !
 ! A107  A(58,57,70)           106.7564                                         !
 ! A108  A(60,57,70)           109.7811                                         !
 ! A109  A(57,58,59)           124.5061                                         !
 ! A110  A(57,58,67)           111.7554                                         !
 ! A111  A(59,58,67)           123.7196                                         !
 ! A112  A(57,60,61)           112.9659                                         !
 ! A113  A(57,60,71)           108.7477                                         !
 ! A114  A(57,60,72)           107.6452                                         !
 ! A115  A(61,60,71)           110.8523                                         !
 ! A116  A(61,60,72)           110.203                                          !
 ! A117  A(71,60,72)           106.1476                                         !
 ! A118  A(60,61,62)           113.2669                                         !
 ! A119  A(60,61,73)           110.3256                                         !
 ! A120  A(60,61,74)           110.1144                                         !
 ! A121  A(62,61,73)           108.1961                                         !
 ! A122  A(62,61,74)           108.581                                          !
 ! A123  A(73,61,74)           106.0791                                         !
 ! A124  A(61,62,63)           112.8771                                         !
 ! A125  A(61,62,75)           109.3344                                         !
 ! A126  A(61,62,76)           111.0732                                         !
 ! A127  A(63,62,75)           108.35                                           !
 ! A128  A(63,62,76)           107.0165                                         !
 ! A129  A(75,62,76)           108.0314                                         !
 ! A130  A(62,63,64)           121.6658                                         !
 ! A131  A(62,63,77)           114.7555                                         !
 ! A132  A(64,63,77)           115.8292                                         !
 ! A133  A(63,64,65)           122.8298                                         !
 ! A134  A(63,64,66)           111.8684                                         !
 ! A135  A(65,64,66)           125.2685                                         !
 ! A136  A(64,65,78)           111.4842                                         !
 ! A137  A(64,66,79)           111.3044                                         !
 ! A138  A(64,66,80)           111.6108                                         !
 ! A139  A(79,66,80)           108.5899                                         !
 ! A140  A(58,67,68)           109.3078                                         !
 ! D1    D(12,1,2,3)           -46.8608                                         !
 ! D2    D(12,1,2,5)          -172.4793                                         !
 ! D3    D(12,1,2,14)           67.5422                                         !
 ! D4    D(13,1,2,3)          -170.8412                                         !
 ! D5    D(13,1,2,5)            63.5403                                         !
 ! D6    D(13,1,2,14)          -56.4382                                         !
 ! D7    D(22,1,2,3)            65.9439                                         !
 ! D8    D(22,1,2,5)           -59.6745                                         !
 ! D9    D(22,1,2,14)         -179.653                                          !
 ! D10   D(1,2,3,4)             34.2689                                         !
 ! D11   D(1,2,3,23)          -144.4877                                         !
 ! D12   D(5,2,3,4)            155.9641                                         !
 ! D13   D(5,2,3,23)           -22.7925                                         !
 ! D14   D(14,2,3,4)           -79.3753                                         !
 ! D15   D(14,2,3,23)          101.8682                                         !
 ! D16   D(1,2,5,6)            -54.5349                                         !
 ! D17   D(1,2,5,15)          -175.6341                                         !
 ! D18   D(1,2,5,16)            67.8296                                         !
 ! D19   D(3,2,5,6)           -173.3648                                         !
 ! D20   D(3,2,5,15)            65.5359                                         !
 ! D21   D(3,2,5,16)           -51.0003                                         !
 ! D22   D(14,2,5,6)            63.2592                                         !
 ! D23   D(14,2,5,15)          -57.8401                                         !
 ! D24   D(14,2,5,16)         -174.3763                                         !
 ! D25   D(2,3,23,24)          170.8513                                         !
 ! D26   D(2,3,23,31)           -3.797                                          !
 ! D27   D(4,3,23,24)           -7.8471                                         !
 ! D28   D(4,3,23,31)          177.5047                                         !
 ! D29   D(2,5,6,7)            -61.1134                                         !
 ! D30   D(2,5,6,8)            118.4931                                         !
 ! D31   D(15,5,6,7)            59.3659                                         !
 ! D32   D(15,5,6,8)          -121.0276                                         !
 ! D33   D(16,5,6,7)           177.4019                                         !
 ! D34   D(16,5,6,8)            -2.9916                                         !
 ! D35   D(5,6,7,9)            179.3723                                         !
 ! D36   D(5,6,7,17)            -1.3911                                         !
 ! D37   D(8,6,7,9)             -0.2398                                         !
 ! D38   D(8,6,7,17)           178.9968                                         !
 ! D39   D(5,6,8,10)           179.574                                          !
 ! D40   D(5,6,8,18)            -0.358                                          !
 ! D41   D(7,6,8,10)            -0.8125                                         !
 ! D42   D(7,6,8,18)           179.2555                                         !
 ! D43   D(6,7,9,11)             0.7646                                         !
 ! D44   D(6,7,9,19)           179.7442                                         !
 ! D45   D(17,7,9,11)         -178.4771                                         !
 ! D46   D(17,7,9,19)            0.5025                                         !
 ! D47   D(6,8,10,11)            1.343                                          !
 ! D48   D(6,8,10,20)         -178.4963                                         !
 ! D49   D(18,8,10,11)        -178.7249                                         !
 ! D50   D(18,8,10,20)           1.4358                                         !
 ! D51   D(7,9,11,10)           -0.2368                                         !
 ! D52   D(7,9,11,21)          179.0164                                         !
 ! D53   D(19,9,11,10)        -179.2134                                         !
 ! D54   D(19,9,11,21)           0.0397                                         !
 ! D55   D(8,10,11,9)           -0.8086                                         !
 ! D56   D(8,10,11,21)         179.9384                                         !
 ! D57   D(20,10,11,9)         179.0301                                         !
 ! D58   D(20,10,11,21)         -0.2229                                         !
 ! D59   D(3,23,24,25)         -65.078                                          !
 ! D60   D(3,23,24,27)         170.8699                                         !
 ! D61   D(3,23,24,32)          49.9495                                         !
 ! D62   D(31,23,24,25)        109.6747                                         !
 ! D63   D(31,23,24,27)        -14.3773                                         !
 ! D64   D(31,23,24,32)       -135.2977                                         !
 ! D65   D(23,24,25,26)        140.9987                                         !
 ! D66   D(23,24,25,42)        -42.2739                                         !
 ! D67   D(27,24,25,26)        -96.4288                                         !
 ! D68   D(27,24,25,42)         80.2985                                         !
 ! D69   D(32,24,25,26)         24.206                                          !
 ! D70   D(32,24,25,42)       -159.0666                                         !
 ! D71   D(23,24,27,28)        177.3003                                         !
 ! D72   D(23,24,27,33)        -60.6115                                         !
 ! D73   D(23,24,27,34)         55.1                                            !
 ! D74   D(25,24,27,28)         53.8141                                         !
 ! D75   D(25,24,27,33)        175.9024                                         !
 ! D76   D(25,24,27,34)        -68.3861                                         !
 ! D77   D(32,24,27,28)        -63.4869                                         !
 ! D78   D(32,24,27,33)         58.6013                                         !
 ! D79   D(32,24,27,34)        174.3128                                         !
 ! D80   D(24,25,42,43)        157.714                                          !
 ! D81   D(24,25,42,50)         19.6248                                         !
 ! D82   D(26,25,42,43)        -25.6558                                         !
 ! D83   D(26,25,42,50)       -163.745                                          !
 ! D84   D(24,27,28,29)         56.3469                                         !
 ! D85   D(24,27,28,30)       -179.7733                                         !
 ! D86   D(24,27,28,35)        -62.4374                                         !
 ! D87   D(33,27,28,29)        -65.0114                                         !
 ! D88   D(33,27,28,30)         58.8685                                         !
 ! D89   D(33,27,28,35)        176.2044                                         !
 ! D90   D(34,27,28,29)        178.4035                                         !
 ! D91   D(34,27,28,30)        -57.7167                                         !
 ! D92   D(34,27,28,35)         59.6192                                         !
 ! D93   D(27,28,29,36)         55.2435                                         !
 ! D94   D(27,28,29,37)        174.3481                                         !
 ! D95   D(27,28,29,38)        -66.3228                                         !
 ! D96   D(30,28,29,36)        -67.5201                                         !
 ! D97   D(30,28,29,37)         51.5845                                         !
 ! D98   D(30,28,29,38)        170.9136                                         !
 ! D99   D(35,28,29,36)        174.024                                          !
 ! D100  D(35,28,29,37)        -66.8714                                         !
 ! D101  D(35,28,29,38)         52.4577                                         !
 ! D102  D(27,28,30,39)         56.3721                                         !
 ! D103  D(27,28,30,40)        176.5641                                         !
 ! D104  D(27,28,30,41)        -64.0565                                         !
 ! D105  D(29,28,30,39)       -179.1643                                         !
 ! D106  D(29,28,30,40)        -58.9723                                         !
 ! D107  D(29,28,30,41)         60.4071                                         !
 ! D108  D(35,28,30,39)        -60.831                                          !
 ! D109  D(35,28,30,40)         59.361                                          !
 ! D110  D(35,28,30,41)        178.7404                                         !
 ! D111  D(25,42,43,44)        -91.222                                          !
 ! D112  D(25,42,43,46)        143.5619                                         !
 ! D113  D(25,42,43,51)         24.7354                                         !
 ! D114  D(50,42,43,44)         47.462                                          !
 ! D115  D(50,42,43,46)        -77.7541                                         !
 ! D116  D(50,42,43,51)        163.4194                                         !
 ! D117  D(42,43,44,45)        -26.4414                                         !
 ! D118  D(42,43,44,56)        149.2269                                         !
 ! D119  D(46,43,44,45)         98.2821                                         !
 ! D120  D(46,43,44,56)        -86.0496                                         !
 ! D121  D(51,43,44,45)       -141.0198                                         !
 ! D122  D(51,43,44,56)         34.6486                                         !
 ! D123  D(42,43,46,47)       -161.455                                          !
 ! D124  D(42,43,46,52)        -41.4786                                         !
 ! D125  D(42,43,46,53)         75.6846                                         !
 ! D126  D(44,43,46,47)         76.7102                                         !
 ! D127  D(44,43,46,52)       -163.3134                                         !
 ! D128  D(44,43,46,53)        -46.1501                                         !
 ! D129  D(51,43,46,47)        -43.9194                                         !
 ! D130  D(51,43,46,52)         76.0569                                         !
 ! D131  D(51,43,46,53)       -166.7798                                         !
 ! D132  D(43,44,56,57)       -159.7644                                         !
 ! D133  D(43,44,56,69)          9.8953                                         !
 ! D134  D(45,44,56,57)         15.708                                          !
 ! D135  D(45,44,56,69)       -174.6324                                         !
 ! D136  D(43,46,47,48)        176.9904                                         !
 ! D137  D(43,46,47,49)         -2.9217                                         !
 ! D138  D(52,46,47,48)         57.6046                                         !
 ! D139  D(52,46,47,49)       -122.3075                                         !
 ! D140  D(53,46,47,48)        -59.1946                                         !
 ! D141  D(53,46,47,49)        120.8933                                         !
 ! D142  D(46,47,48,54)       -176.5044                                         !
 ! D143  D(46,47,48,55)         -5.9353                                         !
 ! D144  D(49,47,48,54)          3.408                                          !
 ! D145  D(49,47,48,55)        173.9771                                         !
 ! D146  D(44,56,57,58)         47.6117                                         !
 ! D147  D(44,56,57,60)        -77.6809                                         !
 ! D148  D(44,56,57,70)        161.5657                                         !
 ! D149  D(69,56,57,58)       -121.59                                           !
 ! D150  D(69,56,57,60)        113.1173                                         !
 ! D151  D(69,56,57,70)         -7.636                                          !
 ! D152  D(56,57,58,59)       -136.7011                                         !
 ! D153  D(56,57,58,67)         41.7669                                         !
 ! D154  D(60,57,58,59)        -10.323                                          !
 ! D155  D(60,57,58,67)        168.145                                          !
 ! D156  D(70,57,58,59)        109.9722                                         !
 ! D157  D(70,57,58,67)        -71.5598                                         !
 ! D158  D(56,57,60,61)       -166.8231                                         !
 ! D159  D(56,57,60,71)         69.6658                                         !
 ! D160  D(56,57,60,72)        -44.9263                                         !
 ! D161  D(58,57,60,61)         70.2159                                         !
 ! D162  D(58,57,60,71)        -53.2952                                         !
 ! D163  D(58,57,60,72)       -167.8873                                         !
 ! D164  D(70,57,60,61)        -48.3077                                         !
 ! D165  D(70,57,60,71)       -171.8188                                         !
 ! D166  D(70,57,60,72)         73.5891                                         !
 ! D167  D(57,58,67,68)       -165.2882                                         !
 ! D168  D(59,58,67,68)         13.194                                          !
 ! D169  D(57,60,61,62)       -145.7715                                         !
 ! D170  D(57,60,61,73)        -24.3213                                         !
 ! D171  D(57,60,61,74)         92.4351                                         !
 ! D172  D(71,60,61,62)        -23.4306                                         !
 ! D173  D(71,60,61,73)         98.0196                                         !
 ! D174  D(71,60,61,74)       -145.224                                          !
 ! D175  D(72,60,61,62)         93.7814                                         !
 ! D176  D(72,60,61,73)       -144.7683                                         !
 ! D177  D(72,60,61,74)        -28.0119                                         !
 ! D178  D(60,61,62,63)         63.9394                                         !
 ! D179  D(60,61,62,75)       -175.3854                                         !
 ! D180  D(60,61,62,76)        -56.2582                                         !
 ! D181  D(73,61,62,63)        -58.6996                                         !
 ! D182  D(73,61,62,75)         61.9755                                         !
 ! D183  D(73,61,62,76)       -178.8973                                         !
 ! D184  D(74,61,62,63)       -173.4129                                         !
 ! D185  D(74,61,62,75)        -52.7377                                         !
 ! D186  D(74,61,62,76)         66.3895                                         !
 ! D187  D(61,62,63,64)       -105.9734                                         !
 ! D188  D(61,62,63,77)         42.0339                                         !
 ! D189  D(75,62,63,64)        132.7914                                         !
 ! D190  D(75,62,63,77)        -79.2014                                         !
 ! D191  D(76,62,63,64)         16.5238                                         !
 ! D192  D(76,62,63,77)        164.5311                                         !
 ! D193  D(62,63,64,65)         -0.5761                                         !
 ! D194  D(62,63,64,66)        177.4236                                         !
 ! D195  D(77,63,64,65)       -148.2644                                         !
 ! D196  D(77,63,64,66)         29.7352                                         !
 ! D197  D(63,64,65,78)       -172.5072                                         !
 ! D198  D(66,64,65,78)          9.7667                                         !
 ! D199  D(63,64,66,79)        160.2553                                         !
 ! D200  D(63,64,66,80)         38.753                                          !
 ! D201  D(65,64,66,79)        -21.8035                                         !
 ! D202  D(65,64,66,80)       -143.3058                                         !
 --------------------------------------------------------------------------------
 Symmetry turned off by external request.
 Stoichiometry    C25H41N8O6(1+)
 Framework group  C1[X(C25H41N8O6)]
 Deg. of freedom   234
 Full point group                 C1      NOp   1
                          Input orientation:                          
 ---------------------------------------------------------------------
 Center     Atomic      Atomic             Coordinates (Angstroms)
 Number     Number       Type             X           Y           Z
 ---------------------------------------------------------------------
      1          7           0       -4.325834   10.617138   -7.850105
      2          6           0       -3.420518    9.684869   -8.584950
      3          6           0       -2.449080    9.145766   -7.505882
      4          8           0       -2.868686    8.973732   -6.362112
      5          6           0       -2.775474   10.406955   -9.778740
      6          6           0       -3.782903   11.046837  -10.713588
      7          6           0       -4.737419   10.265857  -11.381322
      8          6           0       -3.778894   12.431103  -10.916969
      9          6           0       -5.672497   10.857450  -12.231468
     10          6           0       -4.700344   13.024951  -11.785041
     11          6           0       -5.654740   12.241159  -12.437872
     12          1           0       -4.663643   10.181385   -6.980297
     13          1           0       -5.161519   10.977661   -8.388084
     14          1           0       -4.037849    8.849190   -8.931360
     15          1           0       -2.181193    9.673017  -10.338635
     16          1           0       -2.089593   11.168313   -9.391449
     17          1           0       -4.745994    9.185940  -11.248628
     18          1           0       -3.052808   13.050571  -10.396848
     19          1           0       -6.403023   10.239236  -12.745015
     20          1           0       -4.669636   14.098180  -11.952011
     21          1           0       -6.371348   12.701624  -13.111405
     22          1           0       -3.769203   11.428100   -7.511668
     23          7           0       -1.170073    8.911649   -7.866666
     24          6           0       -0.138258    8.591546   -6.869307
     25          6           0        0.105472    9.786405   -5.921941
     26          8           0        0.301742    9.613965   -4.732700
     27          6           0        1.149403    8.155638   -7.588575
     28          6           0        2.343399    7.850246   -6.662185
     29          6           0        2.007242    6.778596   -5.615048
     30          6           0        3.551916    7.436192   -7.513713
     31          1           0       -0.883075    9.032485   -8.828045
     32          1           0       -0.518319    7.792016   -6.231965
     33          1           0        0.916212    7.261461   -8.183634
     34          1           0        1.441343    8.947451   -8.295052
     35          1           0        2.602147    8.774968   -6.128450
     36          1           0        1.638531    5.862290   -6.094917
     37          1           0        2.901663    6.514165   -5.041158
     38          1           0        1.254663    7.133236   -4.904681
     39          1           0        3.808386    8.202837   -8.255060
     40          1           0        4.431602    7.272395   -6.882650
     41          1           0        3.350357    6.501103   -8.051726
     42          7           0        0.152471   11.026195   -6.534908
     43          6           0       -0.114163   12.213227   -5.735449
     44          6           0       -1.630424   12.499718   -5.832185
     45          8           0       -2.265966   12.117956   -6.836385
     46          6           0        0.757182   13.407695   -6.149194
     47          6           0        0.806730   14.472713   -5.047712
     48          7           0        1.606378   15.534745   -5.303941
     49          8           0        0.166758   14.371827   -4.001263
     50          1           0       -0.275824   11.060085   -7.452216
     51          1           0        0.123255   11.949773   -4.703095
     52          1           0        1.772459   13.040145   -6.340250
     53          1           0        0.400183   13.858690   -7.084467
     54          1           0        1.714841   16.238411   -4.585486
     55          1           0        2.202005   15.584598   -6.117379
     56          7           0       -2.200891   13.076120   -4.769647
     57          6           0       -3.643131   13.018200   -4.525444
     58          6           0       -4.095016   11.553796   -4.706439
     59          8           0       -5.105500   11.209570   -5.301470
     60          6           0       -4.462419   13.988413   -5.387978
     61          6           0       -5.916443   14.147127   -4.899244
     62          6           0       -6.920286   14.356858   -6.040984
     63          7           0       -7.009188   13.204190   -6.939758
     64          6           0       -6.455988   13.225838   -8.198012
     65          7           0       -5.842178   14.245984   -8.668933
     66          7           0       -6.615220   11.965144   -8.875762
     67          8           0       -3.231329   10.700238   -4.162098
     68          1           0       -3.417404    9.797148   -4.491512
     69          1           0       -1.565586   13.419685   -4.050683
     70          1           0       -3.776647   13.261446   -3.464484
     71          1           0       -4.435953   13.644925   -6.424022
     72          1           0       -3.951479   14.956365   -5.375027
     73          1           0       -6.225574   13.262441   -4.329647
     74          1           0       -5.991498   14.995288   -4.207600
     75          1           0       -7.915209   14.543732   -5.619839
     76          1           0       -6.644961   15.218177   -6.652392
     77          1           0       -7.014936   12.303535   -6.475447
     78          1           0       -5.610528   14.120603   -9.652179
     79          1           0       -6.508541   12.070544   -9.883291
     80          1           0       -7.527122   11.549954   -8.687137
 ---------------------------------------------------------------------
 Rotational constants (GHZ):           0.1123418           0.0713540           0.0559687
 Standard basis: 6-31G(d) (6D, 7F)
   667 basis functions,  1256 primitive gaussians,   667 cartesian basis functions
   147 alpha electrons      147 beta electrons
       nuclear repulsion energy      5027.0043943685 Hartrees.
 NAtoms=   80 NActive=   80 NUniq=   80 SFac= 1.00D+00 NAtFMM=   60 NAOKFM=T Big=T
 Integral buffers will be    131072 words long.
 Raffenetti 2 integral format.
 Two-electron integral symmetry is turned off.
 Nuclear repulsion after empirical dispersion term =     5026.8839479897 Hartrees.
 One-electron integrals computed using PRISM.
 NBasis=   667 RedAO= T EigKep=  4.69D-04  NBF=   667
 NBsUse=   667 1.00D-06 EigRej= -1.00D+00 NBFU=   667
 Initial guess from the checkpoint file:  "conf-549.chk"
 B after Tr=     0.000000    0.000000    0.000000
         Rot=    1.000000    0.000000    0.000000    0.000000 Ang=   0.00 deg.
 Requested convergence on RMS density matrix=1.00D-08 within 128 cycles.
 Requested convergence on MAX density matrix=1.00D-06.
 Requested convergence on             energy=1.00D-06.
 No special actions if energy rises.
 SCF Done:  E(RB3LYP) =  -1866.74204864     A.U. after    2 cycles
            NFock=  2  Conv=0.10D-07     -V/T= 2.0094

 **********************************************************************

            Population analysis using the SCF Density.

 **********************************************************************

 Alpha  occ. eigenvalues --  -19.29663 -19.25427 -19.25072 -19.24429 -19.22016
 Alpha  occ. eigenvalues --  -19.21558 -14.53139 -14.49336 -14.46782 -14.46102
 Alpha  occ. eigenvalues --  -14.45742 -14.45739 -14.43491 -14.37777 -10.43385
 Alpha  occ. eigenvalues --  -10.42484 -10.40444 -10.39712 -10.38530 -10.38322
 Alpha  occ. eigenvalues --  -10.37700 -10.34626 -10.33809 -10.33776 -10.33123
 Alpha  occ. eigenvalues --  -10.31747 -10.30739 -10.30599 -10.30427 -10.30302
 Alpha  occ. eigenvalues --  -10.30198 -10.30103 -10.29390 -10.28798 -10.27552
 Alpha  occ. eigenvalues --  -10.27060 -10.27020 -10.24587 -10.24023  -1.21458
 Alpha  occ. eigenvalues --   -1.17302  -1.15549  -1.13646  -1.13417  -1.12549
 Alpha  occ. eigenvalues --   -1.09285  -1.06983  -1.05672  -1.03813  -1.02363
 Alpha  occ. eigenvalues --   -1.00579  -0.98290  -0.97316  -0.93851  -0.92212
 Alpha  occ. eigenvalues --   -0.90366  -0.89726  -0.87864  -0.86130  -0.85771
 Alpha  occ. eigenvalues --   -0.83601  -0.83411  -0.78666  -0.78315  -0.77109
 Alpha  occ. eigenvalues --   -0.75562  -0.74720  -0.72780  -0.72331  -0.71747
 Alpha  occ. eigenvalues --   -0.70448  -0.70103  -0.69170  -0.68603  -0.68050
 Alpha  occ. eigenvalues --   -0.67839  -0.67627  -0.66687  -0.65922  -0.64292
 Alpha  occ. eigenvalues --   -0.64114  -0.63210  -0.62530  -0.62136  -0.61665
 Alpha  occ. eigenvalues --   -0.61168  -0.60281  -0.59760  -0.59639  -0.59017
 Alpha  occ. eigenvalues --   -0.58245  -0.57706  -0.57247  -0.56588  -0.56225
 Alpha  occ. eigenvalues --   -0.55407  -0.55266  -0.55223  -0.54396  -0.53912
 Alpha  occ. eigenvalues --   -0.53671  -0.53400  -0.53215  -0.53144  -0.52483
 Alpha  occ. eigenvalues --   -0.52363  -0.52042  -0.51600  -0.51532  -0.50891
 Alpha  occ. eigenvalues --   -0.50367  -0.49779  -0.49419  -0.48895  -0.48704
 Alpha  occ. eigenvalues --   -0.47685  -0.47376  -0.47109  -0.46964  -0.46785
 Alpha  occ. eigenvalues --   -0.46572  -0.45877  -0.45743  -0.45436  -0.45246
 Alpha  occ. eigenvalues --   -0.44486  -0.44286  -0.43829  -0.42792  -0.41953
 Alpha  occ. eigenvalues --   -0.41132  -0.40400  -0.40257  -0.39794  -0.39607
 Alpha  occ. eigenvalues --   -0.39001  -0.38413  -0.37890  -0.37062  -0.36682
 Alpha  occ. eigenvalues --   -0.36605  -0.36205  -0.35967  -0.35427  -0.34801
 Alpha  occ. eigenvalues --   -0.34254  -0.31389
 Alpha virt. eigenvalues --   -0.12619  -0.11638  -0.11584  -0.11092  -0.09532
 Alpha virt. eigenvalues --   -0.07976  -0.07481  -0.05153  -0.04564  -0.03217
 Alpha virt. eigenvalues --   -0.02459  -0.02035  -0.01504  -0.00424  -0.00069
 Alpha virt. eigenvalues --    0.00775   0.01262   0.01726   0.01856   0.02457
 Alpha virt. eigenvalues --    0.02844   0.03305   0.03454   0.03661   0.03787
 Alpha virt. eigenvalues --    0.04023   0.04191   0.04798   0.05057   0.05142
 Alpha virt. eigenvalues --    0.05587   0.05698   0.06048   0.06666   0.06846
 Alpha virt. eigenvalues --    0.07109   0.07424   0.07917   0.08249   0.08990
 Alpha virt. eigenvalues --    0.09074   0.09361   0.09522   0.09652   0.09996
 Alpha virt. eigenvalues --    0.10032   0.10322   0.10585   0.10912   0.11363
 Alpha virt. eigenvalues --    0.11572   0.12390   0.12554   0.12850   0.12970
 Alpha virt. eigenvalues --    0.13564   0.13717   0.14739   0.14808   0.14887
 Alpha virt. eigenvalues --    0.15500   0.15634   0.16200   0.17256   0.17437
 Alpha virt. eigenvalues --    0.17638   0.17757   0.18006   0.19617   0.19626
 Alpha virt. eigenvalues --    0.20128   0.21005   0.21499   0.21685   0.22138
 Alpha virt. eigenvalues --    0.22966   0.24418   0.25106   0.25938   0.26038
 Alpha virt. eigenvalues --    0.27499   0.28359   0.29167   0.30176   0.31223
 Alpha virt. eigenvalues --    0.32438   0.34399   0.34737   0.37140   0.37979
 Alpha virt. eigenvalues --    0.38817   0.39364   0.40429   0.42074   0.42397
 Alpha virt. eigenvalues --    0.42517   0.43001   0.43292   0.43382   0.43464
 Alpha virt. eigenvalues --    0.44088   0.44307   0.44407   0.44659   0.45543
 Alpha virt. eigenvalues --    0.45747   0.46474   0.46553   0.46989   0.48079
 Alpha virt. eigenvalues --    0.48493   0.48908   0.49083   0.49314   0.49930
 Alpha virt. eigenvalues --    0.50057   0.50142   0.50420   0.50777   0.51159
 Alpha virt. eigenvalues --    0.51281   0.51655   0.52589   0.53377   0.53669
 Alpha virt. eigenvalues --    0.53929   0.54172   0.54813   0.55018   0.55223
 Alpha virt. eigenvalues --    0.56114   0.56151   0.56758   0.57192   0.57459
 Alpha virt. eigenvalues --    0.58020   0.58506   0.58931   0.59308   0.59417
 Alpha virt. eigenvalues --    0.60164   0.60899   0.61152   0.61272   0.61400
 Alpha virt. eigenvalues --    0.62614   0.63312   0.63703   0.64773   0.65040
 Alpha virt. eigenvalues --    0.65745   0.66007   0.66503   0.67051   0.67520
 Alpha virt. eigenvalues --    0.68367   0.68636   0.69592   0.69896   0.70090
 Alpha virt. eigenvalues --    0.70572   0.71037   0.71124   0.71809   0.72534
 Alpha virt. eigenvalues --    0.72814   0.73401   0.73735   0.74079   0.74123
 Alpha virt. eigenvalues --    0.74775   0.75020   0.75225   0.75563   0.75760
 Alpha virt. eigenvalues --    0.76050   0.76773   0.77187   0.77310   0.77605
 Alpha virt. eigenvalues --    0.78003   0.78101   0.78380   0.78632   0.79042
 Alpha virt. eigenvalues --    0.79316   0.79451   0.79935   0.80798   0.81094
 Alpha virt. eigenvalues --    0.81599   0.81774   0.82673   0.82747   0.83043
 Alpha virt. eigenvalues --    0.83294   0.83660   0.83780   0.84338   0.84491
 Alpha virt. eigenvalues --    0.84806   0.84998   0.85638   0.86179   0.86791
 Alpha virt. eigenvalues --    0.86861   0.87638   0.88110   0.88703   0.88884
 Alpha virt. eigenvalues --    0.89293   0.89691   0.90459   0.90788   0.91446
 Alpha virt. eigenvalues --    0.91827   0.92137   0.92829   0.93397   0.94743
 Alpha virt. eigenvalues --    0.95027   0.95192   0.95717   0.96187   0.97440
 Alpha virt. eigenvalues --    0.98073   0.98270   0.99941   1.00545   1.01985
 Alpha virt. eigenvalues --    1.02390   1.02920   1.03525   1.03947   1.05175
 Alpha virt. eigenvalues --    1.05350   1.05742   1.06505   1.07305   1.08469
 Alpha virt. eigenvalues --    1.09212   1.10206   1.10411   1.11390   1.12093
 Alpha virt. eigenvalues --    1.12860   1.14044   1.14347   1.15911   1.16393
 Alpha virt. eigenvalues --    1.16964   1.17067   1.18659   1.19182   1.19982
 Alpha virt. eigenvalues --    1.20730   1.21577   1.22306   1.23170   1.23728
 Alpha virt. eigenvalues --    1.24239   1.26140   1.27292   1.27487   1.28484
 Alpha virt. eigenvalues --    1.29495   1.30043   1.30809   1.31312   1.31624
 Alpha virt. eigenvalues --    1.32268   1.32928   1.33390   1.35002   1.35320
 Alpha virt. eigenvalues --    1.35754   1.35993   1.37072   1.37241   1.38114
 Alpha virt. eigenvalues --    1.38951   1.39703   1.40166   1.40647   1.41190
 Alpha virt. eigenvalues --    1.43002   1.44578   1.45491   1.46488   1.47287
 Alpha virt. eigenvalues --    1.48290   1.48944   1.49581   1.51312   1.52254
 Alpha virt. eigenvalues --    1.52604   1.53666   1.56083   1.56211   1.56949
 Alpha virt. eigenvalues --    1.58036   1.58321   1.59546   1.59858   1.61056
 Alpha virt. eigenvalues --    1.61286   1.62770   1.62895   1.63821   1.64339
 Alpha virt. eigenvalues --    1.65049   1.65121   1.65955   1.66527   1.67644
 Alpha virt. eigenvalues --    1.67764   1.68601   1.69074   1.69560   1.70078
 Alpha virt. eigenvalues --    1.70799   1.71040   1.71369   1.71980   1.72672
 Alpha virt. eigenvalues --    1.73125   1.73982   1.74314   1.74951   1.76065
 Alpha virt. eigenvalues --    1.76283   1.76546   1.77164   1.77732   1.78111
 Alpha virt. eigenvalues --    1.78669   1.78986   1.80247   1.80670   1.80736
 Alpha virt. eigenvalues --    1.81371   1.81956   1.82472   1.82640   1.83253
 Alpha virt. eigenvalues --    1.83967   1.84946   1.85366   1.85749   1.86949
 Alpha virt. eigenvalues --    1.87181   1.87699   1.87827   1.88477   1.89507
 Alpha virt. eigenvalues --    1.90281   1.90392   1.91198   1.91668   1.92568
 Alpha virt. eigenvalues --    1.93316   1.94071   1.94294   1.94739   1.95301
 Alpha virt. eigenvalues --    1.95932   1.96458   1.96697   1.97735   1.98154
 Alpha virt. eigenvalues --    1.98805   1.99698   2.00146   2.00833   2.01919
 Alpha virt. eigenvalues --    2.02537   2.02775   2.03055   2.04078   2.04257
 Alpha virt. eigenvalues --    2.05868   2.06983   2.07698   2.08780   2.09996
 Alpha virt. eigenvalues --    2.11370   2.11507   2.12502   2.13214   2.13731
 Alpha virt. eigenvalues --    2.14708   2.15706   2.16052   2.17290   2.17456
 Alpha virt. eigenvalues --    2.18267   2.18749   2.19787   2.20099   2.20783
 Alpha virt. eigenvalues --    2.21713   2.22180   2.23646   2.24244   2.25134
 Alpha virt. eigenvalues --    2.26602   2.27214   2.27565   2.28634   2.29407
 Alpha virt. eigenvalues --    2.30124   2.30790   2.32025   2.33107   2.34316
 Alpha virt. eigenvalues --    2.34597   2.34922   2.36391   2.37750   2.38287
 Alpha virt. eigenvalues --    2.38551   2.39221   2.40452   2.40559   2.42118
 Alpha virt. eigenvalues --    2.42484   2.43155   2.44271   2.45547   2.46344
 Alpha virt. eigenvalues --    2.47007   2.47666   2.47777   2.48813   2.49362
 Alpha virt. eigenvalues --    2.49762   2.52364   2.53476   2.53873   2.54136
 Alpha virt. eigenvalues --    2.54907   2.54995   2.56507   2.58275   2.58686
 Alpha virt. eigenvalues --    2.59739   2.61016   2.61357   2.61991   2.63058
 Alpha virt. eigenvalues --    2.63101   2.64037   2.64755   2.65313   2.66411
 Alpha virt. eigenvalues --    2.66802   2.67547   2.69101   2.72489   2.72989
 Alpha virt. eigenvalues --    2.75342   2.76578   2.77396   2.81121   2.82991
 Alpha virt. eigenvalues --    2.84511   2.87641   2.88816   2.90494   2.92169
 Alpha virt. eigenvalues --    2.93047   2.93833   2.94081   2.96716   2.98079
 Alpha virt. eigenvalues --    2.98350   3.00366   3.02648   3.07128   3.07292
 Alpha virt. eigenvalues --    3.29335   3.71507   3.79803   3.83335   3.85921
 Alpha virt. eigenvalues --    3.86870   3.87994   3.91967   3.94488   3.98480
 Alpha virt. eigenvalues --    3.99621   4.02044   4.04437   4.07039   4.08104
 Alpha virt. eigenvalues --    4.09060   4.10838   4.11414   4.12588   4.16592
 Alpha virt. eigenvalues --    4.19502   4.21471   4.22486   4.23474   4.24135
 Alpha virt. eigenvalues --    4.25068   4.28036   4.30309   4.33052   4.33676
 Alpha virt. eigenvalues --    4.38686   4.40244   4.42207   4.46181   4.52352
 Alpha virt. eigenvalues --    4.53845   4.55952   4.59056   4.59809   4.62271
          Condensed to atoms (all electrons):
 Mulliken charges:
               1
     1  N   -0.826167
     2  C   -0.097177
     3  C    0.681204
     4  O   -0.550548
     5  C   -0.398494
     6  C    0.146191
     7  C   -0.184209
     8  C   -0.182725
     9  C   -0.140816
    10  C   -0.156609
    11  C   -0.141391
    12  H    0.414407
    13  H    0.453407
    14  H    0.211002
    15  H    0.179619
    16  H    0.186155
    17  H    0.143254
    18  H    0.156229
    19  H    0.165665
    20  H    0.171365
    21  H    0.169097
    22  H    0.445131
    23  N   -0.651149
    24  C   -0.033436
    25  C    0.617143
    26  O   -0.485825
    27  C   -0.301266
    28  C   -0.081451
    29  C   -0.462987
    30  C   -0.446444
    31  H    0.347744
    32  H    0.208681
    33  H    0.157469
    34  H    0.132846
    35  H    0.149432
    36  H    0.139718
    37  H    0.160713
    38  H    0.174622
    39  H    0.140467
    40  H    0.162504
    41  H    0.148424
    42  N   -0.596891
    43  C   -0.075219
    44  C    0.632069
    45  O   -0.604020
    46  C   -0.392387
    47  C    0.628361
    48  N   -0.741147
    49  O   -0.522277
    50  H    0.327763
    51  H    0.228060
    52  H    0.199534
    53  H    0.179766
    54  H    0.364860
    55  H    0.353843
    56  N   -0.586671
    57  C   -0.047276
    58  C    0.601238
    59  O   -0.518857
    60  C   -0.261090
    61  C   -0.290509
    62  C   -0.141083
    63  N   -0.587209
    64  C    0.568174
    65  N   -0.638552
    66  N   -0.837440
    67  O   -0.544165
    68  H    0.451448
    69  H    0.396291
    70  H    0.199775
    71  H    0.177467
    72  H    0.163288
    73  H    0.148894
    74  H    0.157256
    75  H    0.160837
    76  H    0.204274
    77  H    0.333835
    78  H    0.285272
    79  H    0.357705
    80  H    0.342984
 Sum of Mulliken charges =   1.00000
 Mulliken charges with hydrogens summed into heavy atoms:
               1
     1  N    0.486778
     2  C    0.113825
     3  C    0.681204
     4  O   -0.550548
     5  C   -0.032720
     6  C    0.146191
     7  C   -0.040955
     8  C   -0.026496
     9  C    0.024849
    10  C    0.014757
    11  C    0.027706
    23  N   -0.303405
    24  C    0.175245
    25  C    0.617143
    26  O   -0.485825
    27  C   -0.010952
    28  C    0.067982
    29  C    0.012066
    30  C    0.004952
    42  N   -0.269128
    43  C    0.152842
    44  C    0.632069
    45  O   -0.604020
    46  C   -0.013087
    47  C    0.628361
    48  N   -0.022444
    49  O   -0.522277
    56  N   -0.190380
    57  C    0.152499
    58  C    0.601238
    59  O   -0.518857
    60  C    0.079666
    61  C    0.015642
    62  C    0.224029
    63  N   -0.253374
    64  C    0.568174
    65  N   -0.353279
    66  N   -0.136752
    67  O   -0.092717
 Electronic spatial extent (au):  <R**2>=         217487.9539
 Charge=              1.0000 electrons
 Dipole moment (field-independent basis, Debye):
    X=            -12.7369    Y=             55.6243    Z=            -41.2025  Tot=             70.3842
 Quadrupole moment (field-independent basis, Debye-Ang):
   XX=           -126.1414   YY=            451.9137   ZZ=            145.8654
   XY=           -130.6755   XZ=            119.1293   YZ=           -455.7233
 Traceless Quadrupole moment (field-independent basis, Debye-Ang):
   XX=           -283.3540   YY=            294.7011   ZZ=            -11.3471
   XY=           -130.6755   XZ=            119.1293   YZ=           -455.7233
 Octapole moment (field-independent basis, Debye-Ang**2):
  XXX=           1129.5386  YYY=            922.3404  ZZZ=           1350.6231  XYY=           -713.8078
  XXY=          -1451.8222  XXZ=            761.6477  XZZ=           -707.6561  YZZ=           1456.5484
  YYZ=          -3634.0125  XYZ=           1217.5042
 Hexadecapole moment (field-independent basis, Debye-Ang**3):
 XXXX=         -16766.9848 YYYY=         -68523.8738 ZZZZ=         -42821.9726 XXXY=          15104.5861
 XXXZ=          -8702.9804 YYYX=          10006.6352 YYYZ=          -8131.5803 ZZZX=            452.9932
 ZZZY=          16840.5482 XXYY=         -21112.1904 XXZZ=          -7814.8009 YYZZ=           1757.1955
 XXYZ=           8905.4051 YYXZ=           7399.6769 ZZXY=          -6251.8434
 N-N= 5.026883947990D+03 E-N=-1.437097252050D+04  KE= 1.849306070313D+03
 Unable to Open any file for archive entry.
 1\1\GINC-LAC-316\SP\RB3LYP\6-31G(d)\C25H41N8O6(1+)\KENGMITH\11-Jun-202
 2\0\\# B3LYP/6-31G* empiricaldispersion=gd3 guess=read geom=check nosy
 mm integral(ultrafinegrid)\\Candidate Structure: Conf:549 Charge calc 
 in gas phase\\1,1\N,0,-4.3258337731,10.6171384343,-7.8501049768\C,0,-3
 .4205184664,9.6848688199,-8.5849499575\C,0,-2.4490802335,9.1457661199,
 -7.5058821259\O,0,-2.8686858272,8.9737322694,-6.3621119058\C,0,-2.7754
 739621,10.4069549029,-9.7787398366\C,0,-3.7829029723,11.046837414,-10.
 7135882251\C,0,-4.7374193396,10.2658567127,-11.3813223535\C,0,-3.77889
 39259,12.4311031097,-10.9169686979\C,0,-5.6724972307,10.8574498689,-12
 .2314680907\C,0,-4.7003441898,13.0249509413,-11.7850410218\C,0,-5.6547
 401397,12.2411591116,-12.4378724702\H,0,-4.6636427841,10.18138529,-6.9
 802972125\H,0,-5.1615190989,10.9776610143,-8.3880842454\H,0,-4.0378485
 6,8.8491901746,-8.9313600077\H,0,-2.1811930531,9.6730169823,-10.338635
 1581\H,0,-2.0895925065,11.168312652,-9.3914485676\H,0,-4.7459935407,9.
 1859399665,-11.2486280318\H,0,-3.0528082908,13.0505708965,-10.39684827
 2\H,0,-6.4030226261,10.2392364931,-12.7450149613\H,0,-4.6696364684,14.
 0981799565,-11.9520106098\H,0,-6.3713481957,12.7016241739,-13.11140471
 17\H,0,-3.7692033019,11.4280995479,-7.5116678789\N,0,-1.1700730096,8.9
 116491003,-7.8666659673\C,0,-0.1382582286,8.5915464291,-6.8693073445\C
 ,0,0.1054724762,9.7864051456,-5.921940585\O,0,0.3017419579,9.613964672
 ,-4.7326999858\C,0,1.1494031356,8.1556383306,-7.588575044\C,0,2.343399
 3443,7.8502456695,-6.6621849457\C,0,2.0072415752,6.7785959116,-5.61504
 76922\C,0,3.5519160781,7.4361921557,-7.5137126146\H,0,-0.8830751653,9.
 0324850943,-8.8280452763\H,0,-0.5183190937,7.7920156777,-6.2319645856\
 H,0,0.9162119004,7.2614607363,-8.1836337956\H,0,1.4413425712,8.9474507
 249,-8.2950523485\H,0,2.6021471922,8.7749680826,-6.1284504793\H,0,1.63
 85314385,5.8622897688,-6.0949169843\H,0,2.9016631289,6.514164742,-5.04
 11584056\H,0,1.2546634356,7.1332364621,-4.9046810256\H,0,3.808386065,8
 .2028370452,-8.255059784\H,0,4.4316020584,7.2723947906,-6.8826499926\H
 ,0,3.3503567642,6.5011029816,-8.0517264767\N,0,0.1524710393,11.0261952
 778,-6.5349079266\C,0,-0.1141632384,12.2132265706,-5.7354491303\C,0,-1
 .6304242669,12.4997178604,-5.8321854562\O,0,-2.2659664852,12.117956044
 4,-6.836385385\C,0,0.757181851,13.4076950377,-6.1491943163\C,0,0.80672
 96608,14.4727130002,-5.0477116251\N,0,1.6063782535,15.5347446849,-5.30
 39413546\O,0,0.1667581391,14.3718266425,-4.0012634261\H,0,-0.275824088
 3,11.060085101,-7.4522156137\H,0,0.12325451,11.9497733199,-4.703094913
 2\H,0,1.7724593275,13.0401446405,-6.3402496715\H,0,0.4001832029,13.858
 6896531,-7.0844665688\H,0,1.7148412553,16.2384113568,-4.585486224\H,0,
 2.2020047776,15.5845983121,-6.117379415\N,0,-2.2008912699,13.076119623
 6,-4.7696474156\C,0,-3.6431307492,13.0181998418,-4.5254435919\C,0,-4.0
 950161225,11.5537959436,-4.7064393481\O,0,-5.1054998191,11.2095698766,
 -5.3014695115\C,0,-4.462419485,13.9884128686,-5.3879783103\C,0,-5.9164
 432609,14.1471266158,-4.89924408\C,0,-6.920285536,14.3568577434,-6.040
 98395\N,0,-7.0091884497,13.2041895923,-6.9397576184\C,0,-6.4559877573,
 13.2258382723,-8.1980115341\N,0,-5.8421776763,14.2459842653,-8.6689328
 724\N,0,-6.6152202217,11.9651438448,-8.8757617876\O,0,-3.2313294237,10
 .7002384448,-4.1620975581\H,0,-3.4174041887,9.7971476277,-4.4915121213
 \H,0,-1.5655855578,13.4196845049,-4.0506833085\H,0,-3.7766467361,13.26
 14456406,-3.4644839693\H,0,-4.4359526822,13.6449254892,-6.4240219585\H
 ,0,-3.9514794785,14.9563648298,-5.375026875\H,0,-6.225573635,13.262441
 3911,-4.3296469494\H,0,-5.9914977054,14.9952876949,-4.2075997405\H,0,-
 7.9152088573,14.543731632,-5.6198394989\H,0,-6.6449612706,15.218176827
 ,-6.6523916847\H,0,-7.0149357302,12.3035352899,-6.4754465362\H,0,-5.61
 05282105,14.1206033936,-9.6521792714\H,0,-6.5085414316,12.0705444436,-
 9.8832910703\H,0,-7.527122411,11.549954038,-8.6871369098\\Version=ES64
 L-G16RevC.01\HF=-1866.7420486\RMSD=9.983e-09\Dipole=-0.3318302,0.30160
 11,-2.7291871\Quadrupole=-210.6667224,219.1030472,-8.4363248,-97.15400
 42,88.5696906,-338.8191337\PG=C01 [X(C25H41N8O6)]\\@
 The archive entry for this job was punched.


 If fifty million people say a stupid thing,
 it is still a stupid thing.
                   -- Anatole France
 Job cpu time:       0 days  0 hours  4 minutes  4.2 seconds.
 Elapsed time:       0 days  0 hours  1 minutes  2.1 seconds.
 File lengths (MBytes):  RWF=    344 Int=      0 D2E=      0 Chk=     56 Scr=     16
 Normal termination of Gaussian 16 at Sat Jun 11 21:07:25 2022.
