 Entering Gaussian System, Link 0=/opt/software/Gaussian/g16-AVX2-C.01/g16/g16
 Input=charge-conf-474.com
 Output=charge-conf-474.log
 Initial command:
 /opt/software/Gaussian/g16-AVX2-C.01/g16/l1.exe "/mnt/gs18/scratch/users/kengmith/Gau-16776.inp" -scrdir="/mnt/gs18/scratch/users/kengmith/"
 Entering Link 1 = /opt/software/Gaussian/g16-AVX2-C.01/g16/l1.exe PID=     16786.
  
 Copyright (c) 1988-2019, Gaussian, Inc.  All Rights Reserved.
  
 This is part of the Gaussian(R) 16 program.  It is based on
 the Gaussian(R) 09 system (copyright 2009, Gaussian, Inc.),
 the Gaussian(R) 03 system (copyright 2003, Gaussian, Inc.),
 the Gaussian(R) 98 system (copyright 1998, Gaussian, Inc.),
 the Gaussian(R) 94 system (copyright 1995, Gaussian, Inc.),
 the Gaussian 92(TM) system (copyright 1992, Gaussian, Inc.),
 the Gaussian 90(TM) system (copyright 1990, Gaussian, Inc.),
 the Gaussian 88(TM) system (copyright 1988, Gaussian, Inc.),
 the Gaussian 86(TM) system (copyright 1986, Carnegie Mellon
 University), and the Gaussian 82(TM) system (copyright 1983,
 Carnegie Mellon University). Gaussian is a federally registered
 trademark of Gaussian, Inc.
  
 This software contains proprietary and confidential information,
 including trade secrets, belonging to Gaussian, Inc.
  
 This software is provided under written license and may be
 used, copied, transmitted, or stored only in accord with that
 written license.
  
 The following legend is applicable only to US Government
 contracts under FAR:
  
                    RESTRICTED RIGHTS LEGEND
  
 Use, reproduction and disclosure by the US Government is
 subject to restrictions as set forth in subparagraphs (a)
 and (c) of the Commercial Computer Software - Restricted
 Rights clause in FAR 52.227-19.
  
 Gaussian, Inc.
 340 Quinnipiac St., Bldg. 40, Wallingford CT 06492
  
  
 ---------------------------------------------------------------
 Warning -- This program may not be used in any manner that
 competes with the business of Gaussian, Inc. or will provide
 assistance to any competitor of Gaussian, Inc.  The licensee
 of this program is prohibited from giving any competitor of
 Gaussian, Inc. access to this program.  By using this program,
 the user acknowledges that Gaussian, Inc. is engaged in the
 business of creating and licensing software in the field of
 computational chemistry and represents and warrants to the
 licensee that it is not a competitor of Gaussian, Inc. and that
 it will not use this program in any manner prohibited above.
 ---------------------------------------------------------------
  

 Cite this work as:
 Gaussian 16, Revision C.01,
 M. J. Frisch, G. W. Trucks, H. B. Schlegel, G. E. Scuseria, 
 M. A. Robb, J. R. Cheeseman, G. Scalmani, V. Barone, 
 G. A. Petersson, H. Nakatsuji, X. Li, M. Caricato, A. V. Marenich, 
 J. Bloino, B. G. Janesko, R. Gomperts, B. Mennucci, H. P. Hratchian, 
 J. V. Ortiz, A. F. Izmaylov, J. L. Sonnenberg, D. Williams-Young, 
 F. Ding, F. Lipparini, F. Egidi, J. Goings, B. Peng, A. Petrone, 
 T. Henderson, D. Ranasinghe, V. G. Zakrzewski, J. Gao, N. Rega, 
 G. Zheng, W. Liang, M. Hada, M. Ehara, K. Toyota, R. Fukuda, 
 J. Hasegawa, M. Ishida, T. Nakajima, Y. Honda, O. Kitao, H. Nakai, 
 T. Vreven, K. Throssell, J. A. Montgomery, Jr., J. E. Peralta, 
 F. Ogliaro, M. J. Bearpark, J. J. Heyd, E. N. Brothers, K. N. Kudin, 
 V. N. Staroverov, T. A. Keith, R. Kobayashi, J. Normand, 
 K. Raghavachari, A. P. Rendell, J. C. Burant, S. S. Iyengar, 
 J. Tomasi, M. Cossi, J. M. Millam, M. Klene, C. Adamo, R. Cammi, 
 J. W. Ochterski, R. L. Martin, K. Morokuma, O. Farkas, 
 J. B. Foresman, and D. J. Fox, Gaussian, Inc., Wallingford CT, 2019.
 
 ******************************************
 Gaussian 16:  ES64L-G16RevC.01  3-Jul-2019
                11-Jun-2022 
 ******************************************
 %mem=8gb
 %nproc=4
 Will use up to    4 processors via shared memory.
 %chk=conf-474.chk
 ----------------------------------------------------------------------
 # B3LYP/6-31G* empiricaldispersion=gd3 guess=read geom=check nosymm in
 tegral(ultrafinegrid)
 ----------------------------------------------------------------------
 1/29=2,38=1,172=1/1;
 2/12=2,15=1,40=1/2;
 3/5=1,6=6,7=1,11=2,14=-4,25=1,30=1,74=-5,75=-5,116=-2,124=31/1,2,3;
 4/5=1/1;
 5/5=2,38=6/2;
 6/7=2,8=2,9=2,10=2,28=1/1;
 99/5=1,9=1/99;
 ------------------------------------------------------
 Candidate Structure: Conf:474 Charge calc in gas phase
 ------------------------------------------------------
 Structure from the checkpoint file:  "conf-474.chk"
 Charge =  1 Multiplicity = 1
 Redundant internal coordinates found in file.  (old form).
 N,0,-2.9619905788,9.0623543637,-6.7922765386
 C,0,-3.4700357097,8.6732630227,-8.1490154532
 C,0,-2.3907525806,9.23066809,-9.1068573774
 O,0,-1.2364922282,9.329882017,-8.6973979012
 C,0,-4.9100574493,9.194918788,-8.3423969024
 C,0,-5.7594622099,8.96827905,-7.1082957452
 C,0,-6.2459969815,7.6933478295,-6.7887103589
 C,0,-5.9885943062,10.029080034,-6.2203722869
 C,0,-6.952338206,7.4839645064,-5.6028898145
 C,0,-6.6928853156,9.8189178862,-5.0330422962
 C,0,-7.1742780911,8.5457102315,-4.7217405654
 H,0,-3.474383771,8.6186538214,-6.0269737462
 H,0,-3.0351734016,10.1009354237,-6.6828264799
 H,0,-3.4524100937,7.5789812749,-8.1904712449
 H,0,-5.3414219007,8.6794130738,-9.2088289485
 H,0,-4.868231946,10.264049681,-8.5670388952
 H,0,-6.0838097142,6.8639236115,-7.4743406429
 H,0,-5.6106831582,11.0186746355,-6.4632692136
 H,0,-7.3338032905,6.4941804693,-5.3698756539
 H,0,-6.868258066,10.6505552176,-4.3563673702
 H,0,-7.7254317873,8.3811556755,-3.8006851892
 H,0,-1.9573055115,8.8592309193,-6.7255745812
 N,0,-2.7802503014,9.6376325128,-10.333888994
 C,0,-1.8455188857,10.3480908788,-11.2221519256
 C,0,-1.2767464296,11.6072871481,-10.5327427107
 O,0,-0.1306373407,11.973744221,-10.7283483523
 C,0,-2.5594918063,10.6825427099,-12.5429516419
 C,0,-1.7187973944,11.4798899854,-13.5600331009
 C,0,-0.4021793089,10.7714628981,-13.9095677915
 C,0,-2.5604163384,11.7416022857,-14.8171856676
 H,0,-3.7393072964,9.5222172211,-10.6327209134
 H,0,-0.9796213704,9.7075016132,-11.4000928289
 H,0,-2.8756269714,9.73593685,-13.0044735133
 H,0,-3.4732539175,11.2501083354,-12.3117013817
 H,0,-1.4696904802,12.4487974067,-13.106341335
 H,0,0.1197439464,11.3107262911,-14.707246095
 H,0,0.2702148838,10.7277930714,-13.0479001663
 H,0,-0.5881676486,9.7500833303,-14.2674118452
 H,0,-2.0066812921,12.3595770019,-15.5317377709
 H,0,-2.8157512521,10.8004933833,-15.3207550758
 H,0,-3.4969373754,12.2604925937,-14.5787678398
 N,0,-2.1657689121,12.2958487874,-9.739950514
 C,0,-1.6705077124,13.1434844364,-8.6713039184
 C,0,-2.2550207778,12.6005312066,-7.3430591939
 O,0,-3.112183204,11.6899924377,-7.3693212193
 C,0,-1.9707271946,14.6417805748,-8.9279386726
 C,0,-0.9595782921,15.5744847875,-8.261767251
 N,0,-0.794980511,16.7792856436,-8.8485905117
 O,0,-0.3388117984,15.2611856874,-7.2407069592
 H,0,-3.0190513194,11.8086348526,-9.4951524272
 H,0,-0.5821288218,13.0215005976,-8.6374066317
 H,0,-1.9622062226,14.7912791565,-10.0119310614
 H,0,-2.9765468026,14.9090768262,-8.5784976696
 H,0,-0.1322835998,17.4263860991,-8.4414670247
 H,0,-1.2272507811,17.0240740742,-9.7270221449
 N,0,-1.7788895135,13.1545175379,-6.2277727127
 C,0,-2.10426675,12.7325927602,-4.8508136768
 C,0,-1.3088920961,11.4464202408,-4.6037801554
 O,0,-1.7301485439,10.3120560311,-4.748423288
 C,0,-3.6117145575,12.5773167647,-4.5808742161
 C,0,-4.0241095312,12.7921690339,-3.1176485069
 C,0,-3.4634686513,11.7662385674,-2.1282393593
 N,0,-1.9960014324,11.7949119464,-2.0694363379
 C,0,-1.3678593071,12.8429869947,-1.3741417467
 N,0,-2.0614160857,13.8097648211,-0.9007236145
 N,0,0.0135998578,12.6365192766,-1.2929741391
 O,0,-0.0007636638,11.7025970153,-4.3813865275
 H,0,0.4645670818,10.8438419567,-4.3798166912
 H,0,-1.0802497098,13.8991614902,-6.3646879412
 H,0,-1.6897558148,13.5101518009,-4.2064249944
 H,0,-3.9355205885,11.5911240156,-4.9208636498
 H,0,-4.1295691805,13.3133091531,-5.205538707
 H,0,-3.7389144356,13.7926260627,-2.7796539822
 H,0,-5.1196263488,12.7427004811,-3.0647814088
 H,0,-3.8945306695,11.947787305,-1.1364234922
 H,0,-3.7400766953,10.7552855959,-2.4489908156
 H,0,-1.5885869534,10.8966713237,-1.8314937952
 H,0,-1.4669299237,14.5374264313,-0.5019789975
 H,0,0.525919198,13.4147951847,-0.8957506273
 H,0,0.4303556121,12.3160127915,-2.1613195614
 Recover connectivity data from disk.
                           ----------------------------
                           !    Current Parameters    !
                           ! (Angstroms and Degrees)  !
 --------------------------                            --------------------------
 ! Name  Definition              Value                                          !
 --------------------------------------------------------------------------------
 ! R1    R(1,2)                  1.5001                                         !
 ! R2    R(1,12)                 1.0223                                         !
 ! R3    R(1,13)                 1.0469                                         !
 ! R4    R(1,22)                 1.0272                                         !
 ! R5    R(2,3)                  1.5469                                         !
 ! R6    R(2,5)                  1.5438                                         !
 ! R7    R(2,14)                 1.0952                                         !
 ! R8    R(3,4)                  1.2287                                         !
 ! R9    R(3,23)                 1.3502                                         !
 ! R10   R(5,6)                  1.5152                                         !
 ! R11   R(5,15)                 1.0966                                         !
 ! R12   R(5,16)                 1.0933                                         !
 ! R13   R(6,7)                  1.4015                                         !
 ! R14   R(6,8)                  1.4022                                         !
 ! R15   R(7,9)                  1.396                                          !
 ! R16   R(7,17)                 1.0883                                         !
 ! R17   R(8,10)                 1.3964                                         !
 ! R18   R(8,18)                 1.0868                                         !
 ! R19   R(9,11)                 1.3975                                         !
 ! R20   R(9,19)                 1.086                                          !
 ! R21   R(10,11)                1.3963                                         !
 ! R22   R(10,20)                1.0864                                         !
 ! R23   R(11,21)                1.0859                                         !
 ! R24   R(23,24)                1.4722                                         !
 ! R25   R(23,31)                1.0111                                         !
 ! R26   R(24,25)                1.5441                                         !
 ! R27   R(24,27)                1.5382                                         !
 ! R28   R(24,32)                1.0917                                         !
 ! R29   R(25,26)                1.2191                                         !
 ! R30   R(25,42)                1.3759                                         !
 ! R31   R(27,28)                1.5417                                         !
 ! R32   R(27,33)                1.0995                                         !
 ! R33   R(27,34)                1.1003                                         !
 ! R34   R(28,29)                1.5354                                         !
 ! R35   R(28,30)                1.5353                                         !
 ! R36   R(28,35)                1.0985                                         !
 ! R37   R(29,36)                1.0952                                         !
 ! R38   R(29,37)                1.0938                                         !
 ! R39   R(29,38)                1.0981                                         !
 ! R40   R(30,39)                1.095                                          !
 ! R41   R(30,40)                1.0975                                         !
 ! R42   R(30,41)                1.0969                                         !
 ! R43   R(42,43)                1.4511                                         !
 ! R44   R(42,50)                1.0126                                         !
 ! R45   R(43,44)                1.5494                                         !
 ! R46   R(43,46)                1.5495                                         !
 ! R47   R(43,51)                1.0957                                         !
 ! R48   R(44,45)                1.2508                                         !
 ! R49   R(44,56)                1.3332                                         !
 ! R50   R(46,47)                1.5284                                         !
 ! R51   R(46,52)                1.0943                                         !
 ! R52   R(46,53)                1.0978                                         !
 ! R53   R(47,48)                1.3502                                         !
 ! R54   R(47,49)                1.2353                                         !
 ! R55   R(48,54)                1.0118                                         !
 ! R56   R(48,55)                1.0092                                         !
 ! R57   R(56,57)                1.4765                                         !
 ! R58   R(56,69)                1.0302                                         !
 ! R59   R(57,58)                1.5323                                         !
 ! R60   R(57,60)                1.5393                                         !
 ! R61   R(57,70)                1.0916                                         !
 ! R62   R(58,59)                1.2187                                         !
 ! R63   R(58,67)                1.3514                                         !
 ! R64   R(60,61)                1.5353                                         !
 ! R65   R(60,71)                1.0923                                         !
 ! R66   R(60,72)                1.0955                                         !
 ! R67   R(61,62)                1.5316                                         !
 ! R68   R(61,73)                1.0938                                         !
 ! R69   R(61,74)                1.0979                                         !
 ! R70   R(62,63)                1.4689                                         !
 ! R71   R(62,75)                1.0966                                         !
 ! R72   R(62,76)                1.0961                                         !
 ! R73   R(63,64)                1.4059                                         !
 ! R74   R(63,77)                1.0146                                         !
 ! R75   R(64,65)                1.2805                                         !
 ! R76   R(64,66)                1.3992                                         !
 ! R77   R(65,78)                1.0207                                         !
 ! R78   R(66,79)                1.0129                                         !
 ! R79   R(66,80)                1.0151                                         !
 ! R80   R(67,68)                0.9767                                         !
 ! A1    A(2,1,12)             113.2501                                         !
 ! A2    A(2,1,13)             109.1597                                         !
 ! A3    A(2,1,22)             109.7978                                         !
 ! A4    A(12,1,13)            108.498                                          !
 ! A5    A(12,1,22)            110.8424                                         !
 ! A6    A(13,1,22)            104.9374                                         !
 ! A7    A(1,2,3)              103.3126                                         !
 ! A8    A(1,2,5)              109.9725                                         !
 ! A9    A(1,2,14)             106.735                                          !
 ! A10   A(3,2,5)              116.839                                          !
 ! A11   A(3,2,14)             108.9872                                         !
 ! A12   A(5,2,14)             110.3588                                         !
 ! A13   A(2,3,4)              118.5651                                         !
 ! A14   A(2,3,23)             118.038                                          !
 ! A15   A(4,3,23)             123.3328                                         !
 ! A16   A(2,5,6)              111.7369                                         !
 ! A17   A(2,5,15)             107.8819                                         !
 ! A18   A(2,5,16)             108.6934                                         !
 ! A19   A(6,5,15)             110.6522                                         !
 ! A20   A(6,5,16)             109.5771                                         !
 ! A21   A(15,5,16)            108.2048                                         !
 ! A22   A(5,6,7)              121.0904                                         !
 ! A23   A(5,6,8)              119.6167                                         !
 ! A24   A(7,6,8)              119.1476                                         !
 ! A25   A(6,7,9)              120.3821                                         !
 ! A26   A(6,7,17)             119.8615                                         !
 ! A27   A(9,7,17)             119.7516                                         !
 ! A28   A(6,8,10)             120.4627                                         !
 ! A29   A(6,8,18)             119.3742                                         !
 ! A30   A(10,8,18)            120.1629                                         !
 ! A31   A(7,9,11)             120.131                                          !
 ! A32   A(7,9,19)             119.7787                                         !
 ! A33   A(11,9,19)            120.0894                                         !
 ! A34   A(8,10,11)            120.045                                          !
 ! A35   A(8,10,20)            119.7232                                         !
 ! A36   A(11,10,20)           120.2311                                         !
 ! A37   A(9,11,10)            119.8309                                         !
 ! A38   A(9,11,21)            120.0184                                         !
 ! A39   A(10,11,21)           120.1495                                         !
 ! A40   A(3,23,24)            120.7049                                         !
 ! A41   A(3,23,31)            120.5176                                         !
 ! A42   A(24,23,31)           118.6182                                         !
 ! A43   A(23,24,25)           110.9781                                         !
 ! A44   A(23,24,27)           109.1651                                         !
 ! A45   A(23,24,32)           108.5882                                         !
 ! A46   A(25,24,27)           112.1495                                         !
 ! A47   A(25,24,32)           105.0178                                         !
 ! A48   A(27,24,32)           110.8412                                         !
 ! A49   A(24,25,26)           121.3185                                         !
 ! A50   A(24,25,42)           115.3003                                         !
 ! A51   A(26,25,42)           123.333                                          !
 ! A52   A(24,27,28)           115.2012                                         !
 ! A53   A(24,27,33)           107.859                                          !
 ! A54   A(24,27,34)           108.4918                                         !
 ! A55   A(28,27,33)           108.9725                                         !
 ! A56   A(28,27,34)           108.9493                                         !
 ! A57   A(33,27,34)           107.0697                                         !
 ! A58   A(27,28,29)           112.2805                                         !
 ! A59   A(27,28,30)           109.2333                                         !
 ! A60   A(27,28,35)           107.9001                                         !
 ! A61   A(29,28,30)           111.2414                                         !
 ! A62   A(29,28,35)           107.8501                                         !
 ! A63   A(30,28,35)           108.1883                                         !
 ! A64   A(28,29,36)           110.3199                                         !
 ! A65   A(28,29,37)           111.4816                                         !
 ! A66   A(28,29,38)           110.9833                                         !
 ! A67   A(36,29,37)           107.485                                          !
 ! A68   A(36,29,38)           107.5384                                         !
 ! A69   A(37,29,38)           108.8858                                         !
 ! A70   A(28,30,39)           110.6899                                         !
 ! A71   A(28,30,40)           110.9202                                         !
 ! A72   A(28,30,41)           111.7579                                         !
 ! A73   A(39,30,40)           107.588                                          !
 ! A74   A(39,30,41)           107.8554                                         !
 ! A75   A(40,30,41)           107.8633                                         !
 ! A76   A(25,42,43)           119.7448                                         !
 ! A77   A(25,42,50)           116.2948                                         !
 ! A78   A(43,42,50)           112.9924                                         !
 ! A79   A(42,43,44)           107.3292                                         !
 ! A80   A(42,43,46)           112.1311                                         !
 ! A81   A(42,43,51)           107.2632                                         !
 ! A82   A(44,43,46)           114.0629                                         !
 ! A83   A(44,43,51)           108.0103                                         !
 ! A84   A(46,43,51)           107.7721                                         !
 ! A85   A(43,44,45)           119.7108                                         !
 ! A86   A(43,44,56)           115.8993                                         !
 ! A87   A(45,44,56)           124.3878                                         !
 ! A88   A(43,46,47)           112.9362                                         !
 ! A89   A(43,46,52)           107.1374                                         !
 ! A90   A(43,46,53)           111.1144                                         !
 ! A91   A(47,46,52)           110.0738                                         !
 ! A92   A(47,46,53)           108.5904                                         !
 ! A93   A(52,46,53)           106.8088                                         !
 ! A94   A(46,47,48)           115.8324                                         !
 ! A95   A(46,47,49)           122.5421                                         !
 ! A96   A(48,47,49)           121.6198                                         !
 ! A97   A(47,48,54)           118.4031                                         !
 ! A98   A(47,48,55)           122.8572                                         !
 ! A99   A(54,48,55)           118.404                                          !
 ! A100  A(44,56,57)           125.642                                          !
 ! A101  A(44,56,69)           115.5537                                         !
 ! A102  A(57,56,69)           118.6821                                         !
 ! A103  A(56,57,58)           106.0116                                         !
 ! A104  A(56,57,60)           114.0917                                         !
 ! A105  A(56,57,70)           105.2653                                         !
 ! A106  A(58,57,60)           113.2908                                         !
 ! A107  A(58,57,70)           107.7952                                         !
 ! A108  A(60,57,70)           109.889                                          !
 ! A109  A(57,58,59)           125.6443                                         !
 ! A110  A(57,58,67)           111.7077                                         !
 ! A111  A(59,58,67)           122.0448                                         !
 ! A112  A(57,60,61)           114.5862                                         !
 ! A113  A(57,60,71)           109.0759                                         !
 ! A114  A(57,60,72)           107.168                                          !
 ! A115  A(61,60,71)           110.0826                                         !
 ! A116  A(61,60,72)           108.8111                                         !
 ! A117  A(71,60,72)           106.7965                                         !
 ! A118  A(60,61,62)           115.062                                          !
 ! A119  A(60,61,73)           110.6369                                         !
 ! A120  A(60,61,74)           107.9149                                         !
 ! A121  A(62,61,73)           108.5182                                         !
 ! A122  A(62,61,74)           107.696                                          !
 ! A123  A(73,61,74)           106.648                                          !
 ! A124  A(61,62,63)           112.2391                                         !
 ! A125  A(61,62,75)           109.238                                          !
 ! A126  A(61,62,76)           109.6576                                         !
 ! A127  A(63,62,75)           110.6875                                         !
 ! A128  A(63,62,76)           106.3692                                         !
 ! A129  A(75,62,76)           108.5526                                         !
 ! A130  A(62,63,64)           118.7316                                         !
 ! A131  A(62,63,77)           113.1572                                         !
 ! A132  A(64,63,77)           111.383                                          !
 ! A133  A(63,64,65)           120.2439                                         !
 ! A134  A(63,64,66)           111.0897                                         !
 ! A135  A(65,64,66)           128.6615                                         !
 ! A136  A(64,65,78)           111.5422                                         !
 ! A137  A(64,66,79)           114.127                                          !
 ! A138  A(64,66,80)           113.7238                                         !
 ! A139  A(79,66,80)           111.741                                          !
 ! A140  A(58,67,68)           107.1431                                         !
 ! D1    D(12,1,2,3)          -169.3546                                         !
 ! D2    D(12,1,2,5)            65.2204                                         !
 ! D3    D(12,1,2,14)          -54.5025                                         !
 ! D4    D(13,1,2,3)            69.6586                                         !
 ! D5    D(13,1,2,5)           -55.7664                                         !
 ! D6    D(13,1,2,14)         -175.4894                                         !
 ! D7    D(22,1,2,3)           -44.8667                                         !
 ! D8    D(22,1,2,5)          -170.2917                                         !
 ! D9    D(22,1,2,14)           69.9854                                         !
 ! D10   D(1,2,3,4)             28.5725                                         !
 ! D11   D(1,2,3,23)          -148.6148                                         !
 ! D12   D(5,2,3,4)            149.4434                                         !
 ! D13   D(5,2,3,23)           -27.7438                                         !
 ! D14   D(14,2,3,4)           -84.6523                                         !
 ! D15   D(14,2,3,23)           98.1605                                         !
 ! D16   D(1,2,5,6)            -43.3836                                         !
 ! D17   D(1,2,5,15)          -165.2272                                         !
 ! D18   D(1,2,5,16)            77.6615                                         !
 ! D19   D(3,2,5,6)           -160.6719                                         !
 ! D20   D(3,2,5,15)            77.4845                                         !
 ! D21   D(3,2,5,16)           -39.6269                                         !
 ! D22   D(14,2,5,6)            74.1097                                         !
 ! D23   D(14,2,5,15)          -47.7339                                         !
 ! D24   D(14,2,5,16)         -164.8453                                         !
 ! D25   D(2,3,23,24)          171.4241                                         !
 ! D26   D(2,3,23,31)           -3.9256                                         !
 ! D27   D(4,3,23,24)           -5.6189                                         !
 ! D28   D(4,3,23,31)          179.0313                                         !
 ! D29   D(2,5,6,7)            -75.1865                                         !
 ! D30   D(2,5,6,8)            100.3959                                         !
 ! D31   D(15,5,6,7)            45.0478                                         !
 ! D32   D(15,5,6,8)          -139.3698                                         !
 ! D33   D(16,5,6,7)           164.283                                          !
 ! D34   D(16,5,6,8)           -20.1346                                         !
 ! D35   D(5,6,7,9)            175.7556                                         !
 ! D36   D(5,6,7,17)            -5.0336                                         !
 ! D37   D(8,6,7,9)              0.1528                                         !
 ! D38   D(8,6,7,17)           179.3637                                         !
 ! D39   D(5,6,8,10)          -175.6963                                         !
 ! D40   D(5,6,8,18)             4.1705                                         !
 ! D41   D(7,6,8,10)            -0.0277                                         !
 ! D42   D(7,6,8,18)           179.8391                                         !
 ! D43   D(6,7,9,11)            -0.2855                                         !
 ! D44   D(6,7,9,19)           179.3709                                         !
 ! D45   D(17,7,9,11)         -179.4972                                         !
 ! D46   D(17,7,9,19)            0.1592                                         !
 ! D47   D(6,8,10,11)            0.0348                                         !
 ! D48   D(6,8,10,20)         -179.6656                                         !
 ! D49   D(18,8,10,11)        -179.831                                          !
 ! D50   D(18,8,10,20)           0.4686                                         !
 ! D51   D(7,9,11,10)            0.2907                                         !
 ! D52   D(7,9,11,21)          179.8935                                         !
 ! D53   D(19,9,11,10)        -179.3646                                         !
 ! D54   D(19,9,11,21)           0.2382                                         !
 ! D55   D(8,10,11,9)           -0.1657                                         !
 ! D56   D(8,10,11,21)        -179.768                                          !
 ! D57   D(20,10,11,9)         179.5332                                         !
 ! D58   D(20,10,11,21)         -0.0691                                         !
 ! D59   D(3,23,24,25)         -55.9922                                         !
 ! D60   D(3,23,24,27)         179.9007                                         !
 ! D61   D(3,23,24,32)          58.952                                          !
 ! D62   D(31,23,24,25)        119.4444                                         !
 ! D63   D(31,23,24,27)         -4.6627                                         !
 ! D64   D(31,23,24,32)       -125.6114                                         !
 ! D65   D(23,24,25,26)        144.9098                                         !
 ! D66   D(23,24,25,42)        -37.5353                                         !
 ! D67   D(27,24,25,26)        -92.6995                                         !
 ! D68   D(27,24,25,42)         84.8553                                         !
 ! D69   D(32,24,25,26)         27.7593                                         !
 ! D70   D(32,24,25,42)       -154.6859                                         !
 ! D71   D(23,24,27,28)        177.7517                                         !
 ! D72   D(23,24,27,33)        -60.3017                                         !
 ! D73   D(23,24,27,34)         55.3527                                         !
 ! D74   D(25,24,27,28)         54.3371                                         !
 ! D75   D(25,24,27,33)        176.2837                                         !
 ! D76   D(25,24,27,34)        -68.0619                                         !
 ! D77   D(32,24,27,28)        -62.6838                                         !
 ! D78   D(32,24,27,33)         59.2628                                         !
 ! D79   D(32,24,27,34)        174.9172                                         !
 ! D80   D(24,25,42,43)        156.3082                                         !
 ! D81   D(24,25,42,50)         14.6652                                         !
 ! D82   D(26,25,42,43)        -26.1921                                         !
 ! D83   D(26,25,42,50)       -167.8351                                         !
 ! D84   D(24,27,28,29)         56.3209                                         !
 ! D85   D(24,27,28,30)       -179.7873                                         !
 ! D86   D(24,27,28,35)        -62.3939                                         !
 ! D87   D(33,27,28,29)        -65.0242                                         !
 ! D88   D(33,27,28,30)         58.8676                                         !
 ! D89   D(33,27,28,35)        176.261                                          !
 ! D90   D(34,27,28,29)        178.4744                                         !
 ! D91   D(34,27,28,30)        -57.6338                                         !
 ! D92   D(34,27,28,35)         59.7596                                         !
 ! D93   D(27,28,29,36)        174.2016                                         !
 ! D94   D(27,28,29,37)        -66.455                                          !
 ! D95   D(27,28,29,38)         55.1113                                         !
 ! D96   D(30,28,29,36)         51.4358                                         !
 ! D97   D(30,28,29,37)        170.7791                                         !
 ! D98   D(30,28,29,38)        -67.6546                                         !
 ! D99   D(35,28,29,36)        -67.0541                                         !
 ! D100  D(35,28,29,37)         52.2892                                         !
 ! D101  D(35,28,29,38)        173.8555                                         !
 ! D102  D(27,28,30,39)        176.5514                                         !
 ! D103  D(27,28,30,40)        -64.097                                          !
 ! D104  D(27,28,30,41)         56.3111                                         !
 ! D105  D(29,28,30,39)        -58.9464                                         !
 ! D106  D(29,28,30,40)         60.4052                                         !
 ! D107  D(29,28,30,41)       -179.1867                                         !
 ! D108  D(35,28,30,39)         59.3399                                         !
 ! D109  D(35,28,30,40)        178.6915                                         !
 ! D110  D(35,28,30,41)        -60.9004                                         !
 ! D111  D(25,42,43,44)       -120.0123                                         !
 ! D112  D(25,42,43,46)        113.9727                                         !
 ! D113  D(25,42,43,51)         -4.1549                                         !
 ! D114  D(50,42,43,44)         22.8049                                         !
 ! D115  D(50,42,43,46)       -103.2101                                         !
 ! D116  D(50,42,43,51)        138.6624                                         !
 ! D117  D(42,43,44,45)         -7.4074                                         !
 ! D118  D(42,43,44,56)        172.0838                                         !
 ! D119  D(46,43,44,45)        117.4498                                         !
 ! D120  D(46,43,44,56)        -63.0591                                         !
 ! D121  D(51,43,44,45)       -122.7693                                         !
 ! D122  D(51,43,44,56)         56.7219                                         !
 ! D123  D(42,43,46,47)       -152.4552                                         !
 ! D124  D(42,43,46,52)        -31.0897                                         !
 ! D125  D(42,43,46,53)         85.2356                                         !
 ! D126  D(44,43,46,47)         85.2849                                         !
 ! D127  D(44,43,46,52)       -153.3496                                         !
 ! D128  D(44,43,46,53)        -37.0243                                         !
 ! D129  D(51,43,46,47)        -34.63                                           !
 ! D130  D(51,43,46,52)         86.7354                                         !
 ! D131  D(51,43,46,53)       -156.9393                                         !
 ! D132  D(43,44,56,57)       -174.9738                                         !
 ! D133  D(43,44,56,69)          0.9342                                         !
 ! D134  D(45,44,56,57)          4.4906                                         !
 ! D135  D(45,44,56,69)       -179.6013                                         !
 ! D136  D(43,46,47,48)        153.435                                          !
 ! D137  D(43,46,47,49)        -27.4206                                         !
 ! D138  D(52,46,47,48)         33.7461                                         !
 ! D139  D(52,46,47,49)       -147.1095                                         !
 ! D140  D(53,46,47,48)        -82.8528                                         !
 ! D141  D(53,46,47,49)         96.2915                                         !
 ! D142  D(46,47,48,54)       -179.7848                                         !
 ! D143  D(46,47,48,55)         -6.5512                                         !
 ! D144  D(49,47,48,54)          1.0622                                         !
 ! D145  D(49,47,48,55)        174.2959                                         !
 ! D146  D(44,56,57,58)         75.9775                                         !
 ! D147  D(44,56,57,60)        -49.3974                                         !
 ! D148  D(44,56,57,70)       -169.9497                                         !
 ! D149  D(69,56,57,58)        -99.8143                                         !
 ! D150  D(69,56,57,60)        134.8108                                         !
 ! D151  D(69,56,57,70)         14.2585                                         !
 ! D152  D(56,57,58,59)        -95.1963                                         !
 ! D153  D(56,57,58,67)         76.0004                                         !
 ! D154  D(60,57,58,59)         30.6691                                         !
 ! D155  D(60,57,58,67)       -158.1342                                         !
 ! D156  D(70,57,58,59)        152.4832                                         !
 ! D157  D(70,57,58,67)        -36.3201                                         !
 ! D158  D(56,57,60,61)       -152.7775                                         !
 ! D159  D(56,57,60,71)         83.3205                                         !
 ! D160  D(56,57,60,72)        -31.9477                                         !
 ! D161  D(58,57,60,61)         85.7932                                         !
 ! D162  D(58,57,60,71)        -38.1088                                         !
 ! D163  D(58,57,60,72)       -153.377                                          !
 ! D164  D(70,57,60,61)        -34.8422                                         !
 ! D165  D(70,57,60,71)       -158.7442                                         !
 ! D166  D(70,57,60,72)         85.9876                                         !
 ! D167  D(57,58,67,68)       -170.8611                                         !
 ! D168  D(59,58,67,68)          0.7016                                         !
 ! D169  D(57,60,61,62)        -64.5582                                         !
 ! D170  D(57,60,61,73)         58.8617                                         !
 ! D171  D(57,60,61,74)        175.1881                                         !
 ! D172  D(71,60,61,62)         58.8055                                         !
 ! D173  D(71,60,61,73)       -177.7746                                         !
 ! D174  D(71,60,61,74)        -61.4482                                         !
 ! D175  D(72,60,61,62)        175.5224                                         !
 ! D176  D(72,60,61,73)        -61.0577                                         !
 ! D177  D(72,60,61,74)         55.2687                                         !
 ! D178  D(60,61,62,63)         62.4528                                         !
 ! D179  D(60,61,62,75)       -174.3907                                         !
 ! D180  D(60,61,62,76)        -55.5413                                         !
 ! D181  D(73,61,62,63)        -62.0851                                         !
 ! D182  D(73,61,62,75)         61.0714                                         !
 ! D183  D(73,61,62,76)        179.9208                                         !
 ! D184  D(74,61,62,63)       -177.1732                                         !
 ! D185  D(74,61,62,75)        -54.0167                                         !
 ! D186  D(74,61,62,76)         64.8327                                         !
 ! D187  D(61,62,63,64)         75.8612                                         !
 ! D188  D(61,62,63,77)       -150.769                                          !
 ! D189  D(75,62,63,64)        -46.4766                                         !
 ! D190  D(75,62,63,77)         86.8931                                         !
 ! D191  D(76,62,63,64)       -164.2121                                         !
 ! D192  D(76,62,63,77)        -30.8424                                         !
 ! D193  D(62,63,64,65)         -5.793                                          !
 ! D194  D(62,63,64,66)        173.4706                                         !
 ! D195  D(77,63,64,65)       -139.9218                                         !
 ! D196  D(77,63,64,66)         39.3418                                         !
 ! D197  D(63,64,65,78)       -174.5622                                         !
 ! D198  D(66,64,65,78)          6.3177                                         !
 ! D199  D(63,64,66,79)        173.2859                                         !
 ! D200  D(63,64,66,80)         43.4819                                         !
 ! D201  D(65,64,66,79)         -7.5288                                         !
 ! D202  D(65,64,66,80)       -137.3328                                         !
 --------------------------------------------------------------------------------
 Symmetry turned off by external request.
 Stoichiometry    C25H41N8O6(1+)
 Framework group  C1[X(C25H41N8O6)]
 Deg. of freedom   234
 Full point group                 C1      NOp   1
                          Input orientation:                          
 ---------------------------------------------------------------------
 Center     Atomic      Atomic             Coordinates (Angstroms)
 Number     Number       Type             X           Y           Z
 ---------------------------------------------------------------------
      1          7           0       -2.961991    9.062354   -6.792277
      2          6           0       -3.470036    8.673263   -8.149015
      3          6           0       -2.390753    9.230668   -9.106857
      4          8           0       -1.236492    9.329882   -8.697398
      5          6           0       -4.910057    9.194919   -8.342397
      6          6           0       -5.759462    8.968279   -7.108296
      7          6           0       -6.245997    7.693348   -6.788710
      8          6           0       -5.988594   10.029080   -6.220372
      9          6           0       -6.952338    7.483965   -5.602890
     10          6           0       -6.692885    9.818918   -5.033042
     11          6           0       -7.174278    8.545710   -4.721741
     12          1           0       -3.474384    8.618654   -6.026974
     13          1           0       -3.035173   10.100935   -6.682826
     14          1           0       -3.452410    7.578981   -8.190471
     15          1           0       -5.341422    8.679413   -9.208829
     16          1           0       -4.868232   10.264050   -8.567039
     17          1           0       -6.083810    6.863924   -7.474341
     18          1           0       -5.610683   11.018675   -6.463269
     19          1           0       -7.333803    6.494180   -5.369876
     20          1           0       -6.868258   10.650555   -4.356367
     21          1           0       -7.725432    8.381156   -3.800685
     22          1           0       -1.957306    8.859231   -6.725575
     23          7           0       -2.780250    9.637633  -10.333889
     24          6           0       -1.845519   10.348091  -11.222152
     25          6           0       -1.276746   11.607287  -10.532743
     26          8           0       -0.130637   11.973744  -10.728348
     27          6           0       -2.559492   10.682543  -12.542952
     28          6           0       -1.718797   11.479890  -13.560033
     29          6           0       -0.402179   10.771463  -13.909568
     30          6           0       -2.560416   11.741602  -14.817186
     31          1           0       -3.739307    9.522217  -10.632721
     32          1           0       -0.979621    9.707502  -11.400093
     33          1           0       -2.875627    9.735937  -13.004474
     34          1           0       -3.473254   11.250108  -12.311701
     35          1           0       -1.469690   12.448797  -13.106341
     36          1           0        0.119744   11.310726  -14.707246
     37          1           0        0.270215   10.727793  -13.047900
     38          1           0       -0.588168    9.750083  -14.267412
     39          1           0       -2.006681   12.359577  -15.531738
     40          1           0       -2.815751   10.800493  -15.320755
     41          1           0       -3.496937   12.260493  -14.578768
     42          7           0       -2.165769   12.295849   -9.739951
     43          6           0       -1.670508   13.143484   -8.671304
     44          6           0       -2.255021   12.600531   -7.343059
     45          8           0       -3.112183   11.689992   -7.369321
     46          6           0       -1.970727   14.641781   -8.927939
     47          6           0       -0.959578   15.574485   -8.261767
     48          7           0       -0.794981   16.779286   -8.848591
     49          8           0       -0.338812   15.261186   -7.240707
     50          1           0       -3.019051   11.808635   -9.495152
     51          1           0       -0.582129   13.021501   -8.637407
     52          1           0       -1.962206   14.791279  -10.011931
     53          1           0       -2.976547   14.909077   -8.578498
     54          1           0       -0.132284   17.426386   -8.441467
     55          1           0       -1.227251   17.024074   -9.727022
     56          7           0       -1.778890   13.154518   -6.227773
     57          6           0       -2.104267   12.732593   -4.850814
     58          6           0       -1.308892   11.446420   -4.603780
     59          8           0       -1.730149   10.312056   -4.748423
     60          6           0       -3.611715   12.577317   -4.580874
     61          6           0       -4.024110   12.792169   -3.117649
     62          6           0       -3.463469   11.766239   -2.128239
     63          7           0       -1.996001   11.794912   -2.069436
     64          6           0       -1.367859   12.842987   -1.374142
     65          7           0       -2.061416   13.809765   -0.900724
     66          7           0        0.013600   12.636519   -1.292974
     67          8           0       -0.000764   11.702597   -4.381387
     68          1           0        0.464567   10.843842   -4.379817
     69          1           0       -1.080250   13.899161   -6.364688
     70          1           0       -1.689756   13.510152   -4.206425
     71          1           0       -3.935521   11.591124   -4.920864
     72          1           0       -4.129569   13.313309   -5.205539
     73          1           0       -3.738914   13.792626   -2.779654
     74          1           0       -5.119626   12.742700   -3.064781
     75          1           0       -3.894531   11.947787   -1.136423
     76          1           0       -3.740077   10.755286   -2.448991
     77          1           0       -1.588587   10.896671   -1.831494
     78          1           0       -1.466930   14.537426   -0.501979
     79          1           0        0.525919   13.414795   -0.895751
     80          1           0        0.430356   12.316013   -2.161320
 ---------------------------------------------------------------------
 Rotational constants (GHZ):           0.1111557           0.0656463           0.0477233
 Standard basis: 6-31G(d) (6D, 7F)
   667 basis functions,  1256 primitive gaussians,   667 cartesian basis functions
   147 alpha electrons      147 beta electrons
       nuclear repulsion energy      4902.7815141539 Hartrees.
 NAtoms=   80 NActive=   80 NUniq=   80 SFac= 1.00D+00 NAtFMM=   60 NAOKFM=T Big=T
 Integral buffers will be    131072 words long.
 Raffenetti 2 integral format.
 Two-electron integral symmetry is turned off.
 Nuclear repulsion after empirical dispersion term =     4902.6676823159 Hartrees.
 One-electron integrals computed using PRISM.
 NBasis=   667 RedAO= T EigKep=  4.66D-04  NBF=   667
 NBsUse=   667 1.00D-06 EigRej= -1.00D+00 NBFU=   667
 Initial guess from the checkpoint file:  "conf-474.chk"
 B after Tr=     0.000000    0.000000    0.000000
         Rot=    1.000000    0.000000    0.000000    0.000000 Ang=   0.00 deg.
 Requested convergence on RMS density matrix=1.00D-08 within 128 cycles.
 Requested convergence on MAX density matrix=1.00D-06.
 Requested convergence on             energy=1.00D-06.
 No special actions if energy rises.
 SCF Done:  E(RB3LYP) =  -1866.72219056     A.U. after    3 cycles
            NFock=  3  Conv=0.61D-09     -V/T= 2.0094

 **********************************************************************

            Population analysis using the SCF Density.

 **********************************************************************

 Alpha  occ. eigenvalues --  -19.30843 -19.25404 -19.24810 -19.24537 -19.22695
 Alpha  occ. eigenvalues --  -19.21116 -14.55394 -14.48959 -14.47259 -14.46312
 Alpha  occ. eigenvalues --  -14.45275 -14.42863 -14.42047 -14.36389 -10.43709
 Alpha  occ. eigenvalues --  -10.41983 -10.41200 -10.40231 -10.38490 -10.38230
 Alpha  occ. eigenvalues --  -10.35649 -10.34552 -10.34426 -10.33565 -10.32575
 Alpha  occ. eigenvalues --  -10.30913 -10.30887 -10.29653 -10.29424 -10.29353
 Alpha  occ. eigenvalues --  -10.29238 -10.29223 -10.28991 -10.28648 -10.28078
 Alpha  occ. eigenvalues --  -10.26978 -10.26289 -10.24546 -10.23932  -1.21813
 Alpha  occ. eigenvalues --   -1.17188  -1.15979  -1.14243  -1.13095  -1.12747
 Alpha  occ. eigenvalues --   -1.10618  -1.05249  -1.05190  -1.04171  -1.02187
 Alpha  occ. eigenvalues --   -1.01112  -0.96441  -0.96361  -0.91916  -0.91869
 Alpha  occ. eigenvalues --   -0.90321  -0.89696  -0.87783  -0.85718  -0.84794
 Alpha  occ. eigenvalues --   -0.83649  -0.83186  -0.78728  -0.78180  -0.77072
 Alpha  occ. eigenvalues --   -0.75462  -0.74637  -0.72495  -0.72159  -0.71242
 Alpha  occ. eigenvalues --   -0.70782  -0.70434  -0.69351  -0.69192  -0.68509
 Alpha  occ. eigenvalues --   -0.68020  -0.66860  -0.65759  -0.64506  -0.64146
 Alpha  occ. eigenvalues --   -0.63901  -0.63182  -0.61854  -0.61810  -0.61359
 Alpha  occ. eigenvalues --   -0.60921  -0.60156  -0.59642  -0.59076  -0.58933
 Alpha  occ. eigenvalues --   -0.58280  -0.58018  -0.56630  -0.56107  -0.55843
 Alpha  occ. eigenvalues --   -0.55343  -0.54822  -0.54694  -0.54351  -0.54096
 Alpha  occ. eigenvalues --   -0.53317  -0.53018  -0.52608  -0.52422  -0.52069
 Alpha  occ. eigenvalues --   -0.51875  -0.51735  -0.51296  -0.50857  -0.50551
 Alpha  occ. eigenvalues --   -0.50364  -0.49834  -0.49664  -0.49117  -0.48758
 Alpha  occ. eigenvalues --   -0.47977  -0.47328  -0.46778  -0.46604  -0.46326
 Alpha  occ. eigenvalues --   -0.46056  -0.45407  -0.45150  -0.44758  -0.44470
 Alpha  occ. eigenvalues --   -0.44090  -0.43889  -0.43410  -0.42947  -0.42050
 Alpha  occ. eigenvalues --   -0.40995  -0.40483  -0.40350  -0.40135  -0.39135
 Alpha  occ. eigenvalues --   -0.38629  -0.38462  -0.37659  -0.36895  -0.36793
 Alpha  occ. eigenvalues --   -0.35483  -0.35450  -0.35079  -0.34473  -0.34138
 Alpha  occ. eigenvalues --   -0.32924  -0.31000
 Alpha virt. eigenvalues --   -0.11912  -0.11393  -0.10772  -0.10575  -0.09085
 Alpha virt. eigenvalues --   -0.08290  -0.07404  -0.05038  -0.03946  -0.03471
 Alpha virt. eigenvalues --   -0.02669  -0.02195  -0.01844  -0.01240  -0.00496
 Alpha virt. eigenvalues --    0.00413   0.00487   0.00930   0.01395   0.01487
 Alpha virt. eigenvalues --    0.02042   0.02678   0.03098   0.03696   0.03880
 Alpha virt. eigenvalues --    0.04189   0.04221   0.04558   0.05070   0.05377
 Alpha virt. eigenvalues --    0.05517   0.05978   0.06372   0.06624   0.06844
 Alpha virt. eigenvalues --    0.06974   0.07682   0.08063   0.08438   0.08560
 Alpha virt. eigenvalues --    0.09006   0.09330   0.09645   0.09802   0.09989
 Alpha virt. eigenvalues --    0.10302   0.10659   0.11149   0.11476   0.11547
 Alpha virt. eigenvalues --    0.12063   0.12991   0.13065   0.13212   0.13696
 Alpha virt. eigenvalues --    0.13757   0.14343   0.14576   0.14827   0.15471
 Alpha virt. eigenvalues --    0.15565   0.15951   0.16424   0.17156   0.17263
 Alpha virt. eigenvalues --    0.17576   0.17695   0.18390   0.19910   0.20717
 Alpha virt. eigenvalues --    0.21146   0.21408   0.21894   0.22516   0.22675
 Alpha virt. eigenvalues --    0.23753   0.24553   0.25042   0.25561   0.26076
 Alpha virt. eigenvalues --    0.26698   0.27471   0.30014   0.30523   0.32174
 Alpha virt. eigenvalues --    0.32936   0.34353   0.36727   0.37934   0.38966
 Alpha virt. eigenvalues --    0.39605   0.40844   0.41248   0.41902   0.42152
 Alpha virt. eigenvalues --    0.42572   0.43122   0.43175   0.43716   0.43882
 Alpha virt. eigenvalues --    0.44071   0.44467   0.44741   0.45439   0.45570
 Alpha virt. eigenvalues --    0.45717   0.46509   0.46570   0.47205   0.47476
 Alpha virt. eigenvalues --    0.48365   0.48556   0.49062   0.49239   0.49746
 Alpha virt. eigenvalues --    0.50212   0.50720   0.51009   0.51330   0.51768
 Alpha virt. eigenvalues --    0.51836   0.52056   0.52088   0.53105   0.53622
 Alpha virt. eigenvalues --    0.54001   0.54433   0.54592   0.55030   0.55189
 Alpha virt. eigenvalues --    0.55576   0.56201   0.56380   0.56795   0.57114
 Alpha virt. eigenvalues --    0.57596   0.57855   0.58442   0.59530   0.59583
 Alpha virt. eigenvalues --    0.60046   0.60543   0.60987   0.61634   0.61931
 Alpha virt. eigenvalues --    0.62381   0.63698   0.64049   0.64303   0.65137
 Alpha virt. eigenvalues --    0.65294   0.65634   0.65800   0.66236   0.66716
 Alpha virt. eigenvalues --    0.67904   0.68598   0.68906   0.69434   0.70177
 Alpha virt. eigenvalues --    0.70405   0.70774   0.71193   0.71507   0.71863
 Alpha virt. eigenvalues --    0.72726   0.73266   0.73743   0.73837   0.74224
 Alpha virt. eigenvalues --    0.74376   0.74931   0.75285   0.75675   0.76155
 Alpha virt. eigenvalues --    0.76588   0.76831   0.77342   0.77613   0.77825
 Alpha virt. eigenvalues --    0.78134   0.78188   0.78585   0.79085   0.79485
 Alpha virt. eigenvalues --    0.79829   0.80373   0.80866   0.81247   0.81622
 Alpha virt. eigenvalues --    0.81791   0.82013   0.82344   0.82579   0.83129
 Alpha virt. eigenvalues --    0.83602   0.83779   0.84094   0.84566   0.84863
 Alpha virt. eigenvalues --    0.85443   0.85569   0.86043   0.86220   0.86677
 Alpha virt. eigenvalues --    0.86996   0.87437   0.88191   0.88314   0.88923
 Alpha virt. eigenvalues --    0.89175   0.89216   0.89839   0.89954   0.90904
 Alpha virt. eigenvalues --    0.90984   0.91647   0.91945   0.93069   0.93343
 Alpha virt. eigenvalues --    0.93619   0.95310   0.95547   0.95937   0.97071
 Alpha virt. eigenvalues --    0.97265   0.97738   0.98026   0.99522   1.00866
 Alpha virt. eigenvalues --    1.01418   1.02841   1.03219   1.03991   1.04723
 Alpha virt. eigenvalues --    1.05863   1.06126   1.07038   1.07186   1.08203
 Alpha virt. eigenvalues --    1.09129   1.09659   1.10315   1.11728   1.12619
 Alpha virt. eigenvalues --    1.13046   1.13979   1.14906   1.15481   1.16867
 Alpha virt. eigenvalues --    1.17132   1.17779   1.18723   1.19278   1.20333
 Alpha virt. eigenvalues --    1.21210   1.21608   1.22501   1.23531   1.24393
 Alpha virt. eigenvalues --    1.25688   1.26366   1.27217   1.27794   1.29078
 Alpha virt. eigenvalues --    1.30452   1.30561   1.31304   1.31612   1.32212
 Alpha virt. eigenvalues --    1.32732   1.33171   1.33813   1.34198   1.34601
 Alpha virt. eigenvalues --    1.35492   1.36692   1.37036   1.37493   1.37861
 Alpha virt. eigenvalues --    1.38322   1.38786   1.39398   1.40726   1.40905
 Alpha virt. eigenvalues --    1.41467   1.42390   1.43098   1.44349   1.47021
 Alpha virt. eigenvalues --    1.47647   1.49137   1.49687   1.50177   1.51331
 Alpha virt. eigenvalues --    1.52160   1.53672   1.55353   1.55884   1.56937
 Alpha virt. eigenvalues --    1.57598   1.58338   1.58976   1.60613   1.61824
 Alpha virt. eigenvalues --    1.62602   1.63294   1.64147   1.64451   1.64743
 Alpha virt. eigenvalues --    1.65166   1.65488   1.66773   1.67205   1.67765
 Alpha virt. eigenvalues --    1.67938   1.68737   1.69449   1.69912   1.70577
 Alpha virt. eigenvalues --    1.70822   1.71321   1.71608   1.71907   1.72435
 Alpha virt. eigenvalues --    1.73194   1.73441   1.73974   1.74740   1.75739
 Alpha virt. eigenvalues --    1.75922   1.76921   1.77443   1.78123   1.79304
 Alpha virt. eigenvalues --    1.79500   1.79849   1.80254   1.81402   1.81838
 Alpha virt. eigenvalues --    1.82635   1.82908   1.83222   1.83552   1.83804
 Alpha virt. eigenvalues --    1.84814   1.85178   1.86209   1.86809   1.87319
 Alpha virt. eigenvalues --    1.87599   1.88024   1.88822   1.89607   1.89838
 Alpha virt. eigenvalues --    1.90615   1.91305   1.91771   1.92530   1.93007
 Alpha virt. eigenvalues --    1.93712   1.94379   1.95017   1.95221   1.95521
 Alpha virt. eigenvalues --    1.95807   1.96945   1.97840   1.98518   1.98645
 Alpha virt. eigenvalues --    1.99347   1.99679   2.00629   2.02128   2.02948
 Alpha virt. eigenvalues --    2.03624   2.03996   2.04123   2.04428   2.05000
 Alpha virt. eigenvalues --    2.07777   2.08366   2.09749   2.10447   2.10926
 Alpha virt. eigenvalues --    2.12241   2.13231   2.13421   2.14458   2.15038
 Alpha virt. eigenvalues --    2.15599   2.16618   2.17223   2.17571   2.17996
 Alpha virt. eigenvalues --    2.18691   2.18976   2.20262   2.20384   2.20751
 Alpha virt. eigenvalues --    2.20794   2.22235   2.23749   2.25163   2.25357
 Alpha virt. eigenvalues --    2.27184   2.27781   2.28711   2.29423   2.30464
 Alpha virt. eigenvalues --    2.31484   2.32322   2.32913   2.33075   2.34251
 Alpha virt. eigenvalues --    2.34651   2.35354   2.35841   2.37318   2.38444
 Alpha virt. eigenvalues --    2.38940   2.39467   2.40253   2.41319   2.43096
 Alpha virt. eigenvalues --    2.43300   2.43574   2.44695   2.46435   2.46884
 Alpha virt. eigenvalues --    2.47233   2.48032   2.49383   2.49869   2.51104
 Alpha virt. eigenvalues --    2.51654   2.52257   2.52644   2.52901   2.53872
 Alpha virt. eigenvalues --    2.55417   2.55646   2.56076   2.57003   2.58397
 Alpha virt. eigenvalues --    2.60536   2.61010   2.62170   2.62822   2.63050
 Alpha virt. eigenvalues --    2.64157   2.64613   2.64974   2.65361   2.66227
 Alpha virt. eigenvalues --    2.66973   2.67438   2.70611   2.73256   2.73790
 Alpha virt. eigenvalues --    2.74471   2.75902   2.77723   2.79166   2.82248
 Alpha virt. eigenvalues --    2.85083   2.88310   2.90213   2.91373   2.92946
 Alpha virt. eigenvalues --    2.93502   2.93900   2.94588   2.95760   2.96735
 Alpha virt. eigenvalues --    2.97314   2.99544   3.03049   3.07611   3.09055
 Alpha virt. eigenvalues --    3.30512   3.71065   3.76368   3.79531   3.81641
 Alpha virt. eigenvalues --    3.87433   3.90091   3.91664   3.94178   3.99082
 Alpha virt. eigenvalues --    3.99683   4.00495   4.02237   4.04143   4.06595
 Alpha virt. eigenvalues --    4.07890   4.08875   4.10565   4.14451   4.18754
 Alpha virt. eigenvalues --    4.19107   4.20615   4.22054   4.23500   4.24256
 Alpha virt. eigenvalues --    4.27889   4.29709   4.31229   4.33018   4.36854
 Alpha virt. eigenvalues --    4.40721   4.42916   4.48331   4.49203   4.52940
 Alpha virt. eigenvalues --    4.55188   4.57710   4.60937   4.61443   4.63628
          Condensed to atoms (all electrons):
 Mulliken charges:
               1
     1  N   -0.764209
     2  C   -0.098714
     3  C    0.658623
     4  O   -0.521607
     5  C   -0.392317
     6  C    0.114936
     7  C   -0.189317
     8  C   -0.201913
     9  C   -0.126755
    10  C   -0.131421
    11  C   -0.125679
    12  H    0.405102
    13  H    0.468855
    14  H    0.215927
    15  H    0.179180
    16  H    0.191040
    17  H    0.141413
    18  H    0.162624
    19  H    0.162063
    20  H    0.157153
    21  H    0.162135
    22  H    0.412261
    23  N   -0.656152
    24  C   -0.017904
    25  C    0.613822
    26  O   -0.497426
    27  C   -0.307448
    28  C   -0.078814
    29  C   -0.462608
    30  C   -0.446450
    31  H    0.350466
    32  H    0.209020
    33  H    0.155367
    34  H    0.135716
    35  H    0.145257
    36  H    0.158725
    37  H    0.175850
    38  H    0.139685
    39  H    0.160843
    40  H    0.148786
    41  H    0.140432
    42  N   -0.606475
    43  C   -0.062956
    44  C    0.619727
    45  O   -0.610037
    46  C   -0.380834
    47  C    0.637426
    48  N   -0.736018
    49  O   -0.531905
    50  H    0.342552
    51  H    0.224053
    52  H    0.192544
    53  H    0.192201
    54  H    0.366893
    55  H    0.358782
    56  N   -0.627362
    57  C   -0.015154
    58  C    0.656552
    59  O   -0.528390
    60  C   -0.278570
    61  C   -0.280891
    62  C   -0.115731
    63  N   -0.633710
    64  C    0.575330
    65  N   -0.629054
    66  N   -0.763221
    67  O   -0.569141
    68  H    0.421213
    69  H    0.410281
    70  H    0.197236
    71  H    0.148843
    72  H    0.150703
    73  H    0.191786
    74  H    0.142724
    75  H    0.178700
    76  H    0.134678
    77  H    0.333357
    78  H    0.281537
    79  H    0.330215
    80  H    0.335573
 Sum of Mulliken charges =   1.00000
 Mulliken charges with hydrogens summed into heavy atoms:
               1
     1  N    0.522009
     2  C    0.117213
     3  C    0.658623
     4  O   -0.521607
     5  C   -0.022097
     6  C    0.114936
     7  C   -0.047904
     8  C   -0.039289
     9  C    0.035308
    10  C    0.025731
    11  C    0.036456
    23  N   -0.305686
    24  C    0.191115
    25  C    0.613822
    26  O   -0.497426
    27  C   -0.016366
    28  C    0.066443
    29  C    0.011651
    30  C    0.003611
    42  N   -0.263923
    43  C    0.161097
    44  C    0.619727
    45  O   -0.610037
    46  C    0.003911
    47  C    0.637426
    48  N   -0.010343
    49  O   -0.531905
    56  N   -0.217081
    57  C    0.182083
    58  C    0.656552
    59  O   -0.528390
    60  C    0.020976
    61  C    0.053619
    62  C    0.197647
    63  N   -0.300353
    64  C    0.575330
    65  N   -0.347517
    66  N   -0.097434
    67  O   -0.147928
 Electronic spatial extent (au):  <R**2>=         223119.4934
 Charge=              1.0000 electrons
 Dipole moment (field-independent basis, Debye):
    X=            -15.2276    Y=             53.4857    Z=            -36.0094  Tot=             66.2516
 Quadrupole moment (field-independent basis, Debye-Ang):
   XX=           -163.0075   YY=            438.4070   ZZ=             90.9501
   XY=           -143.0062   XZ=            130.4577   YZ=           -413.6868
 Traceless Quadrupole moment (field-independent basis, Debye-Ang):
   XX=           -285.1241   YY=            316.2905   ZZ=            -31.1664
   XY=           -143.0062   XZ=            130.4577   YZ=           -413.6868
 Octapole moment (field-independent basis, Debye-Ang**2):
  XXX=           1523.0478  YYY=           1368.0708  ZZZ=           1766.9377  XYY=           -840.1946
  XXY=          -2043.4630  XXZ=           1212.2136  XZZ=           -559.0245  YZZ=           1146.1030
  YYZ=          -3685.6324  XYZ=           1324.4778
 Hexadecapole moment (field-independent basis, Debye-Ang**3):
 XXXX=         -13741.5771 YYYY=         -48231.8794 ZZZZ=         -55315.4762 XXXY=          16659.0779
 XXXZ=         -10770.9435 YYYX=           3211.9540 YYYZ=         -19936.2652 ZZZX=          -1130.1653
 ZZZY=          18337.1688 XXYY=         -28264.6614 XXZZ=         -14057.4553 YYZZ=           3483.6872
 XXYZ=          14725.8034 YYXZ=          10432.9566 ZZXY=          -5772.5040
 N-N= 4.902667682316D+03 E-N=-1.412325939064D+04  KE= 1.849287125970D+03
 Unable to Open any file for archive entry.
 1\1\GINC-LAC-315\SP\RB3LYP\6-31G(d)\C25H41N8O6(1+)\KENGMITH\11-Jun-202
 2\0\\# B3LYP/6-31G* empiricaldispersion=gd3 guess=read geom=check nosy
 mm integral(ultrafinegrid)\\Candidate Structure: Conf:474 Charge calc 
 in gas phase\\1,1\N,0,-2.9619905788,9.0623543637,-6.7922765386\C,0,-3.
 4700357097,8.6732630227,-8.1490154532\C,0,-2.3907525806,9.23066809,-9.
 1068573774\O,0,-1.2364922282,9.329882017,-8.6973979012\C,0,-4.91005744
 93,9.194918788,-8.3423969024\C,0,-5.7594622099,8.96827905,-7.108295745
 2\C,0,-6.2459969815,7.6933478295,-6.7887103589\C,0,-5.9885943062,10.02
 9080034,-6.2203722869\C,0,-6.952338206,7.4839645064,-5.6028898145\C,0,
 -6.6928853156,9.8189178862,-5.0330422962\C,0,-7.1742780911,8.545710231
 5,-4.7217405654\H,0,-3.474383771,8.6186538214,-6.0269737462\H,0,-3.035
 1734016,10.1009354237,-6.6828264799\H,0,-3.4524100937,7.5789812749,-8.
 1904712449\H,0,-5.3414219007,8.6794130738,-9.2088289485\H,0,-4.8682319
 46,10.264049681,-8.5670388952\H,0,-6.0838097142,6.8639236115,-7.474340
 6429\H,0,-5.6106831582,11.0186746355,-6.4632692136\H,0,-7.3338032905,6
 .4941804693,-5.3698756539\H,0,-6.868258066,10.6505552176,-4.3563673702
 \H,0,-7.7254317873,8.3811556755,-3.8006851892\H,0,-1.9573055115,8.8592
 309193,-6.7255745812\N,0,-2.7802503014,9.6376325128,-10.333888994\C,0,
 -1.8455188857,10.3480908788,-11.2221519256\C,0,-1.2767464296,11.607287
 1481,-10.5327427107\O,0,-0.1306373407,11.973744221,-10.7283483523\C,0,
 -2.5594918063,10.6825427099,-12.5429516419\C,0,-1.7187973944,11.479889
 9854,-13.5600331009\C,0,-0.4021793089,10.7714628981,-13.9095677915\C,0
 ,-2.5604163384,11.7416022857,-14.8171856676\H,0,-3.7393072964,9.522217
 2211,-10.6327209134\H,0,-0.9796213704,9.7075016132,-11.4000928289\H,0,
 -2.8756269714,9.73593685,-13.0044735133\H,0,-3.4732539175,11.250108335
 4,-12.3117013817\H,0,-1.4696904802,12.4487974067,-13.106341335\H,0,0.1
 197439464,11.3107262911,-14.707246095\H,0,0.2702148838,10.7277930714,-
 13.0479001663\H,0,-0.5881676486,9.7500833303,-14.2674118452\H,0,-2.006
 6812921,12.3595770019,-15.5317377709\H,0,-2.8157512521,10.8004933833,-
 15.3207550758\H,0,-3.4969373754,12.2604925937,-14.5787678398\N,0,-2.16
 57689121,12.2958487874,-9.739950514\C,0,-1.6705077124,13.1434844364,-8
 .6713039184\C,0,-2.2550207778,12.6005312066,-7.3430591939\O,0,-3.11218
 3204,11.6899924377,-7.3693212193\C,0,-1.9707271946,14.6417805748,-8.92
 79386726\C,0,-0.9595782921,15.5744847875,-8.261767251\N,0,-0.794980511
 ,16.7792856436,-8.8485905117\O,0,-0.3388117984,15.2611856874,-7.240706
 9592\H,0,-3.0190513194,11.8086348526,-9.4951524272\H,0,-0.5821288218,1
 3.0215005976,-8.6374066317\H,0,-1.9622062226,14.7912791565,-10.0119310
 614\H,0,-2.9765468026,14.9090768262,-8.5784976696\H,0,-0.1322835998,17
 .4263860991,-8.4414670247\H,0,-1.2272507811,17.0240740742,-9.727022144
 9\N,0,-1.7788895135,13.1545175379,-6.2277727127\C,0,-2.10426675,12.732
 5927602,-4.8508136768\C,0,-1.3088920961,11.4464202408,-4.6037801554\O,
 0,-1.7301485439,10.3120560311,-4.748423288\C,0,-3.6117145575,12.577316
 7647,-4.5808742161\C,0,-4.0241095312,12.7921690339,-3.1176485069\C,0,-
 3.4634686513,11.7662385674,-2.1282393593\N,0,-1.9960014324,11.79491194
 64,-2.0694363379\C,0,-1.3678593071,12.8429869947,-1.3741417467\N,0,-2.
 0614160857,13.8097648211,-0.9007236145\N,0,0.0135998578,12.6365192766,
 -1.2929741391\O,0,-0.0007636638,11.7025970153,-4.3813865275\H,0,0.4645
 670818,10.8438419567,-4.3798166912\H,0,-1.0802497098,13.8991614902,-6.
 3646879412\H,0,-1.6897558148,13.5101518009,-4.2064249944\H,0,-3.935520
 5885,11.5911240156,-4.9208636498\H,0,-4.1295691805,13.3133091531,-5.20
 5538707\H,0,-3.7389144356,13.7926260627,-2.7796539822\H,0,-5.119626348
 8,12.7427004811,-3.0647814088\H,0,-3.8945306695,11.947787305,-1.136423
 4922\H,0,-3.7400766953,10.7552855959,-2.4489908156\H,0,-1.5885869534,1
 0.8966713237,-1.8314937952\H,0,-1.4669299237,14.5374264313,-0.50197899
 75\H,0,0.525919198,13.4147951847,-0.8957506273\H,0,0.4303556121,12.316
 0127915,-2.1613195614\\Version=ES64L-G16RevC.01\HF=-1866.7221906\RMSD=
 6.071e-10\Dipole=-1.0851377,-0.6383297,-0.5007165\Quadrupole=-211.9827
 456,235.1542351,-23.1714895,-106.3215997,96.992095,-307.5660297\PG=C01
  [X(C25H41N8O6)]\\@
 The archive entry for this job was punched.


 10 WHATSOEVER THY HAND FINDETH TO DO, DO IT WITH THY  
 MIGHT. FOR THERE IS NO WORK, NOR DEVICE, NOR KNOWLEDGE, NOR  
 WISDOM, IN THE GRAVE, WHITHER THOU GOEST.                    
 11 I RETURNED AND SAW UNDER THE SUN, THAT THE RACE IS NOT TO 
 THE SWIFT, NOR THE BATTLE TO THE STRONG, NEITHER YET BREAD TO
 THE WISE, NOR YET RICHES TO MEN OF UNDERSTANDING, NOR YET    
 FAVOR TO MEN OF SKILL. BUT TIME AND CHANCE HAPPEN TO THEM ALL.
 12 FOR MAN ALSO KNOWETH NOT HIS TIME. AS THE FISHES   
 THAT ARE TAKEN IN AN EVIL NET, AND AS THE BIRDS THAT ARE     
 CAUGHT IN THE SNARE. SO ARE THE SONS OF MEN SNARED IN AN EVIL
 TIME, WHEN IT FALLETH SUDDENLY UPON THEM.
                                         ECCLESIASTES 9
 Job cpu time:       0 days  0 hours  5 minutes  4.8 seconds.
 Elapsed time:       0 days  0 hours  1 minutes 17.3 seconds.
 File lengths (MBytes):  RWF=    344 Int=      0 D2E=      0 Chk=     48 Scr=     16
 Normal termination of Gaussian 16 at Sat Jun 11 21:07:40 2022.
