 Entering Gaussian System, Link 0=/opt/software/Gaussian/g16-AVX2-C.01/g16/g16
 Input=charge-conf-242.com
 Output=charge-conf-242.log
 Initial command:
 /opt/software/Gaussian/g16-AVX2-C.01/g16/l1.exe "/mnt/gs18/scratch/users/kengmith/Gau-8990.inp" -scrdir="/mnt/gs18/scratch/users/kengmith/"
 Entering Link 1 = /opt/software/Gaussian/g16-AVX2-C.01/g16/l1.exe PID=      9000.
  
 Copyright (c) 1988-2019, Gaussian, Inc.  All Rights Reserved.
  
 This is part of the Gaussian(R) 16 program.  It is based on
 the Gaussian(R) 09 system (copyright 2009, Gaussian, Inc.),
 the Gaussian(R) 03 system (copyright 2003, Gaussian, Inc.),
 the Gaussian(R) 98 system (copyright 1998, Gaussian, Inc.),
 the Gaussian(R) 94 system (copyright 1995, Gaussian, Inc.),
 the Gaussian 92(TM) system (copyright 1992, Gaussian, Inc.),
 the Gaussian 90(TM) system (copyright 1990, Gaussian, Inc.),
 the Gaussian 88(TM) system (copyright 1988, Gaussian, Inc.),
 the Gaussian 86(TM) system (copyright 1986, Carnegie Mellon
 University), and the Gaussian 82(TM) system (copyright 1983,
 Carnegie Mellon University). Gaussian is a federally registered
 trademark of Gaussian, Inc.
  
 This software contains proprietary and confidential information,
 including trade secrets, belonging to Gaussian, Inc.
  
 This software is provided under written license and may be
 used, copied, transmitted, or stored only in accord with that
 written license.
  
 The following legend is applicable only to US Government
 contracts under FAR:
  
                    RESTRICTED RIGHTS LEGEND
  
 Use, reproduction and disclosure by the US Government is
 subject to restrictions as set forth in subparagraphs (a)
 and (c) of the Commercial Computer Software - Restricted
 Rights clause in FAR 52.227-19.
  
 Gaussian, Inc.
 340 Quinnipiac St., Bldg. 40, Wallingford CT 06492
  
  
 ---------------------------------------------------------------
 Warning -- This program may not be used in any manner that
 competes with the business of Gaussian, Inc. or will provide
 assistance to any competitor of Gaussian, Inc.  The licensee
 of this program is prohibited from giving any competitor of
 Gaussian, Inc. access to this program.  By using this program,
 the user acknowledges that Gaussian, Inc. is engaged in the
 business of creating and licensing software in the field of
 computational chemistry and represents and warrants to the
 licensee that it is not a competitor of Gaussian, Inc. and that
 it will not use this program in any manner prohibited above.
 ---------------------------------------------------------------
  

 Cite this work as:
 Gaussian 16, Revision C.01,
 M. J. Frisch, G. W. Trucks, H. B. Schlegel, G. E. Scuseria, 
 M. A. Robb, J. R. Cheeseman, G. Scalmani, V. Barone, 
 G. A. Petersson, H. Nakatsuji, X. Li, M. Caricato, A. V. Marenich, 
 J. Bloino, B. G. Janesko, R. Gomperts, B. Mennucci, H. P. Hratchian, 
 J. V. Ortiz, A. F. Izmaylov, J. L. Sonnenberg, D. Williams-Young, 
 F. Ding, F. Lipparini, F. Egidi, J. Goings, B. Peng, A. Petrone, 
 T. Henderson, D. Ranasinghe, V. G. Zakrzewski, J. Gao, N. Rega, 
 G. Zheng, W. Liang, M. Hada, M. Ehara, K. Toyota, R. Fukuda, 
 J. Hasegawa, M. Ishida, T. Nakajima, Y. Honda, O. Kitao, H. Nakai, 
 T. Vreven, K. Throssell, J. A. Montgomery, Jr., J. E. Peralta, 
 F. Ogliaro, M. J. Bearpark, J. J. Heyd, E. N. Brothers, K. N. Kudin, 
 V. N. Staroverov, T. A. Keith, R. Kobayashi, J. Normand, 
 K. Raghavachari, A. P. Rendell, J. C. Burant, S. S. Iyengar, 
 J. Tomasi, M. Cossi, J. M. Millam, M. Klene, C. Adamo, R. Cammi, 
 J. W. Ochterski, R. L. Martin, K. Morokuma, O. Farkas, 
 J. B. Foresman, and D. J. Fox, Gaussian, Inc., Wallingford CT, 2019.
 
 ******************************************
 Gaussian 16:  ES64L-G16RevC.01  3-Jul-2019
                11-Jun-2022 
 ******************************************
 %mem=8gb
 %nproc=4
 Will use up to    4 processors via shared memory.
 %chk=conf-242.chk
 ----------------------------------------------------------------------
 # B3LYP/6-31G* empiricaldispersion=gd3 guess=read geom=check nosymm in
 tegral(ultrafinegrid)
 ----------------------------------------------------------------------
 1/29=2,38=1,172=1/1;
 2/12=2,15=1,40=1/2;
 3/5=1,6=6,7=1,11=2,14=-4,25=1,30=1,74=-5,75=-5,116=-2,124=31/1,2,3;
 4/5=1/1;
 5/5=2,38=6/2;
 6/7=2,8=2,9=2,10=2,28=1/1;
 99/5=1,9=1/99;
 ------------------------------------------------------
 Candidate Structure: Conf:242 Charge calc in gas phase
 ------------------------------------------------------
 Structure from the checkpoint file:  "conf-242.chk"
 Charge =  1 Multiplicity = 1
 Redundant internal coordinates found in file.  (old form).
 N,0,-0.7317399066,11.2555341201,-5.8452967776
 C,0,-1.2974392433,11.9852075735,-4.6627910284
 C,0,-2.6072108968,11.2187521487,-4.363387926
 O,0,-2.6694143117,10.0263206128,-4.6536480237
 C,0,-1.4278232861,13.4895311259,-4.9830832856
 C,0,-0.2006175726,14.0202534584,-5.6959603712
 C,0,0.9919325004,14.2627778798,-5.0008812482
 C,0,-0.2259153204,14.1867092246,-7.0881103224
 C,0,2.1386648932,14.6680972618,-5.6861967898
 C,0,0.9219642097,14.5894980024,-7.7736952032
 C,0,2.1063152367,14.829215185,-7.0739597123
 H,0,-1.3306404318,11.4413179543,-6.6837945162
 H,0,-0.7977594039,10.2419414737,-5.692058297
 H,0,-0.5980897133,11.8318842255,-3.8339728226
 H,0,-1.5867483727,14.0220883897,-4.0377417215
 H,0,-2.3096835292,13.6392747321,-5.6116797321
 H,0,1.0217001697,14.1470630149,-3.9191946322
 H,0,-1.1480828487,13.9969570994,-7.6310627343
 H,0,3.0548092907,14.8632927063,-5.1365888598
 H,0,0.8875672334,14.7201182791,-8.8516695974
 H,0,2.9988672753,15.1463115282,-7.6049942375
 H,0,0.2284360715,11.5283273917,-6.0660869991
 N,0,-3.6442171761,11.9112258557,-3.845395001
 C,0,-4.9679107416,11.2845971811,-3.7145624609
 C,0,-5.5004379243,10.8005438352,-5.0818519225
 O,0,-6.2209912801,9.8216532526,-5.1623245846
 C,0,-5.9628034973,12.2490132632,-3.0535749191
 C,0,-5.5974328104,12.7136206342,-1.628765679
 C,0,-6.6722630355,13.6838231546,-1.116839401
 C,0,-5.4146346009,11.5354690809,-0.6623629504
 H,0,-3.5415034874,12.888426725,-3.6086783356
 H,0,-4.8652325702,10.3722251859,-3.1235711444
 H,0,-6.0958228424,13.1238003345,-3.7068082571
 H,0,-6.9295020848,11.7319503709,-3.0276165019
 H,0,-4.6454362598,13.2681996127,-1.670849997
 H,0,-7.6418863789,13.1776795454,-1.0337100991
 H,0,-6.411273296,14.0690895821,-0.1255216655
 H,0,-6.7974320243,14.5401704253,-1.7900551976
 H,0,-5.2141680745,11.8967016608,0.3518402659
 H,0,-6.3222883288,10.9204586423,-0.6243993253
 H,0,-4.580191914,10.8863113168,-0.9503115004
 N,0,-5.1436558395,11.5710584447,-6.1640806408
 C,0,-5.1001932458,10.9783535497,-7.4877112851
 C,0,-3.6617295413,11.1752541618,-8.0288027577
 O,0,-2.8494546624,11.878609038,-7.3880178634
 C,0,-6.2080625911,11.5363213186,-8.4162035888
 C,0,-6.6271009084,10.5479635803,-9.504024237
 N,0,-7.8877680486,10.6832505566,-9.9680512087
 O,0,-5.8621564004,9.6861779791,-9.9497228351
 H,0,-4.4073876489,12.2491426448,-6.0126798055
 H,0,-5.2740318104,9.9026124034,-7.3712789122
 H,0,-7.0651298235,11.7824213817,-7.7820542042
 H,0,-5.8884934113,12.4707273427,-8.8957218604
 H,0,-8.2076170148,10.0449435684,-10.6849426261
 H,0,-8.5560345581,11.3192614907,-9.5589406514
 N,0,-3.3768936906,10.5508610653,-9.1713595097
 C,0,-2.0491352865,10.5033438856,-9.8151315639
 C,0,-1.218504174,9.5075505086,-8.9987722043
 O,0,-0.453449907,9.7934941415,-8.0943189726
 C,0,-1.374003024,11.878488805,-9.9665999375
 C,0,-0.3923012515,11.9812111487,-11.1427031182
 C,0,0.8433056024,11.0822875546,-11.037277434
 N,0,0.4931327207,9.6557831891,-11.0162663106
 C,0,0.116278957,9.0347436649,-12.2198725566
 N,0,-0.0269598358,9.7287867581,-13.2864766342
 N,0,-0.0376299393,7.6546960627,-12.0478721623
 O,0,-1.5667175008,8.2292951145,-9.2658374235
 H,0,-1.1090647155,7.6641537479,-8.6138024065
 H,0,-4.1507464415,10.0144813461,-9.5898757554
 H,0,-2.2227195467,10.0646161045,-10.7994941978
 H,0,-0.8684587405,12.1329520017,-9.0323160761
 H,0,-2.1713967132,12.616494745,-10.1065915287
 H,0,-0.8990874501,11.765049643,-12.0876446838
 H,0,-0.0444998026,13.0208247673,-11.2028380148
 H,0,1.5220129493,11.3022175599,-11.8700293059
 H,0,1.3682724023,11.2854602158,-10.0967652079
 H,0,1.1578904287,9.0892740751,-10.4999477489
 H,0,-0.3872873907,9.1632687843,-14.0560574758
 H,0,-0.4122648326,7.175943412,-12.8580815357
 H,0,-0.5339356287,7.4018697612,-11.1992174338
 Recover connectivity data from disk.
                           ----------------------------
                           !    Current Parameters    !
                           ! (Angstroms and Degrees)  !
 --------------------------                            --------------------------
 ! Name  Definition              Value                                          !
 --------------------------------------------------------------------------------
 ! R1    R(1,2)                  1.5003                                         !
 ! R2    R(1,12)                 1.047                                          !
 ! R3    R(1,13)                 1.0272                                         !
 ! R4    R(1,22)                 1.0223                                         !
 ! R5    R(2,3)                  1.5468                                         !
 ! R6    R(2,5)                  1.5436                                         !
 ! R7    R(2,14)                 1.0952                                         !
 ! R8    R(3,4)                  1.2288                                         !
 ! R9    R(3,23)                 1.3503                                         !
 ! R10   R(5,6)                  1.5152                                         !
 ! R11   R(5,15)                 1.0966                                         !
 ! R12   R(5,16)                 1.0933                                         !
 ! R13   R(6,7)                  1.4015                                         !
 ! R14   R(6,8)                  1.4023                                         !
 ! R15   R(7,9)                  1.396                                          !
 ! R16   R(7,17)                 1.0883                                         !
 ! R17   R(8,10)                 1.3964                                         !
 ! R18   R(8,18)                 1.0868                                         !
 ! R19   R(9,11)                 1.3975                                         !
 ! R20   R(9,19)                 1.086                                          !
 ! R21   R(10,11)                1.3963                                         !
 ! R22   R(10,20)                1.0864                                         !
 ! R23   R(11,21)                1.0859                                         !
 ! R24   R(23,24)                1.4704                                         !
 ! R25   R(23,31)                1.0107                                         !
 ! R26   R(24,25)                1.5451                                         !
 ! R27   R(24,27)                1.5352                                         !
 ! R28   R(24,32)                1.0919                                         !
 ! R29   R(25,26)                1.2182                                         !
 ! R30   R(25,42)                1.3756                                         !
 ! R31   R(27,28)                1.5425                                         !
 ! R32   R(27,33)                1.0998                                         !
 ! R33   R(27,34)                1.0966                                         !
 ! R34   R(28,29)                1.5358                                         !
 ! R35   R(28,30)                1.5347                                         !
 ! R36   R(28,35)                1.1026                                         !
 ! R37   R(29,36)                1.0969                                         !
 ! R38   R(29,37)                1.0951                                         !
 ! R39   R(29,38)                1.0965                                         !
 ! R40   R(30,39)                1.0951                                         !
 ! R41   R(30,40)                1.097                                          !
 ! R42   R(30,41)                1.0957                                         !
 ! R43   R(42,43)                1.4509                                         !
 ! R44   R(42,50)                1.0123                                         !
 ! R45   R(43,44)                1.5494                                         !
 ! R46   R(43,46)                1.5495                                         !
 ! R47   R(43,51)                1.0959                                         !
 ! R48   R(44,45)                1.251                                          !
 ! R49   R(44,56)                1.3328                                         !
 ! R50   R(46,47)                1.5283                                         !
 ! R51   R(46,52)                1.0942                                         !
 ! R52   R(46,53)                1.0978                                         !
 ! R53   R(47,48)                1.3502                                         !
 ! R54   R(47,49)                1.2355                                         !
 ! R55   R(48,54)                1.0118                                         !
 ! R56   R(48,55)                1.0092                                         !
 ! R57   R(56,57)                1.4764                                         !
 ! R58   R(56,69)                1.0304                                         !
 ! R59   R(57,58)                1.5323                                         !
 ! R60   R(57,60)                1.5394                                         !
 ! R61   R(57,70)                1.0916                                         !
 ! R62   R(58,59)                1.2186                                         !
 ! R63   R(58,67)                1.3515                                         !
 ! R64   R(60,61)                1.5354                                         !
 ! R65   R(60,71)                1.0923                                         !
 ! R66   R(60,72)                1.0955                                         !
 ! R67   R(61,62)                1.5316                                         !
 ! R68   R(61,73)                1.0938                                         !
 ! R69   R(61,74)                1.0979                                         !
 ! R70   R(62,63)                1.469                                          !
 ! R71   R(62,75)                1.0966                                         !
 ! R72   R(62,76)                1.0961                                         !
 ! R73   R(63,64)                1.4058                                         !
 ! R74   R(63,77)                1.0146                                         !
 ! R75   R(64,65)                1.2806                                         !
 ! R76   R(64,66)                1.3992                                         !
 ! R77   R(65,78)                1.0207                                         !
 ! R78   R(66,79)                1.0129                                         !
 ! R79   R(66,80)                1.0151                                         !
 ! R80   R(67,68)                0.9767                                         !
 ! A1    A(2,1,12)             109.2225                                         !
 ! A2    A(2,1,13)             109.7607                                         !
 ! A3    A(2,1,22)             113.2412                                         !
 ! A4    A(12,1,13)            104.9387                                         !
 ! A5    A(12,1,22)            108.4774                                         !
 ! A6    A(13,1,22)            110.8474                                         !
 ! A7    A(1,2,3)              103.3474                                         !
 ! A8    A(1,2,5)              110.0171                                         !
 ! A9    A(1,2,14)             106.7151                                         !
 ! A10   A(3,2,5)              116.8434                                         !
 ! A11   A(3,2,14)             108.9561                                         !
 ! A12   A(5,2,14)             110.3282                                         !
 ! A13   A(2,3,4)              118.5533                                         !
 ! A14   A(2,3,23)             118.0635                                         !
 ! A15   A(4,3,23)             123.3253                                         !
 ! A16   A(2,5,6)              111.7507                                         !
 ! A17   A(2,5,15)             107.858                                          !
 ! A18   A(2,5,16)             108.7192                                         !
 ! A19   A(6,5,15)             110.6621                                         !
 ! A20   A(6,5,16)             109.5615                                         !
 ! A21   A(15,5,16)            108.1944                                         !
 ! A22   A(5,6,7)              121.0947                                         !
 ! A23   A(5,6,8)              119.6064                                         !
 ! A24   A(7,6,8)              119.1557                                         !
 ! A25   A(6,7,9)              120.3804                                         !
 ! A26   A(6,7,17)             119.8572                                         !
 ! A27   A(9,7,17)             119.7577                                         !
 ! A28   A(6,8,10)             120.4529                                         !
 ! A29   A(6,8,18)             119.3763                                         !
 ! A30   A(10,8,18)            120.1707                                         !
 ! A31   A(7,9,11)             120.1292                                         !
 ! A32   A(7,9,19)             119.78                                           !
 ! A33   A(11,9,19)            120.0899                                         !
 ! A34   A(8,10,11)            120.0476                                         !
 ! A35   A(8,10,20)            119.7236                                         !
 ! A36   A(11,10,20)           120.2282                                         !
 ! A37   A(9,11,10)            119.8337                                         !
 ! A38   A(9,11,21)            120.0179                                         !
 ! A39   A(10,11,21)           120.1473                                         !
 ! A40   A(3,23,24)            120.4623                                         !
 ! A41   A(3,23,31)            120.5072                                         !
 ! A42   A(24,23,31)           118.8619                                         !
 ! A43   A(23,24,25)           111.4105                                         !
 ! A44   A(23,24,27)           110.7323                                         !
 ! A45   A(23,24,32)           108.6393                                         !
 ! A46   A(25,24,27)           110.76                                           !
 ! A47   A(25,24,32)           104.4538                                         !
 ! A48   A(27,24,32)           110.6599                                         !
 ! A49   A(24,25,26)           120.9354                                         !
 ! A50   A(24,25,42)           115.5519                                         !
 ! A51   A(26,25,42)           123.4746                                         !
 ! A52   A(24,27,28)           115.684                                          !
 ! A53   A(24,27,33)           108.803                                          !
 ! A54   A(24,27,34)           106.5752                                         !
 ! A55   A(28,27,33)           109.7359                                         !
 ! A56   A(28,27,34)           109.2055                                         !
 ! A57   A(33,27,34)           106.4078                                         !
 ! A58   A(27,28,29)           109.4143                                         !
 ! A59   A(27,28,30)           112.2485                                         !
 ! A60   A(27,28,35)           108.709                                          !
 ! A61   A(29,28,30)           111.0031                                         !
 ! A62   A(29,28,35)           107.4129                                         !
 ! A63   A(30,28,35)           107.8979                                         !
 ! A64   A(28,29,36)           110.6344                                         !
 ! A65   A(28,29,37)           110.9281                                         !
 ! A66   A(28,29,38)           111.6307                                         !
 ! A67   A(36,29,37)           107.7216                                         !
 ! A68   A(36,29,38)           107.818                                          !
 ! A69   A(37,29,38)           107.9533                                         !
 ! A70   A(28,30,39)           110.5943                                         !
 ! A71   A(28,30,40)           110.7077                                         !
 ! A72   A(28,30,41)           112.3353                                         !
 ! A73   A(39,30,40)           107.7175                                         !
 ! A74   A(39,30,41)           107.4212                                         !
 ! A75   A(40,30,41)           107.8807                                         !
 ! A76   A(25,42,43)           119.7802                                         !
 ! A77   A(25,42,50)           116.4984                                         !
 ! A78   A(43,42,50)           112.8471                                         !
 ! A79   A(42,43,44)           107.1263                                         !
 ! A80   A(42,43,46)           112.2187                                         !
 ! A81   A(42,43,51)           107.4163                                         !
 ! A82   A(44,43,46)           114.1277                                         !
 ! A83   A(44,43,51)           108.0056                                         !
 ! A84   A(46,43,51)           107.6817                                         !
 ! A85   A(43,44,45)           119.6932                                         !
 ! A86   A(43,44,56)           115.9914                                         !
 ! A87   A(45,44,56)           124.3125                                         !
 ! A88   A(43,46,47)           112.9348                                         !
 ! A89   A(43,46,52)           107.0828                                         !
 ! A90   A(43,46,53)           111.1073                                         !
 ! A91   A(47,46,52)           110.0719                                         !
 ! A92   A(47,46,53)           108.6236                                         !
 ! A93   A(52,46,53)           106.8414                                         !
 ! A94   A(46,47,48)           115.8384                                         !
 ! A95   A(46,47,49)           122.5537                                         !
 ! A96   A(48,47,49)           121.6018                                         !
 ! A97   A(47,48,54)           118.3907                                         !
 ! A98   A(47,48,55)           122.828                                          !
 ! A99   A(54,48,55)           118.3918                                         !
 ! A100  A(44,56,57)           125.5264                                         !
 ! A101  A(44,56,69)           115.5662                                         !
 ! A102  A(57,56,69)           118.7877                                         !
 ! A103  A(56,57,58)           106.0286                                         !
 ! A104  A(56,57,60)           114.1155                                         !
 ! A105  A(56,57,70)           105.2565                                         !
 ! A106  A(58,57,60)           113.2786                                         !
 ! A107  A(58,57,70)           107.7845                                         !
 ! A108  A(60,57,70)           109.8793                                         !
 ! A109  A(57,58,59)           125.6779                                         !
 ! A110  A(57,58,67)           111.6973                                         !
 ! A111  A(59,58,67)           122.0283                                         !
 ! A112  A(57,60,61)           114.5532                                         !
 ! A113  A(57,60,71)           109.0813                                         !
 ! A114  A(57,60,72)           107.1659                                         !
 ! A115  A(61,60,71)           110.0998                                         !
 ! A116  A(61,60,72)           108.8104                                         !
 ! A117  A(71,60,72)           106.8123                                         !
 ! A118  A(60,61,62)           115.0752                                         !
 ! A119  A(60,61,73)           110.6261                                         !
 ! A120  A(60,61,74)           107.9298                                         !
 ! A121  A(62,61,73)           108.4964                                         !
 ! A122  A(62,61,74)           107.6954                                         !
 ! A123  A(73,61,74)           106.6534                                         !
 ! A124  A(61,62,63)           112.2474                                         !
 ! A125  A(61,62,75)           109.2278                                         !
 ! A126  A(61,62,76)           109.6727                                         !
 ! A127  A(63,62,75)           110.6805                                         !
 ! A128  A(63,62,76)           106.3731                                         !
 ! A129  A(75,62,76)           108.5424                                         !
 ! A130  A(62,63,64)           118.7266                                         !
 ! A131  A(62,63,77)           113.1599                                         !
 ! A132  A(64,63,77)           111.3865                                         !
 ! A133  A(63,64,65)           120.2424                                         !
 ! A134  A(63,64,66)           111.0971                                         !
 ! A135  A(65,64,66)           128.6557                                         !
 ! A136  A(64,65,78)           111.5422                                         !
 ! A137  A(64,66,79)           114.1126                                         !
 ! A138  A(64,66,80)           113.7157                                         !
 ! A139  A(79,66,80)           111.7259                                         !
 ! A140  A(58,67,68)           107.1345                                         !
 ! D1    D(12,1,2,3)            69.7882                                         !
 ! D2    D(12,1,2,5)           -55.688                                          !
 ! D3    D(12,1,2,14)         -175.3872                                         !
 ! D4    D(13,1,2,3)           -44.7532                                         !
 ! D5    D(13,1,2,5)          -170.2293                                         !
 ! D6    D(13,1,2,14)           70.0714                                         !
 ! D7    D(22,1,2,3)          -169.2127                                         !
 ! D8    D(22,1,2,5)            65.3112                                         !
 ! D9    D(22,1,2,14)          -54.3881                                         !
 ! D10   D(1,2,3,4)             28.735                                          !
 ! D11   D(1,2,3,23)          -148.5918                                         !
 ! D12   D(5,2,3,4)            149.6901                                         !
 ! D13   D(5,2,3,23)           -27.6367                                         !
 ! D14   D(14,2,3,4)           -84.4712                                         !
 ! D15   D(14,2,3,23)           98.202                                          !
 ! D16   D(1,2,5,6)            -43.5299                                         !
 ! D17   D(1,2,5,15)          -165.3784                                         !
 ! D18   D(1,2,5,16)            77.5218                                         !
 ! D19   D(3,2,5,6)           -160.9003                                         !
 ! D20   D(3,2,5,15)            77.2511                                         !
 ! D21   D(3,2,5,16)           -39.8487                                         !
 ! D22   D(14,2,5,6)            73.9477                                         !
 ! D23   D(14,2,5,15)          -47.9008                                         !
 ! D24   D(14,2,5,16)         -165.0007                                         !
 ! D25   D(2,3,23,24)          171.4633                                         !
 ! D26   D(2,3,23,31)           -3.7634                                         !
 ! D27   D(4,3,23,24)           -5.7265                                         !
 ! D28   D(4,3,23,31)          179.0468                                         !
 ! D29   D(2,5,6,7)            -75.6203                                         !
 ! D30   D(2,5,6,8)             99.9933                                         !
 ! D31   D(15,5,6,7)            44.5996                                         !
 ! D32   D(15,5,6,8)          -139.7868                                         !
 ! D33   D(16,5,6,7)           163.8183                                         !
 ! D34   D(16,5,6,8)           -20.5681                                         !
 ! D35   D(5,6,7,9)            175.7909                                         !
 ! D36   D(5,6,7,17)            -4.9961                                         !
 ! D37   D(8,6,7,9)              0.1579                                         !
 ! D38   D(8,6,7,17)           179.3708                                         !
 ! D39   D(5,6,8,10)          -175.7258                                         !
 ! D40   D(5,6,8,18)             4.1333                                         !
 ! D41   D(7,6,8,10)            -0.0267                                         !
 ! D42   D(7,6,8,18)           179.8324                                         !
 ! D43   D(6,7,9,11)            -0.2879                                         !
 ! D44   D(6,7,9,19)           179.368                                          !
 ! D45   D(17,7,9,11)         -179.5017                                         !
 ! D46   D(17,7,9,19)            0.1543                                         !
 ! D47   D(6,8,10,11)            0.0252                                         !
 ! D48   D(6,8,10,20)         -179.6615                                         !
 ! D49   D(18,8,10,11)        -179.8327                                         !
 ! D50   D(18,8,10,20)           0.4805                                         !
 ! D51   D(7,9,11,10)            0.2847                                         !
 ! D52   D(7,9,11,21)          179.8887                                         !
 ! D53   D(19,9,11,10)        -179.3703                                         !
 ! D54   D(19,9,11,21)           0.2338                                         !
 ! D55   D(8,10,11,9)           -0.1537                                         !
 ! D56   D(8,10,11,21)        -179.7572                                         !
 ! D57   D(20,10,11,9)         179.5315                                         !
 ! D58   D(20,10,11,21)         -0.072                                          !
 ! D59   D(3,23,24,25)         -58.398                                          !
 ! D60   D(3,23,24,27)         177.8562                                         !
 ! D61   D(3,23,24,32)          56.1338                                         !
 ! D62   D(31,23,24,25)        116.9064                                         !
 ! D63   D(31,23,24,27)         -6.8394                                         !
 ! D64   D(31,23,24,32)       -128.5618                                         !
 ! D65   D(23,24,25,26)        148.5773                                         !
 ! D66   D(23,24,25,42)        -33.5904                                         !
 ! D67   D(27,24,25,26)        -87.6927                                         !
 ! D68   D(27,24,25,42)         90.1396                                         !
 ! D69   D(32,24,25,26)         31.4744                                         !
 ! D70   D(32,24,25,42)       -150.6933                                         !
 ! D71   D(23,24,27,28)        -60.6715                                         !
 ! D72   D(23,24,27,33)         63.3551                                         !
 ! D73   D(23,24,27,34)        177.7282                                         !
 ! D74   D(25,24,27,28)        175.21                                           !
 ! D75   D(25,24,27,33)        -60.7634                                         !
 ! D76   D(25,24,27,34)         53.6097                                         !
 ! D77   D(32,24,27,28)         59.856                                          !
 ! D78   D(32,24,27,33)       -176.1174                                         !
 ! D79   D(32,24,27,34)        -61.7443                                         !
 ! D80   D(24,25,42,43)        155.1762                                         !
 ! D81   D(24,25,42,50)         13.4411                                         !
 ! D82   D(26,25,42,43)        -27.0529                                         !
 ! D83   D(26,25,42,50)       -168.788                                          !
 ! D84   D(24,27,28,29)        179.1523                                         !
 ! D85   D(24,27,28,30)        -57.1527                                         !
 ! D86   D(24,27,28,35)         62.129                                          !
 ! D87   D(33,27,28,29)         55.6132                                         !
 ! D88   D(33,27,28,30)        179.3082                                         !
 ! D89   D(33,27,28,35)        -61.4101                                         !
 ! D90   D(34,27,28,29)        -60.6668                                         !
 ! D91   D(34,27,28,30)         63.0282                                         !
 ! D92   D(34,27,28,35)       -177.6901                                         !
 ! D93   D(27,28,29,36)         63.3797                                         !
 ! D94   D(27,28,29,37)       -177.1325                                         !
 ! D95   D(27,28,29,38)        -56.6907                                         !
 ! D96   D(30,28,29,36)        -61.0456                                         !
 ! D97   D(30,28,29,37)         58.4422                                         !
 ! D98   D(30,28,29,38)        178.884                                          !
 ! D99   D(35,28,29,36)       -178.7826                                         !
 ! D100  D(35,28,29,37)        -59.2948                                         !
 ! D101  D(35,28,29,38)         61.147                                          !
 ! D102  D(27,28,30,39)       -176.6909                                         !
 ! D103  D(27,28,30,40)        -57.3767                                         !
 ! D104  D(27,28,30,41)         63.2988                                         !
 ! D105  D(29,28,30,39)        -53.8881                                         !
 ! D106  D(29,28,30,40)         65.4261                                         !
 ! D107  D(29,28,30,41)       -173.8984                                         !
 ! D108  D(35,28,30,39)         63.5536                                         !
 ! D109  D(35,28,30,40)       -177.1323                                         !
 ! D110  D(35,28,30,41)        -56.4568                                         !
 ! D111  D(25,42,43,44)       -122.0752                                         !
 ! D112  D(25,42,43,46)        111.9156                                         !
 ! D113  D(25,42,43,51)         -6.248                                          !
 ! D114  D(50,42,43,44)         20.9529                                         !
 ! D115  D(50,42,43,46)       -105.0564                                         !
 ! D116  D(50,42,43,51)        136.78                                           !
 ! D117  D(42,43,44,45)         -7.3485                                         !
 ! D118  D(42,43,44,56)        172.0534                                         !
 ! D119  D(46,43,44,45)        117.5124                                         !
 ! D120  D(46,43,44,56)        -63.0857                                         !
 ! D121  D(51,43,44,45)       -122.7834                                         !
 ! D122  D(51,43,44,56)         56.6185                                         !
 ! D123  D(42,43,46,47)       -152.7475                                         !
 ! D124  D(42,43,46,52)        -31.4225                                         !
 ! D125  D(42,43,46,53)         84.9062                                         !
 ! D126  D(44,43,46,47)         85.1452                                         !
 ! D127  D(44,43,46,52)       -153.5298                                         !
 ! D128  D(44,43,46,53)        -37.2011                                         !
 ! D129  D(51,43,46,47)        -34.7411                                         !
 ! D130  D(51,43,46,52)         86.5838                                         !
 ! D131  D(51,43,46,53)       -157.0875                                         !
 ! D132  D(43,44,56,57)       -174.7586                                         !
 ! D133  D(43,44,56,69)          1.1964                                         !
 ! D134  D(45,44,56,57)          4.6123                                         !
 ! D135  D(45,44,56,69)       -179.4326                                         !
 ! D136  D(43,46,47,48)        153.1953                                         !
 ! D137  D(43,46,47,49)        -27.6856                                         !
 ! D138  D(52,46,47,48)         33.5781                                         !
 ! D139  D(52,46,47,49)       -147.3028                                         !
 ! D140  D(53,46,47,48)        -83.0782                                         !
 ! D141  D(53,46,47,49)         96.0409                                         !
 ! D142  D(46,47,48,54)       -179.6143                                         !
 ! D143  D(46,47,48,55)         -6.9007                                         !
 ! D144  D(49,47,48,54)          1.2575                                         !
 ! D145  D(49,47,48,55)        173.9711                                         !
 ! D146  D(44,56,57,58)         75.4233                                         !
 ! D147  D(44,56,57,60)        -49.9646                                         !
 ! D148  D(44,56,57,70)       -170.5126                                         !
 ! D149  D(69,56,57,58)       -100.413                                          !
 ! D150  D(69,56,57,60)        134.1991                                         !
 ! D151  D(69,56,57,70)         13.651                                          !
 ! D152  D(56,57,58,59)        -95.3194                                         !
 ! D153  D(56,57,58,67)         75.9241                                         !
 ! D154  D(60,57,58,59)         30.5807                                         !
 ! D155  D(60,57,58,67)       -158.1758                                         !
 ! D156  D(70,57,58,59)        152.3671                                         !
 ! D157  D(70,57,58,67)        -36.3894                                         !
 ! D158  D(56,57,60,61)       -152.6052                                         !
 ! D159  D(56,57,60,71)         83.4898                                         !
 ! D160  D(56,57,60,72)        -31.7987                                         !
 ! D161  D(58,57,60,61)         85.9338                                         !
 ! D162  D(58,57,60,71)        -37.9712                                         !
 ! D163  D(58,57,60,72)       -153.2597                                         !
 ! D164  D(70,57,60,61)        -34.6726                                         !
 ! D165  D(70,57,60,71)       -158.5776                                         !
 ! D166  D(70,57,60,72)         86.1339                                         !
 ! D167  D(57,58,67,68)       -170.9069                                         !
 ! D168  D(59,58,67,68)          0.7058                                         !
 ! D169  D(57,60,61,62)        -64.6016                                         !
 ! D170  D(57,60,61,73)         58.7903                                         !
 ! D171  D(57,60,61,74)        175.1259                                         !
 ! D172  D(71,60,61,62)         58.7585                                         !
 ! D173  D(71,60,61,73)       -177.8496                                         !
 ! D174  D(71,60,61,74)        -61.5139                                         !
 ! D175  D(72,60,61,62)        175.5038                                         !
 ! D176  D(72,60,61,73)        -61.1043                                         !
 ! D177  D(72,60,61,74)         55.2314                                         !
 ! D178  D(60,61,62,63)         62.3696                                         !
 ! D179  D(60,61,62,75)       -174.4844                                         !
 ! D180  D(60,61,62,76)        -55.6444                                         !
 ! D181  D(73,61,62,63)        -62.1463                                         !
 ! D182  D(73,61,62,75)         60.9998                                         !
 ! D183  D(73,61,62,76)        179.8397                                         !
 ! D184  D(74,61,62,63)       -177.2293                                         !
 ! D185  D(74,61,62,75)        -54.0833                                         !
 ! D186  D(74,61,62,76)         64.7567                                         !
 ! D187  D(61,62,63,64)         75.8886                                         !
 ! D188  D(61,62,63,77)       -150.7384                                         !
 ! D189  D(75,62,63,64)        -46.437                                          !
 ! D190  D(75,62,63,77)         86.936                                          !
 ! D191  D(76,62,63,64)       -164.1589                                         !
 ! D192  D(76,62,63,77)        -30.7859                                         !
 ! D193  D(62,63,64,65)         -5.8551                                         !
 ! D194  D(62,63,64,66)        173.4115                                         !
 ! D195  D(77,63,64,65)       -139.9869                                         !
 ! D196  D(77,63,64,66)         39.2798                                         !
 ! D197  D(63,64,65,78)       -174.5547                                         !
 ! D198  D(66,64,65,78)          6.3214                                         !
 ! D199  D(63,64,66,79)        173.2764                                         !
 ! D200  D(63,64,66,80)         43.5157                                         !
 ! D201  D(65,64,66,79)         -7.5349                                         !
 ! D202  D(65,64,66,80)       -137.2956                                         !
 --------------------------------------------------------------------------------
 Symmetry turned off by external request.
 Stoichiometry    C25H41N8O6(1+)
 Framework group  C1[X(C25H41N8O6)]
 Deg. of freedom   234
 Full point group                 C1      NOp   1
                          Input orientation:                          
 ---------------------------------------------------------------------
 Center     Atomic      Atomic             Coordinates (Angstroms)
 Number     Number       Type             X           Y           Z
 ---------------------------------------------------------------------
      1          7           0       -0.731740   11.255534   -5.845297
      2          6           0       -1.297439   11.985208   -4.662791
      3          6           0       -2.607211   11.218752   -4.363388
      4          8           0       -2.669414   10.026321   -4.653648
      5          6           0       -1.427823   13.489531   -4.983083
      6          6           0       -0.200618   14.020253   -5.695960
      7          6           0        0.991933   14.262778   -5.000881
      8          6           0       -0.225915   14.186709   -7.088110
      9          6           0        2.138665   14.668097   -5.686197
     10          6           0        0.921964   14.589498   -7.773695
     11          6           0        2.106315   14.829215   -7.073960
     12          1           0       -1.330640   11.441318   -6.683795
     13          1           0       -0.797759   10.241941   -5.692058
     14          1           0       -0.598090   11.831884   -3.833973
     15          1           0       -1.586748   14.022088   -4.037742
     16          1           0       -2.309684   13.639275   -5.611680
     17          1           0        1.021700   14.147063   -3.919195
     18          1           0       -1.148083   13.996957   -7.631063
     19          1           0        3.054809   14.863293   -5.136589
     20          1           0        0.887567   14.720118   -8.851670
     21          1           0        2.998867   15.146312   -7.604994
     22          1           0        0.228436   11.528327   -6.066087
     23          7           0       -3.644217   11.911226   -3.845395
     24          6           0       -4.967911   11.284597   -3.714562
     25          6           0       -5.500438   10.800544   -5.081852
     26          8           0       -6.220991    9.821653   -5.162325
     27          6           0       -5.962803   12.249013   -3.053575
     28          6           0       -5.597433   12.713621   -1.628766
     29          6           0       -6.672263   13.683823   -1.116839
     30          6           0       -5.414635   11.535469   -0.662363
     31          1           0       -3.541503   12.888427   -3.608678
     32          1           0       -4.865233   10.372225   -3.123571
     33          1           0       -6.095823   13.123800   -3.706808
     34          1           0       -6.929502   11.731950   -3.027617
     35          1           0       -4.645436   13.268200   -1.670850
     36          1           0       -7.641886   13.177680   -1.033710
     37          1           0       -6.411273   14.069090   -0.125522
     38          1           0       -6.797432   14.540170   -1.790055
     39          1           0       -5.214168   11.896702    0.351840
     40          1           0       -6.322288   10.920459   -0.624399
     41          1           0       -4.580192   10.886311   -0.950312
     42          7           0       -5.143656   11.571058   -6.164081
     43          6           0       -5.100193   10.978354   -7.487711
     44          6           0       -3.661730   11.175254   -8.028803
     45          8           0       -2.849455   11.878609   -7.388018
     46          6           0       -6.208063   11.536321   -8.416204
     47          6           0       -6.627101   10.547964   -9.504024
     48          7           0       -7.887768   10.683251   -9.968051
     49          8           0       -5.862156    9.686178   -9.949723
     50          1           0       -4.407388   12.249143   -6.012680
     51          1           0       -5.274032    9.902612   -7.371279
     52          1           0       -7.065130   11.782421   -7.782054
     53          1           0       -5.888493   12.470727   -8.895722
     54          1           0       -8.207617   10.044944  -10.684943
     55          1           0       -8.556035   11.319261   -9.558941
     56          7           0       -3.376894   10.550861   -9.171360
     57          6           0       -2.049135   10.503344   -9.815132
     58          6           0       -1.218504    9.507551   -8.998772
     59          8           0       -0.453450    9.793494   -8.094319
     60          6           0       -1.374003   11.878489   -9.966600
     61          6           0       -0.392301   11.981211  -11.142703
     62          6           0        0.843306   11.082288  -11.037277
     63          7           0        0.493133    9.655783  -11.016266
     64          6           0        0.116279    9.034744  -12.219873
     65          7           0       -0.026960    9.728787  -13.286477
     66          7           0       -0.037630    7.654696  -12.047872
     67          8           0       -1.566718    8.229295   -9.265837
     68          1           0       -1.109065    7.664154   -8.613802
     69          1           0       -4.150746   10.014481   -9.589876
     70          1           0       -2.222720   10.064616  -10.799494
     71          1           0       -0.868459   12.132952   -9.032316
     72          1           0       -2.171397   12.616495  -10.106592
     73          1           0       -0.899087   11.765050  -12.087645
     74          1           0       -0.044500   13.020825  -11.202838
     75          1           0        1.522013   11.302218  -11.870029
     76          1           0        1.368272   11.285460  -10.096765
     77          1           0        1.157890    9.089274  -10.499948
     78          1           0       -0.387287    9.163269  -14.056057
     79          1           0       -0.412265    7.175943  -12.858082
     80          1           0       -0.533936    7.401870  -11.199217
 ---------------------------------------------------------------------
 Rotational constants (GHZ):           0.1111053           0.0650630           0.0475303
 Standard basis: 6-31G(d) (6D, 7F)
   667 basis functions,  1256 primitive gaussians,   667 cartesian basis functions
   147 alpha electrons      147 beta electrons
       nuclear repulsion energy      4892.7402208605 Hartrees.
 NAtoms=   80 NActive=   80 NUniq=   80 SFac= 1.00D+00 NAtFMM=   60 NAOKFM=T Big=T
 Integral buffers will be    131072 words long.
 Raffenetti 2 integral format.
 Two-electron integral symmetry is turned off.
 Nuclear repulsion after empirical dispersion term =     4892.6271812037 Hartrees.
 One-electron integrals computed using PRISM.
 NBasis=   667 RedAO= T EigKep=  4.66D-04  NBF=   667
 NBsUse=   667 1.00D-06 EigRej= -1.00D+00 NBFU=   667
 Initial guess from the checkpoint file:  "conf-242.chk"
 B after Tr=     0.000000    0.000000    0.000000
         Rot=    1.000000    0.000000    0.000000    0.000000 Ang=   0.00 deg.
 Requested convergence on RMS density matrix=1.00D-08 within 128 cycles.
 Requested convergence on MAX density matrix=1.00D-06.
 Requested convergence on             energy=1.00D-06.
 No special actions if energy rises.
 SCF Done:  E(RB3LYP) =  -1866.72141046     A.U. after    1 cycles
            NFock=  1  Conv=0.74D-08     -V/T= 2.0094

 **********************************************************************

            Population analysis using the SCF Density.

 **********************************************************************

 Alpha  occ. eigenvalues --  -19.30807 -19.25370 -19.24783 -19.24521 -19.22609
 Alpha  occ. eigenvalues --  -19.20858 -14.55380 -14.48910 -14.47213 -14.46214
 Alpha  occ. eigenvalues --  -14.45087 -14.42832 -14.42019 -14.36360 -10.43673
 Alpha  occ. eigenvalues --  -10.41965 -10.41159 -10.40136 -10.38481 -10.38035
 Alpha  occ. eigenvalues --  -10.35620 -10.34508 -10.34360 -10.33435 -10.32570
 Alpha  occ. eigenvalues --  -10.30899 -10.30763 -10.29639 -10.29405 -10.29322
 Alpha  occ. eigenvalues --  -10.29221 -10.29207 -10.28974 -10.28532 -10.28180
 Alpha  occ. eigenvalues --  -10.28037 -10.26249 -10.25354 -10.25239  -1.21778
 Alpha  occ. eigenvalues --   -1.17160  -1.15956  -1.14150  -1.12903  -1.12697
 Alpha  occ. eigenvalues --   -1.10601  -1.05223  -1.05160  -1.04130  -1.02044
 Alpha  occ. eigenvalues --   -1.01015  -0.96427  -0.96330  -0.91958  -0.91843
 Alpha  occ. eigenvalues --   -0.90292  -0.89949  -0.87793  -0.85820  -0.84780
 Alpha  occ. eigenvalues --   -0.83624  -0.83570  -0.78616  -0.78224  -0.77029
 Alpha  occ. eigenvalues --   -0.76378  -0.74755  -0.72460  -0.72221  -0.71256
 Alpha  occ. eigenvalues --   -0.70758  -0.70414  -0.69317  -0.69145  -0.68494
 Alpha  occ. eigenvalues --   -0.67907  -0.66799  -0.65844  -0.65265  -0.64177
 Alpha  occ. eigenvalues --   -0.63825  -0.63158  -0.61810  -0.61759  -0.61247
 Alpha  occ. eigenvalues --   -0.60841  -0.60149  -0.59618  -0.59275  -0.58893
 Alpha  occ. eigenvalues --   -0.58382  -0.57806  -0.56560  -0.56073  -0.55814
 Alpha  occ. eigenvalues --   -0.55295  -0.54761  -0.54681  -0.54396  -0.54216
 Alpha  occ. eigenvalues --   -0.53281  -0.52979  -0.52681  -0.52458  -0.52277
 Alpha  occ. eigenvalues --   -0.52042  -0.51798  -0.51483  -0.50982  -0.50559
 Alpha  occ. eigenvalues --   -0.50275  -0.49963  -0.49375  -0.49042  -0.48136
 Alpha  occ. eigenvalues --   -0.48098  -0.47491  -0.47056  -0.46764  -0.46346
 Alpha  occ. eigenvalues --   -0.46265  -0.46048  -0.45676  -0.44771  -0.44526
 Alpha  occ. eigenvalues --   -0.44418  -0.43874  -0.43374  -0.42913  -0.42022
 Alpha  occ. eigenvalues --   -0.41518  -0.41403  -0.41138  -0.40424  -0.39131
 Alpha  occ. eigenvalues --   -0.38700  -0.38435  -0.37588  -0.36848  -0.36694
 Alpha  occ. eigenvalues --   -0.35461  -0.35284  -0.35058  -0.34445  -0.33940
 Alpha  occ. eigenvalues --   -0.32893  -0.30971
 Alpha virt. eigenvalues --   -0.11893  -0.11354  -0.10759  -0.10569  -0.09072
 Alpha virt. eigenvalues --   -0.08182  -0.07143  -0.05120  -0.04275  -0.03501
 Alpha virt. eigenvalues --   -0.02639  -0.02110  -0.01730  -0.01157  -0.00563
 Alpha virt. eigenvalues --    0.00336   0.00498   0.00692   0.01284   0.01716
 Alpha virt. eigenvalues --    0.02075   0.02678   0.03110   0.03650   0.03793
 Alpha virt. eigenvalues --    0.04087   0.04409   0.04466   0.05002   0.05187
 Alpha virt. eigenvalues --    0.05729   0.06007   0.06316   0.06631   0.06739
 Alpha virt. eigenvalues --    0.06895   0.07369   0.07720   0.08175   0.08624
 Alpha virt. eigenvalues --    0.08771   0.08999   0.09380   0.09754   0.09958
 Alpha virt. eigenvalues --    0.10301   0.10670   0.11010   0.11422   0.11823
 Alpha virt. eigenvalues --    0.12064   0.12651   0.12971   0.13240   0.13545
 Alpha virt. eigenvalues --    0.13893   0.14262   0.14410   0.14607   0.14680
 Alpha virt. eigenvalues --    0.15594   0.15858   0.16392   0.16690   0.16986
 Alpha virt. eigenvalues --    0.17366   0.17834   0.18651   0.19444   0.20767
 Alpha virt. eigenvalues --    0.21178   0.21386   0.21885   0.22115   0.22674
 Alpha virt. eigenvalues --    0.23628   0.24594   0.25076   0.25585   0.26035
 Alpha virt. eigenvalues --    0.26728   0.27281   0.29401   0.30493   0.32267
 Alpha virt. eigenvalues --    0.33334   0.34355   0.36784   0.37959   0.38726
 Alpha virt. eigenvalues --    0.39345   0.40637   0.41136   0.41687   0.41963
 Alpha virt. eigenvalues --    0.42268   0.43015   0.43167   0.43428   0.43589
 Alpha virt. eigenvalues --    0.43969   0.44044   0.44700   0.44847   0.45400
 Alpha virt. eigenvalues --    0.45601   0.46475   0.46664   0.47402   0.47553
 Alpha virt. eigenvalues --    0.48568   0.48661   0.49086   0.49483   0.49865
 Alpha virt. eigenvalues --    0.50200   0.50738   0.50994   0.51485   0.51837
 Alpha virt. eigenvalues --    0.51903   0.52130   0.52292   0.53145   0.53678
 Alpha virt. eigenvalues --    0.54110   0.54330   0.54653   0.55031   0.55135
 Alpha virt. eigenvalues --    0.55373   0.55740   0.56321   0.56653   0.57154
 Alpha virt. eigenvalues --    0.57417   0.57976   0.58893   0.59328   0.59710
 Alpha virt. eigenvalues --    0.60174   0.60562   0.61127   0.61824   0.62194
 Alpha virt. eigenvalues --    0.62343   0.62504   0.63513   0.64076   0.64973
 Alpha virt. eigenvalues --    0.65021   0.65449   0.65837   0.66040   0.66758
 Alpha virt. eigenvalues --    0.67600   0.68552   0.68840   0.69107   0.70198
 Alpha virt. eigenvalues --    0.70821   0.71118   0.71199   0.71491   0.72081
 Alpha virt. eigenvalues --    0.72931   0.73430   0.73642   0.73883   0.74055
 Alpha virt. eigenvalues --    0.74347   0.74982   0.75216   0.75518   0.75891
 Alpha virt. eigenvalues --    0.76197   0.77193   0.77499   0.77688   0.77810
 Alpha virt. eigenvalues --    0.78168   0.78382   0.78797   0.79249   0.79600
 Alpha virt. eigenvalues --    0.80073   0.80359   0.80793   0.81108   0.81320
 Alpha virt. eigenvalues --    0.81786   0.82039   0.82297   0.82702   0.82970
 Alpha virt. eigenvalues --    0.83462   0.83587   0.83957   0.84089   0.84322
 Alpha virt. eigenvalues --    0.84945   0.85349   0.85922   0.86269   0.86485
 Alpha virt. eigenvalues --    0.86935   0.87388   0.87520   0.87940   0.88568
 Alpha virt. eigenvalues --    0.89056   0.89576   0.89891   0.90073   0.90909
 Alpha virt. eigenvalues --    0.91415   0.91790   0.92615   0.93024   0.93227
 Alpha virt. eigenvalues --    0.93954   0.94627   0.95106   0.95653   0.95946
 Alpha virt. eigenvalues --    0.97472   0.97847   0.98640   0.99421   1.00047
 Alpha virt. eigenvalues --    1.01791   1.02000   1.03114   1.04144   1.04742
 Alpha virt. eigenvalues --    1.05426   1.06128   1.06679   1.07235   1.08137
 Alpha virt. eigenvalues --    1.09012   1.09361   1.10021   1.10915   1.12238
 Alpha virt. eigenvalues --    1.13185   1.13658   1.14505   1.15564   1.16843
 Alpha virt. eigenvalues --    1.17107   1.17769   1.18207   1.19124   1.20267
 Alpha virt. eigenvalues --    1.20906   1.21468   1.22685   1.23682   1.24584
 Alpha virt. eigenvalues --    1.24896   1.26248   1.27222   1.27725   1.29185
 Alpha virt. eigenvalues --    1.30316   1.30511   1.31335   1.31617   1.32668
 Alpha virt. eigenvalues --    1.32929   1.33229   1.34022   1.34456   1.34859
 Alpha virt. eigenvalues --    1.35786   1.36578   1.37022   1.37660   1.38146
 Alpha virt. eigenvalues --    1.38651   1.39113   1.39537   1.40481   1.40964
 Alpha virt. eigenvalues --    1.41341   1.43057   1.43405   1.43753   1.46353
 Alpha virt. eigenvalues --    1.47188   1.48411   1.49651   1.49767   1.51046
 Alpha virt. eigenvalues --    1.52207   1.53622   1.55493   1.56072   1.56634
 Alpha virt. eigenvalues --    1.57812   1.58352   1.58449   1.60892   1.61678
 Alpha virt. eigenvalues --    1.62328   1.63090   1.63268   1.64364   1.64802
 Alpha virt. eigenvalues --    1.65452   1.65937   1.66559   1.67289   1.67838
 Alpha virt. eigenvalues --    1.67993   1.68974   1.69639   1.70235   1.70656
 Alpha virt. eigenvalues --    1.70760   1.70907   1.71646   1.72009   1.72378
 Alpha virt. eigenvalues --    1.72957   1.73494   1.74286   1.74961   1.75865
 Alpha virt. eigenvalues --    1.75951   1.76618   1.77243   1.77971   1.78483
 Alpha virt. eigenvalues --    1.79390   1.80035   1.80230   1.80780   1.81616
 Alpha virt. eigenvalues --    1.82093   1.82605   1.82808   1.83357   1.83694
 Alpha virt. eigenvalues --    1.84353   1.85264   1.86050   1.86647   1.87043
 Alpha virt. eigenvalues --    1.87492   1.87517   1.88072   1.89446   1.89659
 Alpha virt. eigenvalues --    1.90630   1.90932   1.91552   1.92212   1.92723
 Alpha virt. eigenvalues --    1.93354   1.93760   1.94454   1.94885   1.95095
 Alpha virt. eigenvalues --    1.96098   1.96691   1.97162   1.98152   1.98739
 Alpha virt. eigenvalues --    1.98895   1.99892   1.99937   2.01424   2.01885
 Alpha virt. eigenvalues --    2.02686   2.03914   2.04186   2.04318   2.05141
 Alpha virt. eigenvalues --    2.07054   2.07883   2.09491   2.10700   2.10847
 Alpha virt. eigenvalues --    2.11917   2.12630   2.13260   2.13963   2.14984
 Alpha virt. eigenvalues --    2.15651   2.15908   2.16901   2.17156   2.17930
 Alpha virt. eigenvalues --    2.18207   2.18863   2.20018   2.20525   2.20702
 Alpha virt. eigenvalues --    2.21099   2.21442   2.23885   2.25244   2.25319
 Alpha virt. eigenvalues --    2.27101   2.27778   2.28668   2.29507   2.30479
 Alpha virt. eigenvalues --    2.31502   2.32274   2.32677   2.33198   2.34325
 Alpha virt. eigenvalues --    2.34813   2.35372   2.36177   2.37679   2.38351
 Alpha virt. eigenvalues --    2.38916   2.39561   2.40362   2.41507   2.42904
 Alpha virt. eigenvalues --    2.43152   2.43319   2.44023   2.46385   2.46538
 Alpha virt. eigenvalues --    2.47222   2.47662   2.49526   2.49662   2.50222
 Alpha virt. eigenvalues --    2.51800   2.52011   2.52692   2.52882   2.54006
 Alpha virt. eigenvalues --    2.55487   2.55683   2.56017   2.56887   2.60018
 Alpha virt. eigenvalues --    2.60328   2.60847   2.61905   2.62708   2.62957
 Alpha virt. eigenvalues --    2.63412   2.64470   2.65180   2.65331   2.66658
 Alpha virt. eigenvalues --    2.66969   2.68986   2.70020   2.70859   2.72840
 Alpha virt. eigenvalues --    2.73503   2.75808   2.78485   2.79234   2.82482
 Alpha virt. eigenvalues --    2.85749   2.88347   2.90304   2.91000   2.92523
 Alpha virt. eigenvalues --    2.93087   2.93714   2.94671   2.95791   2.96771
 Alpha virt. eigenvalues --    2.97432   2.99570   3.03121   3.07545   3.09216
 Alpha virt. eigenvalues --    3.30528   3.71153   3.76393   3.79500   3.81568
 Alpha virt. eigenvalues --    3.87572   3.90187   3.91390   3.94474   3.99158
 Alpha virt. eigenvalues --    3.99693   4.00729   4.02232   4.03810   4.06476
 Alpha virt. eigenvalues --    4.07788   4.08367   4.10620   4.13356   4.18581
 Alpha virt. eigenvalues --    4.19228   4.20175   4.21398   4.24034   4.24254
 Alpha virt. eigenvalues --    4.27783   4.29489   4.30986   4.32596   4.36827
 Alpha virt. eigenvalues --    4.40183   4.42949   4.48132   4.49463   4.49739
 Alpha virt. eigenvalues --    4.53911   4.55086   4.60864   4.61547   4.65199
          Condensed to atoms (all electrons):
 Mulliken charges:
               1
     1  N   -0.764358
     2  C   -0.098551
     3  C    0.654752
     4  O   -0.521227
     5  C   -0.393130
     6  C    0.115316
     7  C   -0.188927
     8  C   -0.202545
     9  C   -0.126812
    10  C   -0.131499
    11  C   -0.125604
    12  H    0.469431
    13  H    0.412135
    14  H    0.215651
    15  H    0.178893
    16  H    0.191664
    17  H    0.141115
    18  H    0.163158
    19  H    0.161907
    20  H    0.157055
    21  H    0.162056
    22  H    0.404973
    23  N   -0.649181
    24  C   -0.026129
    25  C    0.600344
    26  O   -0.493593
    27  C   -0.307139
    28  C   -0.079539
    29  C   -0.444000
    30  C   -0.452248
    31  H    0.352288
    32  H    0.208380
    33  H    0.139443
    34  H    0.183819
    35  H    0.107608
    36  H    0.157803
    37  H    0.160416
    38  H    0.144864
    39  H    0.161901
    40  H    0.160699
    41  H    0.146035
    42  N   -0.609021
    43  C   -0.059887
    44  C    0.619062
    45  O   -0.610916
    46  C   -0.380253
    47  C    0.637364
    48  N   -0.735804
    49  O   -0.532552
    50  H    0.343168
    51  H    0.222467
    52  H    0.193868
    53  H    0.191828
    54  H    0.366668
    55  H    0.358980
    56  N   -0.627234
    57  C   -0.014812
    58  C    0.656097
    59  O   -0.528307
    60  C   -0.278535
    61  C   -0.280882
    62  C   -0.115708
    63  N   -0.633632
    64  C    0.575278
    65  N   -0.629046
    66  N   -0.763214
    67  O   -0.569037
    68  H    0.421037
    69  H    0.410427
    70  H    0.197317
    71  H    0.148957
    72  H    0.150813
    73  H    0.191827
    74  H    0.142702
    75  H    0.178683
    76  H    0.134590
    77  H    0.333273
    78  H    0.281523
    79  H    0.330180
    80  H    0.335509
 Sum of Mulliken charges =   1.00000
 Mulliken charges with hydrogens summed into heavy atoms:
               1
     1  N    0.522180
     2  C    0.117100
     3  C    0.654752
     4  O   -0.521227
     5  C   -0.022573
     6  C    0.115316
     7  C   -0.047811
     8  C   -0.039387
     9  C    0.035095
    10  C    0.025556
    11  C    0.036452
    23  N   -0.296893
    24  C    0.182252
    25  C    0.600344
    26  O   -0.493593
    27  C    0.016123
    28  C    0.028070
    29  C    0.019082
    30  C    0.016387
    42  N   -0.265853
    43  C    0.162579
    44  C    0.619062
    45  O   -0.610916
    46  C    0.005442
    47  C    0.637364
    48  N   -0.010156
    49  O   -0.532552
    56  N   -0.216806
    57  C    0.182505
    58  C    0.656097
    59  O   -0.528307
    60  C    0.021235
    61  C    0.053647
    62  C    0.197564
    63  N   -0.300359
    64  C    0.575278
    65  N   -0.347523
    66  N   -0.097525
    67  O   -0.148000
 Electronic spatial extent (au):  <R**2>=         220552.2615
 Charge=              1.0000 electrons
 Dipole moment (field-independent basis, Debye):
    X=            -11.9951    Y=             57.3470    Z=            -32.4421  Tot=             66.9705
 Quadrupole moment (field-independent basis, Debye-Ang):
   XX=           -130.3457   YY=            477.0003   ZZ=             41.6066
   XY=           -151.2424   XZ=             99.0579   YZ=           -358.0879
 Traceless Quadrupole moment (field-independent basis, Debye-Ang):
   XX=           -259.7661   YY=            347.5799   ZZ=            -87.8138
   XY=           -151.2424   XZ=             99.0579   YZ=           -358.0879
 Octapole moment (field-independent basis, Debye-Ang**2):
  XXX=           1022.3744  YYY=            949.3786  ZZZ=           2424.3701  XYY=          -1280.2551
  XXY=          -1360.4579  XXZ=            795.8697  XZZ=           -452.1212  YZZ=            131.0132
  YYZ=          -2554.5851  XYZ=           1142.4679
 Hexadecapole moment (field-independent basis, Debye-Ang**3):
 XXXX=         -13584.5354 YYYY=         -74257.0326 ZZZZ=         -60463.2157 XXXY=          10684.5417
 XXXZ=          -3340.6924 YYYX=          -2977.9139 YYYZ=           3414.7084 ZZZX=           1023.7770
 ZZZY=          31147.9226 XXYY=         -18293.0241 XXZZ=          -9103.4029 YYZZ=         -14498.7972
 XXYZ=           7943.9667 YYXZ=           9737.6245 ZZXY=          -4769.1790
 N-N= 4.892627181204D+03 E-N=-1.410305162073D+04  KE= 1.849289011791D+03
 Unable to Open any file for archive entry.
 1\1\GINC-LAC-313\SP\RB3LYP\6-31G(d)\C25H41N8O6(1+)\KENGMITH\11-Jun-202
 2\0\\# B3LYP/6-31G* empiricaldispersion=gd3 guess=read geom=check nosy
 mm integral(ultrafinegrid)\\Candidate Structure: Conf:242 Charge calc 
 in gas phase\\1,1\N,0,-0.7317399066,11.2555341201,-5.8452967776\C,0,-1
 .2974392433,11.9852075735,-4.6627910284\C,0,-2.6072108968,11.218752148
 7,-4.363387926\O,0,-2.6694143117,10.0263206128,-4.6536480237\C,0,-1.42
 78232861,13.4895311259,-4.9830832856\C,0,-0.2006175726,14.0202534584,-
 5.6959603712\C,0,0.9919325004,14.2627778798,-5.0008812482\C,0,-0.22591
 53204,14.1867092246,-7.0881103224\C,0,2.1386648932,14.6680972618,-5.68
 61967898\C,0,0.9219642097,14.5894980024,-7.7736952032\C,0,2.1063152367
 ,14.829215185,-7.0739597123\H,0,-1.3306404318,11.4413179543,-6.6837945
 162\H,0,-0.7977594039,10.2419414737,-5.692058297\H,0,-0.5980897133,11.
 8318842255,-3.8339728226\H,0,-1.5867483727,14.0220883897,-4.0377417215
 \H,0,-2.3096835292,13.6392747321,-5.6116797321\H,0,1.0217001697,14.147
 0630149,-3.9191946322\H,0,-1.1480828487,13.9969570994,-7.6310627343\H,
 0,3.0548092907,14.8632927063,-5.1365888598\H,0,0.8875672334,14.7201182
 791,-8.8516695974\H,0,2.9988672753,15.1463115282,-7.6049942375\H,0,0.2
 284360715,11.5283273917,-6.0660869991\N,0,-3.6442171761,11.9112258557,
 -3.845395001\C,0,-4.9679107416,11.2845971811,-3.7145624609\C,0,-5.5004
 379243,10.8005438352,-5.0818519225\O,0,-6.2209912801,9.8216532526,-5.1
 623245846\C,0,-5.9628034973,12.2490132632,-3.0535749191\C,0,-5.5974328
 104,12.7136206342,-1.628765679\C,0,-6.6722630355,13.6838231546,-1.1168
 39401\C,0,-5.4146346009,11.5354690809,-0.6623629504\H,0,-3.5415034874,
 12.888426725,-3.6086783356\H,0,-4.8652325702,10.3722251859,-3.12357114
 44\H,0,-6.0958228424,13.1238003345,-3.7068082571\H,0,-6.9295020848,11.
 7319503709,-3.0276165019\H,0,-4.6454362598,13.2681996127,-1.670849997\
 H,0,-7.6418863789,13.1776795454,-1.0337100991\H,0,-6.411273296,14.0690
 895821,-0.1255216655\H,0,-6.7974320243,14.5401704253,-1.7900551976\H,0
 ,-5.2141680745,11.8967016608,0.3518402659\H,0,-6.3222883288,10.9204586
 423,-0.6243993253\H,0,-4.580191914,10.8863113168,-0.9503115004\N,0,-5.
 1436558395,11.5710584447,-6.1640806408\C,0,-5.1001932458,10.9783535497
 ,-7.4877112851\C,0,-3.6617295413,11.1752541618,-8.0288027577\O,0,-2.84
 94546624,11.878609038,-7.3880178634\C,0,-6.2080625911,11.5363213186,-8
 .4162035888\C,0,-6.6271009084,10.5479635803,-9.504024237\N,0,-7.887768
 0486,10.6832505566,-9.9680512087\O,0,-5.8621564004,9.6861779791,-9.949
 7228351\H,0,-4.4073876489,12.2491426448,-6.0126798055\H,0,-5.274031810
 4,9.9026124034,-7.3712789122\H,0,-7.0651298235,11.7824213817,-7.782054
 2042\H,0,-5.8884934113,12.4707273427,-8.8957218604\H,0,-8.2076170148,1
 0.0449435684,-10.6849426261\H,0,-8.5560345581,11.3192614907,-9.5589406
 514\N,0,-3.3768936906,10.5508610653,-9.1713595097\C,0,-2.0491352865,10
 .5033438856,-9.8151315639\C,0,-1.218504174,9.5075505086,-8.9987722043\
 O,0,-0.453449907,9.7934941415,-8.0943189726\C,0,-1.374003024,11.878488
 805,-9.9665999375\C,0,-0.3923012515,11.9812111487,-11.1427031182\C,0,0
 .8433056024,11.0822875546,-11.037277434\N,0,0.4931327207,9.6557831891,
 -11.0162663106\C,0,0.116278957,9.0347436649,-12.2198725566\N,0,-0.0269
 598358,9.7287867581,-13.2864766342\N,0,-0.0376299393,7.6546960627,-12.
 0478721623\O,0,-1.5667175008,8.2292951145,-9.2658374235\H,0,-1.1090647
 155,7.6641537479,-8.6138024065\H,0,-4.1507464415,10.0144813461,-9.5898
 757554\H,0,-2.2227195467,10.0646161045,-10.7994941978\H,0,-0.868458740
 5,12.1329520017,-9.0323160761\H,0,-2.1713967132,12.616494745,-10.10659
 15287\H,0,-0.8990874501,11.765049643,-12.0876446838\H,0,-0.0444998026,
 13.0208247673,-11.2028380148\H,0,1.5220129493,11.3022175599,-11.870029
 3059\H,0,1.3682724023,11.2854602158,-10.0967652079\H,0,1.1578904287,9.
 0892740751,-10.4999477489\H,0,-0.3872873907,9.1632687843,-14.056057475
 8\H,0,-0.4122648326,7.175943412,-12.8580815357\H,0,-0.5339356287,7.401
 8697612,-11.1992174338\\Version=ES64L-G16RevC.01\HF=-1866.7214105\RMSD
 =7.360e-09\Dipole=0.1912663,1.0259852,0.8003011\Quadrupole=-193.12973,
 258.4171428,-65.2874128,-112.4450455,73.6471328,-266.2295747\PG=C01 [X
 (C25H41N8O6)]\\@
 The archive entry for this job was punched.


 A COMPLEXITY IS MERELY A DISARRANGEMENT OF SIMPLICITIES.

                                    -- G. O. ABELL IN "EXPLORATION OF THE UNIVERSE"
 Job cpu time:       0 days  0 hours  2 minutes 19.2 seconds.
 Elapsed time:       0 days  0 hours  0 minutes 35.6 seconds.
 File lengths (MBytes):  RWF=    344 Int=      0 D2E=      0 Chk=     48 Scr=     16
 Normal termination of Gaussian 16 at Sat Jun 11 21:06:59 2022.
