 Entering Gaussian System, Link 0=/opt/software/Gaussian/g16-AVX2-C.01/g16/g16
 Input=charge-conf-746.com
 Output=charge-conf-746.log
 Initial command:
 /opt/software/Gaussian/g16-AVX2-C.01/g16/l1.exe "/mnt/gs18/scratch/users/kengmith/Gau-17616.inp" -scrdir="/mnt/gs18/scratch/users/kengmith/"
 Entering Link 1 = /opt/software/Gaussian/g16-AVX2-C.01/g16/l1.exe PID=     17626.
  
 Copyright (c) 1988-2019, Gaussian, Inc.  All Rights Reserved.
  
 This is part of the Gaussian(R) 16 program.  It is based on
 the Gaussian(R) 09 system (copyright 2009, Gaussian, Inc.),
 the Gaussian(R) 03 system (copyright 2003, Gaussian, Inc.),
 the Gaussian(R) 98 system (copyright 1998, Gaussian, Inc.),
 the Gaussian(R) 94 system (copyright 1995, Gaussian, Inc.),
 the Gaussian 92(TM) system (copyright 1992, Gaussian, Inc.),
 the Gaussian 90(TM) system (copyright 1990, Gaussian, Inc.),
 the Gaussian 88(TM) system (copyright 1988, Gaussian, Inc.),
 the Gaussian 86(TM) system (copyright 1986, Carnegie Mellon
 University), and the Gaussian 82(TM) system (copyright 1983,
 Carnegie Mellon University). Gaussian is a federally registered
 trademark of Gaussian, Inc.
  
 This software contains proprietary and confidential information,
 including trade secrets, belonging to Gaussian, Inc.
  
 This software is provided under written license and may be
 used, copied, transmitted, or stored only in accord with that
 written license.
  
 The following legend is applicable only to US Government
 contracts under FAR:
  
                    RESTRICTED RIGHTS LEGEND
  
 Use, reproduction and disclosure by the US Government is
 subject to restrictions as set forth in subparagraphs (a)
 and (c) of the Commercial Computer Software - Restricted
 Rights clause in FAR 52.227-19.
  
 Gaussian, Inc.
 340 Quinnipiac St., Bldg. 40, Wallingford CT 06492
  
  
 ---------------------------------------------------------------
 Warning -- This program may not be used in any manner that
 competes with the business of Gaussian, Inc. or will provide
 assistance to any competitor of Gaussian, Inc.  The licensee
 of this program is prohibited from giving any competitor of
 Gaussian, Inc. access to this program.  By using this program,
 the user acknowledges that Gaussian, Inc. is engaged in the
 business of creating and licensing software in the field of
 computational chemistry and represents and warrants to the
 licensee that it is not a competitor of Gaussian, Inc. and that
 it will not use this program in any manner prohibited above.
 ---------------------------------------------------------------
  

 Cite this work as:
 Gaussian 16, Revision C.01,
 M. J. Frisch, G. W. Trucks, H. B. Schlegel, G. E. Scuseria, 
 M. A. Robb, J. R. Cheeseman, G. Scalmani, V. Barone, 
 G. A. Petersson, H. Nakatsuji, X. Li, M. Caricato, A. V. Marenich, 
 J. Bloino, B. G. Janesko, R. Gomperts, B. Mennucci, H. P. Hratchian, 
 J. V. Ortiz, A. F. Izmaylov, J. L. Sonnenberg, D. Williams-Young, 
 F. Ding, F. Lipparini, F. Egidi, J. Goings, B. Peng, A. Petrone, 
 T. Henderson, D. Ranasinghe, V. G. Zakrzewski, J. Gao, N. Rega, 
 G. Zheng, W. Liang, M. Hada, M. Ehara, K. Toyota, R. Fukuda, 
 J. Hasegawa, M. Ishida, T. Nakajima, Y. Honda, O. Kitao, H. Nakai, 
 T. Vreven, K. Throssell, J. A. Montgomery, Jr., J. E. Peralta, 
 F. Ogliaro, M. J. Bearpark, J. J. Heyd, E. N. Brothers, K. N. Kudin, 
 V. N. Staroverov, T. A. Keith, R. Kobayashi, J. Normand, 
 K. Raghavachari, A. P. Rendell, J. C. Burant, S. S. Iyengar, 
 J. Tomasi, M. Cossi, J. M. Millam, M. Klene, C. Adamo, R. Cammi, 
 J. W. Ochterski, R. L. Martin, K. Morokuma, O. Farkas, 
 J. B. Foresman, and D. J. Fox, Gaussian, Inc., Wallingford CT, 2019.
 
 ******************************************
 Gaussian 16:  ES64L-G16RevC.01  3-Jul-2019
                27-May-2022 
 ******************************************
 %mem=8gb
 %nproc=4
 Will use up to    4 processors via shared memory.
 %chk=conf-746.chk
 ----------------------------------------------------------------------
 # B3LYP/6-31G* empiricaldispersion=gd3 guess=read geom=check nosymm in
 tegral(ultrafinegrid)
 ----------------------------------------------------------------------
 1/29=2,38=1,172=1/1;
 2/12=2,15=1,40=1/2;
 3/5=1,6=6,7=1,11=2,14=-4,25=1,30=1,74=-5,75=-5,116=-2,124=31/1,2,3;
 4/5=1/1;
 5/5=2,38=6/2;
 6/7=2,8=2,9=2,10=2,28=1/1;
 99/5=1,9=1/99;
 ------------------------------------------------------
 Candidate Structure: Conf:746 Charge calc in gas phase
 ------------------------------------------------------
 Structure from the checkpoint file:  "conf-746.chk"
 Charge =  1 Multiplicity = 1
 Redundant internal coordinates found in file.  (old form).
 N,0,9.9602733435,29.3828623896,12.4114764112
 C,0,9.9995631732,28.8743381796,10.9845107217
 C,0,11.402301905,28.9119531032,10.3066310759
 O,0,11.8708405286,27.8369451356,9.9616920036
 C,0,8.9754120354,29.5180887827,10.0287661812
 C,0,7.5352261422,28.9381615634,10.0161238226
 C,0,6.7641882653,29.2343522418,11.2782349768
 O,0,6.0746705865,30.2221494225,11.4543955882
 O,0,6.9486410727,28.3871803036,12.323460836
 H,0,7.333948232,27.5454074658,12.0211522256
 H,0,10.0550151045,30.4477032841,12.6465899661
 H,0,9.8141998805,27.8001055101,11.0651447241
 H,0,8.9406396733,30.5982276437,10.1540197406
 H,0,9.360759677,29.3550404804,9.0182535154
 H,0,7.5742473113,27.8574011176,9.82990331
 H,0,6.9937395617,29.4019457965,9.188477655
 H,0,9.0921506914,29.0847438424,12.8676728884
 H,0,10.7519103694,28.977292714,12.9495485055
 N,0,11.9121667207,30.1077267518,9.9104316417
 C,0,11.8441256361,31.4040264155,10.5717963803
 C,0,11.6861623481,32.4470037563,9.4502123944
 O,0,12.2904408885,32.293285783,8.3988529154
 C,0,13.1448665676,31.7100581888,11.4241291313
 C,0,13.8725215475,30.458488281,11.8141728994
 C,0,14.8744228755,29.8724427773,11.074015668
 C,0,13.5418664539,29.5175827849,12.8558045588
 C,0,14.3684664335,28.3727875802,12.667046197
 C,0,12.6466611514,29.5300867876,13.945594
 N,0,15.1781712461,28.6292106809,11.5843335232
 C,0,14.2875177426,27.2436721936,13.4889121909
 C,0,12.5565236731,28.3996537606,14.7576121052
 C,0,13.3616461295,27.2634103575,14.5245717206
 H,0,12.7222733872,30.0022854196,9.307165674
 H,0,10.9918465344,31.4087596894,11.2425706297
 H,0,12.8344480588,32.289335015,12.2994381799
 H,0,13.8086875869,32.337293417,10.8201232981
 H,0,15.3936188145,30.2533262091,10.2044140472
 H,0,15.8779899845,28.0031807767,11.2160125321
 H,0,12.0729711311,30.4251311453,14.1652600419
 H,0,14.9252108519,26.3803791307,13.3212115921
 H,0,11.886412554,28.4086140497,15.6138498681
 H,0,13.2755882781,26.4020460862,15.1802848395
 N,0,10.8905880456,33.5406493659,9.6719293099
 C,0,10.0538958833,33.7911177174,10.8289665443
 C,0,8.7377948805,32.9900856321,10.7427680284
 O,0,8.1764240504,32.8327239754,9.6544120143
 C,0,9.7529078444,35.3069775,11.0003201809
 C,0,9.086189575,35.9650304811,9.799154423
 O,0,8.8700175818,35.4686756152,12.1134802177
 H,0,9.3398987054,35.1427611073,12.9209286375
 H,0,10.7205185334,34.0785905317,8.8308887859
 H,0,10.6189506918,33.4983844246,11.7091491927
 H,0,10.7110295742,35.8027588082,11.2047910922
 H,0,8.809498498,36.9885484615,10.0666093085
 H,0,8.1886192149,35.4186239654,9.4910352994
 H,0,9.760515937,36.0190071993,8.9389460368
 N,0,8.2287854334,32.3540992203,11.8504952952
 C,0,8.3383246653,32.6802304986,13.2839566079
 C,0,9.8326114794,32.7777776152,13.6566033616
 O,0,10.2646642991,33.8875880695,14.0081144508
 C,0,7.5796929852,31.6071742446,14.1059705981
 C,0,6.5010702743,32.1349982685,15.0708609416
 C,0,5.5214422233,33.1834974243,14.4958636247
 N,0,5.1183981033,32.9374932571,13.0995088927
 C,0,5.5291224599,33.6350132111,12.0291277712
 N,0,6.0041233052,34.8930593771,12.1392319365
 N,0,5.416692511,33.0902456255,10.8083014269
 O,0,10.4984973085,31.7037548293,13.4761107843
 H,0,7.4033309133,31.8242889613,11.6023129581
 H,0,7.8995151433,33.6620039001,13.4591764421
 H,0,8.3017310814,31.0225968174,14.685400137
 H,0,7.0952022075,30.902648096,13.426304993
 H,0,5.9341015784,31.2733724548,15.4426872965
 H,0,6.9639441436,32.5972358185,15.950838004
 H,0,4.6174725656,33.2305599858,15.1098646359
 H,0,5.9788744061,34.1713631774,14.5436275965
 H,0,4.6728665593,32.046683759,12.906975729
 H,0,6.8935382386,35.1337285171,11.6921937347
 H,0,5.8915208133,35.3635642204,13.0261946458
 H,0,5.4397859527,32.0784734921,10.7144950748
 H,0,5.8071965942,33.5954817393,10.0218566934
 Recover connectivity data from disk.
                           ----------------------------
                           !    Current Parameters    !
                           ! (Angstroms and Degrees)  !
 --------------------------                            --------------------------
 ! Name  Definition              Value                                          !
 --------------------------------------------------------------------------------
 ! R1    R(1,2)                  1.5154                                         !
 ! R2    R(1,11)                 1.0946                                         !
 ! R3    R(1,17)                 1.025                                          !
 ! R4    R(1,18)                 1.0396                                         !
 ! R5    R(2,3)                  1.5584                                         !
 ! R6    R(2,5)                  1.5417                                         !
 ! R7    R(2,12)                 1.0931                                         !
 ! R8    R(3,4)                  1.2224                                         !
 ! R9    R(3,19)                 1.359                                          !
 ! R10   R(5,6)                  1.5526                                         !
 ! R11   R(5,13)                 1.0879                                         !
 ! R12   R(5,14)                 1.0937                                         !
 ! R13   R(6,7)                  1.5084                                         !
 ! R14   R(6,15)                 1.0974                                         !
 ! R15   R(6,16)                 1.0924                                         !
 ! R16   R(7,8)                  1.2175                                         !
 ! R17   R(7,9)                  1.358                                          !
 ! R18   R(9,10)                 0.9739                                         !
 ! R19   R(19,20)                1.4569                                         !
 ! R20   R(19,33)                1.0155                                         !
 ! R21   R(20,21)                1.5397                                         !
 ! R22   R(20,23)                1.5849                                         !
 ! R23   R(20,34)                1.0846                                         !
 ! R24   R(21,22)                1.2223                                         !
 ! R25   R(21,43)                1.3705                                         !
 ! R26   R(23,24)                1.4993                                         !
 ! R27   R(23,35)                1.0946                                         !
 ! R28   R(23,36)                1.0949                                         !
 ! R29   R(24,25)                1.3766                                         !
 ! R30   R(24,26)                1.4421                                         !
 ! R31   R(25,29)                1.3778                                         !
 ! R32   R(25,37)                1.0821                                         !
 ! R33   R(26,27)                1.4246                                         !
 ! R34   R(26,28)                1.4104                                         !
 ! R35   R(27,29)                1.3761                                         !
 ! R36   R(27,30)                1.3989                                         !
 ! R37   R(28,31)                1.3948                                         !
 ! R38   R(28,39)                1.0856                                         !
 ! R39   R(29,38)                1.0086                                         !
 ! R40   R(30,32)                1.3893                                         !
 ! R41   R(30,40)                1.0863                                         !
 ! R42   R(31,32)                1.4119                                         !
 ! R43   R(31,41)                1.0873                                         !
 ! R44   R(32,42)                1.086                                          !
 ! R45   R(43,44)                1.4497                                         !
 ! R46   R(43,51)                1.0127                                         !
 ! R47   R(44,45)                1.5431                                         !
 ! R48   R(44,47)                1.5549                                         !
 ! R49   R(44,52)                1.0861                                         !
 ! R50   R(45,46)                1.2347                                         !
 ! R51   R(45,57)                1.375                                          !
 ! R52   R(47,48)                1.5233                                         !
 ! R53   R(47,49)                1.43                                           !
 ! R54   R(47,53)                1.098                                          !
 ! R55   R(48,54)                1.0935                                         !
 ! R56   R(48,55)                1.095                                          !
 ! R57   R(48,56)                1.0943                                         !
 ! R58   R(49,50)                0.9894                                         !
 ! R59   R(57,58)                1.4742                                         !
 ! R60   R(57,69)                1.0118                                         !
 ! R61   R(58,59)                1.5431                                         !
 ! R62   R(58,61)                1.5501                                         !
 ! R63   R(58,70)                1.0896                                         !
 ! R64   R(59,60)                1.2417                                         !
 ! R65   R(59,68)                1.2765                                         !
 ! R66   R(61,62)                1.5405                                         !
 ! R67   R(61,71)                1.0949                                         !
 ! R68   R(61,72)                1.0923                                         !
 ! R69   R(62,63)                1.5458                                         !
 ! R70   R(62,73)                1.0964                                         !
 ! R71   R(62,74)                1.0965                                         !
 ! R72   R(63,64)                1.474                                          !
 ! R73   R(63,75)                1.0938                                         !
 ! R74   R(63,76)                1.0897                                         !
 ! R75   R(64,65)                1.342                                          !
 ! R76   R(64,77)                1.0145                                         !
 ! R77   R(65,66)                1.3492                                         !
 ! R78   R(65,67)                1.3416                                         !
 ! R79   R(66,78)                1.0241                                         !
 ! R80   R(66,79)                1.0103                                         !
 ! R81   R(67,80)                1.0164                                         !
 ! R82   R(67,81)                1.013                                          !
 ! A1    A(2,1,11)             121.7674                                         !
 ! A2    A(2,1,17)             110.0878                                         !
 ! A3    A(2,1,18)             109.6779                                         !
 ! A4    A(11,1,17)            105.1086                                         !
 ! A5    A(11,1,18)            101.6797                                         !
 ! A6    A(17,1,18)            107.5251                                         !
 ! A7    A(1,2,3)              115.1408                                         !
 ! A8    A(1,2,5)              115.2407                                         !
 ! A9    A(1,2,12)             104.8286                                         !
 ! A10   A(3,2,5)              108.555                                          !
 ! A11   A(3,2,12)             102.0314                                         !
 ! A12   A(5,2,12)             110.0868                                         !
 ! A13   A(2,3,4)              116.5221                                         !
 ! A14   A(2,3,19)             119.0625                                         !
 ! A15   A(4,3,19)             123.2134                                         !
 ! A16   A(2,5,6)              117.7289                                         !
 ! A17   A(2,5,13)             111.3728                                         !
 ! A18   A(2,5,14)             106.0498                                         !
 ! A19   A(6,5,13)             110.0067                                         !
 ! A20   A(6,5,14)             105.2844                                         !
 ! A21   A(13,5,14)            105.4051                                         !
 ! A22   A(5,6,7)              113.2037                                         !
 ! A23   A(5,6,15)             109.649                                          !
 ! A24   A(5,6,16)             107.9018                                         !
 ! A25   A(7,6,15)             110.7052                                         !
 ! A26   A(7,6,16)             107.2898                                         !
 ! A27   A(15,6,16)            107.8898                                         !
 ! A28   A(6,7,8)              124.7435                                         !
 ! A29   A(6,7,9)              116.8776                                         !
 ! A30   A(8,7,9)              118.1451                                         !
 ! A31   A(7,9,10)             110.7338                                         !
 ! A32   A(3,19,20)            129.2765                                         !
 ! A33   A(3,19,33)            112.4028                                         !
 ! A34   A(20,19,33)           113.5353                                         !
 ! A35   A(19,20,21)           106.0715                                         !
 ! A36   A(19,20,23)           112.1855                                         !
 ! A37   A(19,20,34)           108.7442                                         !
 ! A38   A(21,20,23)           110.1899                                         !
 ! A39   A(21,20,34)           111.5267                                         !
 ! A40   A(23,20,34)           108.1478                                         !
 ! A41   A(20,21,22)           119.3825                                         !
 ! A42   A(20,21,43)           118.8339                                         !
 ! A43   A(22,21,43)           121.7686                                         !
 ! A44   A(20,23,24)           112.1485                                         !
 ! A45   A(20,23,35)           107.4267                                         !
 ! A46   A(20,23,36)           108.1501                                         !
 ! A47   A(24,23,35)           111.8002                                         !
 ! A48   A(24,23,36)           109.1144                                         !
 ! A49   A(35,23,36)           108.0531                                         !
 ! A50   A(23,24,25)           124.6598                                         !
 ! A51   A(23,24,26)           128.4082                                         !
 ! A52   A(25,24,26)           106.1094                                         !
 ! A53   A(24,25,29)           110.2088                                         !
 ! A54   A(24,25,37)           129.1579                                         !
 ! A55   A(29,25,37)           120.6309                                         !
 ! A56   A(24,26,27)           107.1915                                         !
 ! A57   A(24,26,28)           134.2561                                         !
 ! A58   A(27,26,28)           118.5416                                         !
 ! A59   A(26,27,29)           107.213                                          !
 ! A60   A(26,27,30)           122.4932                                         !
 ! A61   A(29,27,30)           130.2937                                         !
 ! A62   A(26,28,31)           118.9263                                         !
 ! A63   A(26,28,39)           119.94                                           !
 ! A64   A(31,28,39)           121.0826                                         !
 ! A65   A(25,29,27)           109.2593                                         !
 ! A66   A(25,29,38)           125.2937                                         !
 ! A67   A(27,29,38)           125.4448                                         !
 ! A68   A(27,30,32)           117.7134                                         !
 ! A69   A(27,30,40)           121.1164                                         !
 ! A70   A(32,30,40)           121.17                                           !
 ! A71   A(28,31,32)           121.2843                                         !
 ! A72   A(28,31,41)           119.4463                                         !
 ! A73   A(32,31,41)           119.2111                                         !
 ! A74   A(30,32,31)           120.9624                                         !
 ! A75   A(30,32,42)           119.4488                                         !
 ! A76   A(31,32,42)           119.568                                          !
 ! A77   A(21,43,44)           127.0174                                         !
 ! A78   A(21,43,51)           112.7688                                         !
 ! A79   A(44,43,51)           118.3024                                         !
 ! A80   A(43,44,45)           110.9763                                         !
 ! A81   A(43,44,47)           111.5994                                         !
 ! A82   A(43,44,52)           107.4555                                         !
 ! A83   A(45,44,47)           110.3113                                         !
 ! A84   A(45,44,52)           110.4303                                         !
 ! A85   A(47,44,52)           105.9111                                         !
 ! A86   A(44,45,46)           120.2108                                         !
 ! A87   A(44,45,57)           120.719                                          !
 ! A88   A(46,45,57)           118.8738                                         !
 ! A89   A(44,47,48)           114.7698                                         !
 ! A90   A(44,47,49)           108.3935                                         !
 ! A91   A(44,47,53)           106.9656                                         !
 ! A92   A(48,47,49)           107.1431                                         !
 ! A93   A(48,47,53)           109.4943                                         !
 ! A94   A(49,47,53)           110.0442                                         !
 ! A95   A(47,48,54)           108.7987                                         !
 ! A96   A(47,48,55)           111.4122                                         !
 ! A97   A(47,48,56)           111.8046                                         !
 ! A98   A(54,48,55)           109.1761                                         !
 ! A99   A(54,48,56)           107.5787                                         !
 ! A100  A(55,48,56)           107.9693                                         !
 ! A101  A(47,49,50)           107.747                                          !
 ! A102  A(45,57,58)           130.809                                          !
 ! A103  A(45,57,69)           110.2802                                         !
 ! A104  A(58,57,69)           114.5189                                         !
 ! A105  A(57,58,59)           108.7087                                         !
 ! A106  A(57,58,61)           109.0353                                         !
 ! A107  A(57,58,70)           109.0138                                         !
 ! A108  A(59,58,61)           112.9312                                         !
 ! A109  A(59,58,70)           107.1093                                         !
 ! A110  A(61,58,70)           109.9617                                         !
 ! A111  A(58,59,60)           117.5024                                         !
 ! A112  A(58,59,68)           114.6956                                         !
 ! A113  A(60,59,68)           127.6258                                         !
 ! A114  A(58,61,62)           115.9546                                         !
 ! A115  A(58,61,71)           109.1172                                         !
 ! A116  A(58,61,72)           109.489                                          !
 ! A117  A(62,61,71)           108.2527                                         !
 ! A118  A(62,61,72)           107.4686                                         !
 ! A119  A(71,61,72)           106.1072                                         !
 ! A120  A(61,62,63)           116.3044                                         !
 ! A121  A(61,62,73)           107.7721                                         !
 ! A122  A(61,62,74)           110.5819                                         !
 ! A123  A(63,62,73)           109.3578                                         !
 ! A124  A(63,62,74)           106.2663                                         !
 ! A125  A(73,62,74)           106.1063                                         !
 ! A126  A(62,63,64)           114.3582                                         !
 ! A127  A(62,63,75)           110.1282                                         !
 ! A128  A(62,63,76)           109.4245                                         !
 ! A129  A(64,63,75)           108.2385                                         !
 ! A130  A(64,63,76)           107.9149                                         !
 ! A131  A(75,63,76)           106.4586                                         !
 ! A132  A(63,64,65)           125.8132                                         !
 ! A133  A(63,64,77)           116.5147                                         !
 ! A134  A(65,64,77)           116.069                                          !
 ! A135  A(64,65,66)           121.8229                                         !
 ! A136  A(64,65,67)           119.282                                          !
 ! A137  A(66,65,67)           118.8413                                         !
 ! A138  A(65,66,78)           119.2908                                         !
 ! A139  A(65,66,79)           117.8156                                         !
 ! A140  A(78,66,79)           111.7504                                         !
 ! A141  A(65,67,80)           119.0984                                         !
 ! A142  A(65,67,81)           118.1398                                         !
 ! A143  A(80,67,81)           114.5864                                         !
 ! D1    D(11,1,2,3)            72.4854                                         !
 ! D2    D(11,1,2,5)           -55.0941                                         !
 ! D3    D(11,1,2,12)         -176.2645                                         !
 ! D4    D(17,1,2,3)          -163.9488                                         !
 ! D5    D(17,1,2,5)            68.4717                                         !
 ! D6    D(17,1,2,12)          -52.6987                                         !
 ! D7    D(18,1,2,3)           -45.8303                                         !
 ! D8    D(18,1,2,5)          -173.4098                                         !
 ! D9    D(18,1,2,12)           65.4198                                         !
 ! D10   D(1,2,3,4)            118.0648                                         !
 ! D11   D(1,2,3,19)           -74.0542                                         !
 ! D12   D(5,2,3,4)           -111.061                                          !
 ! D13   D(5,2,3,19)            56.8201                                         !
 ! D14   D(12,2,3,4)             5.1674                                         !
 ! D15   D(12,2,3,19)          173.0485                                         !
 ! D16   D(1,2,5,6)            -83.5855                                         !
 ! D17   D(1,2,5,13)            44.7874                                         !
 ! D18   D(1,2,5,14)           158.9555                                         !
 ! D19   D(3,2,5,6)            145.5946                                         !
 ! D20   D(3,2,5,13)           -86.0325                                         !
 ! D21   D(3,2,5,14)            28.1356                                         !
 ! D22   D(12,2,5,6)            34.6868                                         !
 ! D23   D(12,2,5,13)          163.0597                                         !
 ! D24   D(12,2,5,14)          -82.7722                                         !
 ! D25   D(2,3,19,20)           39.0394                                         !
 ! D26   D(2,3,19,33)         -167.4424                                         !
 ! D27   D(4,3,19,20)         -153.9357                                         !
 ! D28   D(4,3,19,33)           -0.4175                                         !
 ! D29   D(2,5,6,7)             69.8331                                         !
 ! D30   D(2,5,6,15)           -54.3279                                         !
 ! D31   D(2,5,6,16)          -171.5933                                         !
 ! D32   D(13,5,6,7)           -59.1839                                         !
 ! D33   D(13,5,6,15)          176.6551                                         !
 ! D34   D(13,5,6,16)           59.3897                                         !
 ! D35   D(14,5,6,7)          -172.2983                                         !
 ! D36   D(14,5,6,15)           63.5407                                         !
 ! D37   D(14,5,6,16)          -53.7247                                         !
 ! D38   D(5,6,7,8)             89.7397                                         !
 ! D39   D(5,6,7,9)            -84.5848                                         !
 ! D40   D(15,6,7,8)          -146.6775                                         !
 ! D41   D(15,6,7,9)            38.998                                          !
 ! D42   D(16,6,7,8)           -29.1877                                         !
 ! D43   D(16,6,7,9)           156.4878                                         !
 ! D44   D(6,7,9,10)           -18.355                                          !
 ! D45   D(8,7,9,10)           166.9328                                         !
 ! D46   D(3,19,20,21)        -143.077                                          !
 ! D47   D(3,19,20,23)          96.5669                                         !
 ! D48   D(3,19,20,34)         -23.0102                                         !
 ! D49   D(33,19,20,21)         63.6453                                         !
 ! D50   D(33,19,20,23)        -56.7109                                         !
 ! D51   D(33,19,20,34)       -176.288                                          !
 ! D52   D(19,20,21,22)        -37.8366                                         !
 ! D53   D(19,20,21,43)        143.5503                                         !
 ! D54   D(23,20,21,22)         83.807                                          !
 ! D55   D(23,20,21,43)        -94.806                                          !
 ! D56   D(34,20,21,22)       -156.0741                                         !
 ! D57   D(34,20,21,43)         25.3128                                         !
 ! D58   D(19,20,23,24)        -22.9625                                         !
 ! D59   D(19,20,23,35)       -146.1935                                         !
 ! D60   D(19,20,23,36)         97.4015                                         !
 ! D61   D(21,20,23,24)       -140.8997                                         !
 ! D62   D(21,20,23,35)         95.8693                                         !
 ! D63   D(21,20,23,36)        -20.5357                                         !
 ! D64   D(34,20,23,24)         96.9626                                         !
 ! D65   D(34,20,23,35)        -26.2683                                         !
 ! D66   D(34,20,23,36)       -142.6733                                         !
 ! D67   D(20,21,43,44)         -6.0991                                         !
 ! D68   D(20,21,43,51)       -169.9354                                         !
 ! D69   D(22,21,43,44)        175.3224                                         !
 ! D70   D(22,21,43,51)         11.486                                          !
 ! D71   D(20,23,24,25)         90.8686                                         !
 ! D72   D(20,23,24,26)        -77.2691                                         !
 ! D73   D(35,23,24,25)       -148.397                                          !
 ! D74   D(35,23,24,26)         43.4652                                         !
 ! D75   D(36,23,24,25)        -28.9341                                         !
 ! D76   D(36,23,24,26)        162.9281                                         !
 ! D77   D(23,24,25,29)       -169.9702                                         !
 ! D78   D(23,24,25,37)          9.4555                                         !
 ! D79   D(26,24,25,29)          0.378                                          !
 ! D80   D(26,24,25,37)        179.8037                                         !
 ! D81   D(23,24,26,27)        168.786                                          !
 ! D82   D(23,24,26,28)        -12.4744                                         !
 ! D83   D(25,24,26,27)         -1.0776                                         !
 ! D84   D(25,24,26,28)        177.662                                          !
 ! D85   D(24,25,29,27)          0.4982                                         !
 ! D86   D(24,25,29,38)        179.9694                                         !
 ! D87   D(37,25,29,27)       -178.9843                                         !
 ! D88   D(37,25,29,38)          0.4869                                         !
 ! D89   D(24,26,27,29)          1.3815                                         !
 ! D90   D(24,26,27,30)       -178.4583                                         !
 ! D91   D(28,26,27,29)       -177.5909                                         !
 ! D92   D(28,26,27,30)          2.5693                                         !
 ! D93   D(24,26,28,31)        178.2911                                         !
 ! D94   D(24,26,28,39)         -4.2807                                         !
 ! D95   D(27,26,28,31)         -3.0796                                         !
 ! D96   D(27,26,28,39)        174.3486                                         !
 ! D97   D(26,27,29,25)         -1.1705                                         !
 ! D98   D(26,27,29,38)        179.3592                                         !
 ! D99   D(30,27,29,25)        178.6523                                         !
 ! D100  D(30,27,29,38)         -0.8179                                         !
 ! D101  D(26,27,30,32)         -0.2005                                         !
 ! D102  D(26,27,30,40)        179.6535                                         !
 ! D103  D(29,27,30,32)       -179.9999                                         !
 ! D104  D(29,27,30,40)         -0.1459                                         !
 ! D105  D(26,28,31,32)          1.3678                                         !
 ! D106  D(26,28,31,41)        178.5677                                         !
 ! D107  D(39,28,31,32)       -176.0299                                         !
 ! D108  D(39,28,31,41)          1.17                                           !
 ! D109  D(27,30,32,31)         -1.6175                                         !
 ! D110  D(27,30,32,42)       -179.9551                                         !
 ! D111  D(40,30,32,31)        178.5286                                         !
 ! D112  D(40,30,32,42)          0.1909                                         !
 ! D113  D(28,31,32,30)          1.0577                                         !
 ! D114  D(28,31,32,42)        179.3934                                         !
 ! D115  D(41,31,32,30)       -176.1486                                         !
 ! D116  D(41,31,32,42)          2.187                                          !
 ! D117  D(21,43,44,45)        -78.8871                                         !
 ! D118  D(21,43,44,47)        157.6344                                         !
 ! D119  D(21,43,44,52)         41.9397                                         !
 ! D120  D(51,43,44,45)         84.1628                                         !
 ! D121  D(51,43,44,47)        -39.3157                                         !
 ! D122  D(51,43,44,52)       -155.0105                                         !
 ! D123  D(43,44,45,46)        -37.1341                                         !
 ! D124  D(43,44,45,57)        137.7175                                         !
 ! D125  D(47,44,45,46)         87.08                                           !
 ! D126  D(47,44,45,57)        -98.0684                                         !
 ! D127  D(52,44,45,46)       -156.1879                                         !
 ! D128  D(52,44,45,57)         18.6637                                         !
 ! D129  D(43,44,47,48)         57.2797                                         !
 ! D130  D(43,44,47,49)        176.9851                                         !
 ! D131  D(43,44,47,53)        -64.3896                                         !
 ! D132  D(45,44,47,48)        -66.5749                                         !
 ! D133  D(45,44,47,49)         53.1305                                         !
 ! D134  D(45,44,47,53)        171.7558                                         !
 ! D135  D(52,44,47,48)        173.9166                                         !
 ! D136  D(52,44,47,49)        -66.378                                          !
 ! D137  D(52,44,47,53)         52.2472                                         !
 ! D138  D(44,45,57,58)         29.4911                                         !
 ! D139  D(44,45,57,69)       -175.8761                                         !
 ! D140  D(46,45,57,58)       -155.5894                                         !
 ! D141  D(46,45,57,69)         -0.9567                                         !
 ! D142  D(44,47,48,54)        173.1543                                         !
 ! D143  D(44,47,48,55)         52.7437                                         !
 ! D144  D(44,47,48,56)        -68.1734                                         !
 ! D145  D(49,47,48,54)         52.7564                                         !
 ! D146  D(49,47,48,55)        -67.6543                                         !
 ! D147  D(49,47,48,56)        171.4287                                         !
 ! D148  D(53,47,48,54)        -66.5639                                         !
 ! D149  D(53,47,48,55)        173.0255                                         !
 ! D150  D(53,47,48,56)         52.1085                                         !
 ! D151  D(44,47,49,50)         62.3578                                         !
 ! D152  D(48,47,49,50)       -173.2655                                         !
 ! D153  D(53,47,49,50)        -54.2997                                         !
 ! D154  D(45,57,58,59)        -55.8163                                         !
 ! D155  D(45,57,58,61)       -179.3204                                         !
 ! D156  D(45,57,58,70)         60.6218                                         !
 ! D157  D(69,57,58,59)        150.3954                                         !
 ! D158  D(69,57,58,61)         26.8914                                         !
 ! D159  D(69,57,58,70)        -93.1664                                         !
 ! D160  D(57,58,59,60)        114.6747                                         !
 ! D161  D(57,58,59,68)        -60.872                                          !
 ! D162  D(61,58,59,60)       -124.1833                                         !
 ! D163  D(61,58,59,68)         60.27                                           !
 ! D164  D(70,58,59,60)         -2.98                                           !
 ! D165  D(70,58,59,68)       -178.5267                                         !
 ! D166  D(57,58,61,62)       -125.212                                          !
 ! D167  D(57,58,61,71)        112.2819                                         !
 ! D168  D(57,58,61,72)         -3.4488                                         !
 ! D169  D(59,58,61,62)        113.8315                                         !
 ! D170  D(59,58,61,71)         -8.6746                                         !
 ! D171  D(59,58,61,72)       -124.4054                                         !
 ! D172  D(70,58,61,62)         -5.7407                                         !
 ! D173  D(70,58,61,71)       -128.2469                                         !
 ! D174  D(70,58,61,72)        116.0224                                         !
 ! D175  D(58,61,62,63)         46.915                                          !
 ! D176  D(58,61,62,73)        170.0579                                         !
 ! D177  D(58,61,62,74)        -74.3762                                         !
 ! D178  D(71,61,62,63)        169.876                                          !
 ! D179  D(71,61,62,73)        -66.9811                                         !
 ! D180  D(71,61,62,74)         48.5847                                         !
 ! D181  D(72,61,62,63)        -75.9164                                         !
 ! D182  D(72,61,62,73)         47.2265                                         !
 ! D183  D(72,61,62,74)        162.7924                                         !
 ! D184  D(61,62,63,64)         38.1908                                         !
 ! D185  D(61,62,63,75)        160.3203                                         !
 ! D186  D(61,62,63,76)        -82.9869                                         !
 ! D187  D(73,62,63,64)        -84.1234                                         !
 ! D188  D(73,62,63,75)         38.0061                                         !
 ! D189  D(73,62,63,76)        154.6989                                         !
 ! D190  D(74,62,63,64)        161.7461                                         !
 ! D191  D(74,62,63,75)        -76.1244                                         !
 ! D192  D(74,62,63,76)         40.5684                                         !
 ! D193  D(62,63,64,65)       -106.8331                                         !
 ! D194  D(62,63,64,77)         58.0961                                         !
 ! D195  D(75,63,64,65)        130.011                                          !
 ! D196  D(75,63,64,77)        -65.0597                                         !
 ! D197  D(76,63,64,65)         15.1739                                         !
 ! D198  D(76,63,64,77)       -179.8968                                         !
 ! D199  D(63,64,65,66)        -22.2506                                         !
 ! D200  D(63,64,65,67)        160.4475                                         !
 ! D201  D(77,64,65,66)        172.761                                          !
 ! D202  D(77,64,65,67)         -4.5409                                         !
 ! D203  D(64,65,66,78)        130.1813                                         !
 ! D204  D(64,65,66,79)        -10.7464                                         !
 ! D205  D(67,65,66,78)        -52.5053                                         !
 ! D206  D(67,65,66,79)        166.567                                          !
 ! D207  D(64,65,67,80)        -27.7145                                         !
 ! D208  D(64,65,67,81)       -174.6083                                         !
 ! D209  D(66,65,67,80)        154.9026                                         !
 ! D210  D(66,65,67,81)          8.0088                                         !
 --------------------------------------------------------------------------------
 Symmetry turned off by external request.
 Stoichiometry    C26H39N8O8(1+)
 Framework group  C1[X(C26H39N8O8)]
 Deg. of freedom   237
 Full point group                 C1      NOp   1
                          Input orientation:                          
 ---------------------------------------------------------------------
 Center     Atomic      Atomic             Coordinates (Angstroms)
 Number     Number       Type             X           Y           Z
 ---------------------------------------------------------------------
      1          7           0        9.960273   29.382862   12.411476
      2          6           0        9.999563   28.874338   10.984511
      3          6           0       11.402302   28.911953   10.306631
      4          8           0       11.870841   27.836945    9.961692
      5          6           0        8.975412   29.518089   10.028766
      6          6           0        7.535226   28.938162   10.016124
      7          6           0        6.764188   29.234352   11.278235
      8          8           0        6.074671   30.222149   11.454396
      9          8           0        6.948641   28.387180   12.323461
     10          1           0        7.333948   27.545407   12.021152
     11          1           0       10.055015   30.447703   12.646590
     12          1           0        9.814200   27.800106   11.065145
     13          1           0        8.940640   30.598228   10.154020
     14          1           0        9.360760   29.355040    9.018254
     15          1           0        7.574247   27.857401    9.829903
     16          1           0        6.993740   29.401946    9.188478
     17          1           0        9.092151   29.084744   12.867673
     18          1           0       10.751910   28.977293   12.949549
     19          7           0       11.912167   30.107727    9.910432
     20          6           0       11.844126   31.404026   10.571796
     21          6           0       11.686162   32.447004    9.450212
     22          8           0       12.290441   32.293286    8.398853
     23          6           0       13.144867   31.710058   11.424129
     24          6           0       13.872522   30.458488   11.814173
     25          6           0       14.874423   29.872443   11.074016
     26          6           0       13.541866   29.517583   12.855805
     27          6           0       14.368466   28.372788   12.667046
     28          6           0       12.646661   29.530087   13.945594
     29          7           0       15.178171   28.629211   11.584334
     30          6           0       14.287518   27.243672   13.488912
     31          6           0       12.556524   28.399654   14.757612
     32          6           0       13.361646   27.263410   14.524572
     33          1           0       12.722273   30.002285    9.307166
     34          1           0       10.991847   31.408760   11.242571
     35          1           0       12.834448   32.289335   12.299438
     36          1           0       13.808688   32.337293   10.820123
     37          1           0       15.393619   30.253326   10.204414
     38          1           0       15.877990   28.003181   11.216013
     39          1           0       12.072971   30.425131   14.165260
     40          1           0       14.925211   26.380379   13.321212
     41          1           0       11.886413   28.408614   15.613850
     42          1           0       13.275588   26.402046   15.180285
     43          7           0       10.890588   33.540649    9.671929
     44          6           0       10.053896   33.791118   10.828967
     45          6           0        8.737795   32.990086   10.742768
     46          8           0        8.176424   32.832724    9.654412
     47          6           0        9.752908   35.306977   11.000320
     48          6           0        9.086190   35.965030    9.799154
     49          8           0        8.870018   35.468676   12.113480
     50          1           0        9.339899   35.142761   12.920929
     51          1           0       10.720519   34.078591    8.830889
     52          1           0       10.618951   33.498384   11.709149
     53          1           0       10.711030   35.802759   11.204791
     54          1           0        8.809498   36.988548   10.066609
     55          1           0        8.188619   35.418624    9.491035
     56          1           0        9.760516   36.019007    8.938946
     57          7           0        8.228785   32.354099   11.850495
     58          6           0        8.338325   32.680230   13.283957
     59          6           0        9.832611   32.777778   13.656603
     60          8           0       10.264664   33.887588   14.008114
     61          6           0        7.579693   31.607174   14.105971
     62          6           0        6.501070   32.134998   15.070861
     63          6           0        5.521442   33.183497   14.495864
     64          7           0        5.118398   32.937493   13.099509
     65          6           0        5.529122   33.635013   12.029128
     66          7           0        6.004123   34.893059   12.139232
     67          7           0        5.416693   33.090246   10.808301
     68          8           0       10.498497   31.703755   13.476111
     69          1           0        7.403331   31.824289   11.602313
     70          1           0        7.899515   33.662004   13.459176
     71          1           0        8.301731   31.022597   14.685400
     72          1           0        7.095202   30.902648   13.426305
     73          1           0        5.934102   31.273372   15.442687
     74          1           0        6.963944   32.597236   15.950838
     75          1           0        4.617473   33.230560   15.109865
     76          1           0        5.978874   34.171363   14.543628
     77          1           0        4.672867   32.046684   12.906976
     78          1           0        6.893538   35.133729   11.692194
     79          1           0        5.891521   35.363564   13.026195
     80          1           0        5.439786   32.078473   10.714495
     81          1           0        5.807197   33.595482   10.021857
 ---------------------------------------------------------------------
 Rotational constants (GHZ):           0.1314807           0.0666090           0.0600327
 Standard basis: 6-31G(d) (6D, 7F)
   708 basis functions,  1332 primitive gaussians,   708 cartesian basis functions
   157 alpha electrons      157 beta electrons
       nuclear repulsion energy      5887.1581816029 Hartrees.
 NAtoms=   81 NActive=   81 NUniq=   81 SFac= 1.00D+00 NAtFMM=   60 NAOKFM=T Big=T
 Integral buffers will be    131072 words long.
 Raffenetti 2 integral format.
 Two-electron integral symmetry is turned off.
 Nuclear repulsion after empirical dispersion term =     5887.0154841418 Hartrees.
 One-electron integrals computed using PRISM.
 NBasis=   708 RedAO= T EigKep=  3.66D-04  NBF=   708
 NBsUse=   708 1.00D-06 EigRej= -1.00D+00 NBFU=   708
 Initial guess from the checkpoint file:  "conf-746.chk"
 B after Tr=     0.000000    0.000000    0.000000
         Rot=    1.000000    0.000000    0.000000    0.000000 Ang=   0.00 deg.
 Requested convergence on RMS density matrix=1.00D-08 within 128 cycles.
 Requested convergence on MAX density matrix=1.00D-06.
 Requested convergence on             energy=1.00D-06.
 No special actions if energy rises.
 SCF Done:  E(RB3LYP) =  -2054.03923094     A.U. after    1 cycles
            NFock=  1  Conv=0.93D-08     -V/T= 2.0092

 **********************************************************************

            Population analysis using the SCF Density.

 **********************************************************************

 Alpha  occ. eigenvalues --  -19.35561 -19.30074 -19.24932 -19.23457 -19.21720
 Alpha  occ. eigenvalues --  -19.20848 -19.20210 -19.19796 -14.54510 -14.52284
 Alpha  occ. eigenvalues --  -14.50541 -14.49857 -14.47437 -14.45684 -14.45462
 Alpha  occ. eigenvalues --  -14.45352 -10.48080 -10.47555 -10.40335 -10.39773
 Alpha  occ. eigenvalues --  -10.37966 -10.37955 -10.37802 -10.36496 -10.34684
 Alpha  occ. eigenvalues --  -10.34593 -10.33566 -10.33490 -10.33466 -10.33091
 Alpha  occ. eigenvalues --  -10.31375 -10.30809 -10.29674 -10.29622 -10.27743
 Alpha  occ. eigenvalues --  -10.27410 -10.26720 -10.26374 -10.26347 -10.26228
 Alpha  occ. eigenvalues --  -10.26082 -10.26059  -1.25985  -1.17760  -1.16113
 Alpha  occ. eigenvalues --   -1.15345  -1.14059  -1.13666  -1.12439  -1.11959
 Alpha  occ. eigenvalues --   -1.09589  -1.05676  -1.05596  -1.05002  -1.03694
 Alpha  occ. eigenvalues --   -1.03341  -1.02223  -1.01889  -0.94340  -0.91953
 Alpha  occ. eigenvalues --   -0.91666  -0.88510  -0.87241  -0.86692  -0.86119
 Alpha  occ. eigenvalues --   -0.84106  -0.81630  -0.81345  -0.80193  -0.79872
 Alpha  occ. eigenvalues --   -0.78482  -0.77527  -0.76310  -0.75257  -0.73191
 Alpha  occ. eigenvalues --   -0.72593  -0.71981  -0.71550  -0.70044  -0.69439
 Alpha  occ. eigenvalues --   -0.68693  -0.68059  -0.67647  -0.66963  -0.66136
 Alpha  occ. eigenvalues --   -0.65563  -0.65250  -0.64537  -0.64064  -0.63790
 Alpha  occ. eigenvalues --   -0.63525  -0.62470  -0.61924  -0.61492  -0.61410
 Alpha  occ. eigenvalues --   -0.61178  -0.60217  -0.59813  -0.58799  -0.58557
 Alpha  occ. eigenvalues --   -0.57737  -0.57243  -0.56885  -0.56500  -0.55945
 Alpha  occ. eigenvalues --   -0.55206  -0.54968  -0.54683  -0.54518  -0.54300
 Alpha  occ. eigenvalues --   -0.53661  -0.53456  -0.53052  -0.52693  -0.52233
 Alpha  occ. eigenvalues --   -0.51692  -0.51089  -0.50897  -0.50288  -0.49816
 Alpha  occ. eigenvalues --   -0.49784  -0.49409  -0.49322  -0.49146  -0.48866
 Alpha  occ. eigenvalues --   -0.48419  -0.48114  -0.47907  -0.47506  -0.47420
 Alpha  occ. eigenvalues --   -0.47198  -0.47005  -0.46459  -0.46307  -0.45430
 Alpha  occ. eigenvalues --   -0.45070  -0.44904  -0.43461  -0.43240  -0.42750
 Alpha  occ. eigenvalues --   -0.42006  -0.41450  -0.40830  -0.40654  -0.38389
 Alpha  occ. eigenvalues --   -0.38105  -0.37031  -0.36122  -0.35948  -0.35554
 Alpha  occ. eigenvalues --   -0.35175  -0.34858  -0.34417  -0.33530  -0.33239
 Alpha  occ. eigenvalues --   -0.30234  -0.28150
 Alpha virt. eigenvalues --   -0.15940  -0.13199  -0.11160  -0.10642  -0.09499
 Alpha virt. eigenvalues --   -0.09020  -0.07351  -0.06954  -0.06136  -0.05500
 Alpha virt. eigenvalues --   -0.04606  -0.03481  -0.03261  -0.01842  -0.01571
 Alpha virt. eigenvalues --   -0.00413  -0.00304   0.00173   0.00627   0.00808
 Alpha virt. eigenvalues --    0.01072   0.01293   0.01679   0.01939   0.02106
 Alpha virt. eigenvalues --    0.02550   0.02822   0.02902   0.03271   0.03659
 Alpha virt. eigenvalues --    0.03926   0.04757   0.05210   0.05458   0.05902
 Alpha virt. eigenvalues --    0.06206   0.06679   0.06848   0.07122   0.07564
 Alpha virt. eigenvalues --    0.08062   0.08202   0.08521   0.08864   0.09170
 Alpha virt. eigenvalues --    0.09486   0.09930   0.10256   0.10605   0.10698
 Alpha virt. eigenvalues --    0.11172   0.11781   0.12150   0.12320   0.12684
 Alpha virt. eigenvalues --    0.12944   0.13722   0.14128   0.14393   0.14857
 Alpha virt. eigenvalues --    0.15105   0.15755   0.15946   0.16251   0.17032
 Alpha virt. eigenvalues --    0.17828   0.17986   0.18578   0.19321   0.19484
 Alpha virt. eigenvalues --    0.19894   0.20346   0.20526   0.22136   0.23013
 Alpha virt. eigenvalues --    0.23554   0.24181   0.24724   0.26242   0.26580
 Alpha virt. eigenvalues --    0.27561   0.27656   0.28379   0.29127   0.30235
 Alpha virt. eigenvalues --    0.31246   0.31534   0.32354   0.34360   0.34688
 Alpha virt. eigenvalues --    0.35477   0.36284   0.37251   0.37789   0.38589
 Alpha virt. eigenvalues --    0.39536   0.39759   0.40587   0.41499   0.41705
 Alpha virt. eigenvalues --    0.41843   0.42967   0.43435   0.44035   0.44469
 Alpha virt. eigenvalues --    0.44727   0.44950   0.45465   0.45598   0.46011
 Alpha virt. eigenvalues --    0.46550   0.46590   0.47406   0.47830   0.48169
 Alpha virt. eigenvalues --    0.48402   0.48639   0.48844   0.49285   0.49811
 Alpha virt. eigenvalues --    0.50113   0.50910   0.51198   0.51411   0.51568
 Alpha virt. eigenvalues --    0.52306   0.52413   0.52844   0.53158   0.53489
 Alpha virt. eigenvalues --    0.53886   0.54419   0.54746   0.54908   0.55075
 Alpha virt. eigenvalues --    0.55686   0.55713   0.56556   0.56770   0.57503
 Alpha virt. eigenvalues --    0.58036   0.58464   0.58628   0.58791   0.59408
 Alpha virt. eigenvalues --    0.60136   0.60567   0.61183   0.61217   0.62098
 Alpha virt. eigenvalues --    0.62336   0.63290   0.63557   0.63661   0.64722
 Alpha virt. eigenvalues --    0.66107   0.66873   0.67308   0.67734   0.68247
 Alpha virt. eigenvalues --    0.68625   0.69141   0.69364   0.69658   0.70454
 Alpha virt. eigenvalues --    0.70752   0.71714   0.72151   0.72277   0.72884
 Alpha virt. eigenvalues --    0.73163   0.73492   0.73785   0.74202   0.74666
 Alpha virt. eigenvalues --    0.74888   0.75095   0.75689   0.75964   0.76358
 Alpha virt. eigenvalues --    0.76952   0.77383   0.77587   0.77868   0.78239
 Alpha virt. eigenvalues --    0.78320   0.78377   0.78803   0.79496   0.79788
 Alpha virt. eigenvalues --    0.80178   0.80346   0.80792   0.80947   0.81281
 Alpha virt. eigenvalues --    0.81428   0.81920   0.82387   0.82903   0.83017
 Alpha virt. eigenvalues --    0.83303   0.84264   0.84515   0.84744   0.84938
 Alpha virt. eigenvalues --    0.85142   0.85388   0.86267   0.86707   0.87252
 Alpha virt. eigenvalues --    0.87650   0.88205   0.88724   0.89597   0.89739
 Alpha virt. eigenvalues --    0.90148   0.90451   0.90967   0.91550   0.91879
 Alpha virt. eigenvalues --    0.92885   0.93390   0.93599   0.94477   0.94644
 Alpha virt. eigenvalues --    0.94909   0.96078   0.96191   0.97584   0.98337
 Alpha virt. eigenvalues --    0.98680   1.00088   1.00854   1.01265   1.01875
 Alpha virt. eigenvalues --    1.02219   1.02653   1.03146   1.04275   1.04638
 Alpha virt. eigenvalues --    1.04799   1.04843   1.05943   1.06794   1.07657
 Alpha virt. eigenvalues --    1.07977   1.09180   1.09696   1.10483   1.11207
 Alpha virt. eigenvalues --    1.12492   1.12506   1.13664   1.14296   1.14812
 Alpha virt. eigenvalues --    1.15135   1.16504   1.16668   1.17575   1.18839
 Alpha virt. eigenvalues --    1.19820   1.20180   1.20971   1.21429   1.22499
 Alpha virt. eigenvalues --    1.22973   1.23620   1.24953   1.25227   1.25633
 Alpha virt. eigenvalues --    1.26145   1.26390   1.26770   1.27803   1.27959
 Alpha virt. eigenvalues --    1.28823   1.29477   1.30525   1.31828   1.32397
 Alpha virt. eigenvalues --    1.32669   1.33955   1.34628   1.34886   1.35206
 Alpha virt. eigenvalues --    1.35863   1.36205   1.37637   1.38064   1.38870
 Alpha virt. eigenvalues --    1.39530   1.40034   1.40810   1.42090   1.42224
 Alpha virt. eigenvalues --    1.42794   1.43168   1.44061   1.44736   1.45591
 Alpha virt. eigenvalues --    1.46011   1.46348   1.47275   1.48976   1.49178
 Alpha virt. eigenvalues --    1.50629   1.51101   1.51788   1.52626   1.53332
 Alpha virt. eigenvalues --    1.53985   1.54413   1.54857   1.55707   1.56346
 Alpha virt. eigenvalues --    1.57787   1.58113   1.59133   1.59571   1.60368
 Alpha virt. eigenvalues --    1.60899   1.61576   1.62150   1.63184   1.63339
 Alpha virt. eigenvalues --    1.64586   1.64941   1.65817   1.66292   1.67160
 Alpha virt. eigenvalues --    1.67707   1.68024   1.68554   1.69485   1.70839
 Alpha virt. eigenvalues --    1.70929   1.71139   1.72125   1.72878   1.73529
 Alpha virt. eigenvalues --    1.73731   1.73785   1.74787   1.75549   1.76155
 Alpha virt. eigenvalues --    1.76531   1.76875   1.77252   1.77666   1.78158
 Alpha virt. eigenvalues --    1.78604   1.79065   1.79500   1.80237   1.80720
 Alpha virt. eigenvalues --    1.81251   1.81640   1.81762   1.82258   1.82930
 Alpha virt. eigenvalues --    1.83623   1.83948   1.84434   1.85414   1.85777
 Alpha virt. eigenvalues --    1.86265   1.86543   1.87179   1.87428   1.87732
 Alpha virt. eigenvalues --    1.88132   1.88599   1.90050   1.90956   1.91250
 Alpha virt. eigenvalues --    1.91299   1.91990   1.92502   1.92961   1.94929
 Alpha virt. eigenvalues --    1.95327   1.95929   1.96431   1.97129   1.97224
 Alpha virt. eigenvalues --    1.97934   1.99084   1.99372   1.99562   2.00680
 Alpha virt. eigenvalues --    2.00921   2.01829   2.02367   2.02729   2.03365
 Alpha virt. eigenvalues --    2.04311   2.05171   2.05697   2.06539   2.07122
 Alpha virt. eigenvalues --    2.08567   2.09060   2.09485   2.10081   2.11050
 Alpha virt. eigenvalues --    2.11353   2.12064   2.12833   2.12915   2.14401
 Alpha virt. eigenvalues --    2.15255   2.15806   2.15880   2.16801   2.17035
 Alpha virt. eigenvalues --    2.18171   2.18504   2.18761   2.19852   2.20386
 Alpha virt. eigenvalues --    2.22101   2.22542   2.23034   2.24504   2.25987
 Alpha virt. eigenvalues --    2.26318   2.26589   2.26906   2.27879   2.28751
 Alpha virt. eigenvalues --    2.29019   2.30542   2.31193   2.31543   2.32247
 Alpha virt. eigenvalues --    2.32837   2.34004   2.34989   2.36392   2.37829
 Alpha virt. eigenvalues --    2.38050   2.38914   2.39819   2.40926   2.41533
 Alpha virt. eigenvalues --    2.42029   2.43077   2.43800   2.44454   2.44581
 Alpha virt. eigenvalues --    2.45930   2.46946   2.47889   2.48146   2.49083
 Alpha virt. eigenvalues --    2.50698   2.51097   2.52043   2.52462   2.52919
 Alpha virt. eigenvalues --    2.53344   2.54174   2.54561   2.55344   2.56029
 Alpha virt. eigenvalues --    2.56962   2.57703   2.58268   2.58869   2.59306
 Alpha virt. eigenvalues --    2.60865   2.61531   2.61869   2.63447   2.63773
 Alpha virt. eigenvalues --    2.64299   2.64933   2.66261   2.66631   2.68472
 Alpha virt. eigenvalues --    2.69182   2.71137   2.71933   2.73546   2.76194
 Alpha virt. eigenvalues --    2.77388   2.79440   2.81612   2.84898   2.85672
 Alpha virt. eigenvalues --    2.87526   2.88322   2.89312   2.90014   2.90984
 Alpha virt. eigenvalues --    2.91655   2.91892   2.93158   2.93538   2.94862
 Alpha virt. eigenvalues --    2.95588   2.97903   3.02217   3.03231   3.05444
 Alpha virt. eigenvalues --    3.06672   3.10707   3.17478   3.35947   3.71732
 Alpha virt. eigenvalues --    3.74955   3.78825   3.81221   3.82320   3.85866
 Alpha virt. eigenvalues --    3.90704   3.93167   3.95720   3.98611   4.00117
 Alpha virt. eigenvalues --    4.01427   4.03555   4.04300   4.04794   4.07551
 Alpha virt. eigenvalues --    4.09157   4.11251   4.14021   4.15354   4.18406
 Alpha virt. eigenvalues --    4.22139   4.22803   4.23257   4.26487   4.28923
 Alpha virt. eigenvalues --    4.31072   4.32387   4.33444   4.37757   4.40801
 Alpha virt. eigenvalues --    4.42009   4.44999   4.45463   4.49521   4.50914
 Alpha virt. eigenvalues --    4.55696   4.58869   4.62163   4.70088   4.72767
 Alpha virt. eigenvalues --    4.75546
          Condensed to atoms (all electrons):
 Mulliken charges:
               1
     1  N   -0.828886
     2  C   -0.094946
     3  C    0.583198
     4  O   -0.478512
     5  C   -0.322879
     6  C   -0.382592
     7  C    0.613206
     8  O   -0.475460
     9  O   -0.556255
    10  H    0.437141
    11  H    0.467832
    12  H    0.188025
    13  H    0.215174
    14  H    0.226946
    15  H    0.182954
    16  H    0.218676
    17  H    0.379129
    18  H    0.400977
    19  N   -0.557566
    20  C   -0.063858
    21  C    0.617956
    22  O   -0.502059
    23  C   -0.386340
    24  C    0.063044
    25  C    0.006815
    26  C    0.071791
    27  C    0.332050
    28  C   -0.332698
    29  N   -0.676774
    30  C   -0.150748
    31  C   -0.158531
    32  C   -0.151687
    33  H    0.359465
    34  H    0.133055
    35  H    0.198448
    36  H    0.176665
    37  H    0.172178
    38  H    0.343649
    39  H    0.206757
    40  H    0.146452
    41  H    0.131343
    42  H    0.142240
    43  N   -0.605384
    44  C   -0.108884
    45  C    0.615858
    46  O   -0.556220
    47  C    0.119441
    48  C   -0.479821
    49  O   -0.685529
    50  H    0.440666
    51  H    0.349637
    52  H    0.219288
    53  H    0.171302
    54  H    0.185674
    55  H    0.151990
    56  H    0.168430
    57  N   -0.683145
    58  C    0.000056
    59  C    0.606098
    60  O   -0.547983
    61  C   -0.351034
    62  C   -0.289183
    63  C   -0.167873
    64  N   -0.573348
    65  C    0.725591
    66  N   -0.754134
    67  N   -0.727341
    68  O   -0.602374
    69  H    0.349322
    70  H    0.138940
    71  H    0.176606
    72  H    0.157000
    73  H    0.169068
    74  H    0.187888
    75  H    0.203403
    76  H    0.171837
    77  H    0.369069
    78  H    0.413687
    79  H    0.369486
    80  H    0.389963
    81  H    0.386574
 Sum of Mulliken charges =   1.00000
 Mulliken charges with hydrogens summed into heavy atoms:
               1
     1  N    0.419052
     2  C    0.093079
     3  C    0.583198
     4  O   -0.478512
     5  C    0.119242
     6  C    0.019038
     7  C    0.613206
     8  O   -0.475460
     9  O   -0.119114
    19  N   -0.198101
    20  C    0.069197
    21  C    0.617956
    22  O   -0.502059
    23  C   -0.011228
    24  C    0.063044
    25  C    0.178993
    26  C    0.071791
    27  C    0.332050
    28  C   -0.125941
    29  N   -0.333124
    30  C   -0.004296
    31  C   -0.027187
    32  C   -0.009447
    43  N   -0.255746
    44  C    0.110404
    45  C    0.615858
    46  O   -0.556220
    47  C    0.290743
    48  C    0.026273
    49  O   -0.244862
    57  N   -0.333823
    58  C    0.138996
    59  C    0.606098
    60  O   -0.547983
    61  C   -0.017428
    62  C    0.067773
    63  C    0.207367
    64  N   -0.204280
    65  C    0.725591
    66  N    0.029039
    67  N    0.049196
    68  O   -0.602374
 Electronic spatial extent (au):  <R**2>=        1386781.8902
 Charge=              1.0000 electrons
 Dipole moment (field-independent basis, Debye):
    X=             35.3031    Y=            147.4871    Z=             58.4059  Tot=            162.5116
 Quadrupole moment (field-independent basis, Debye-Ang):
   XX=             65.6041   YY=           4335.9721   ZZ=            470.0791
   XY=           1052.0714   XZ=            417.3512   YZ=           1790.1776
 Traceless Quadrupole moment (field-independent basis, Debye-Ang):
   XX=          -1558.2810   YY=           2712.0870   ZZ=          -1153.8060
   XY=           1052.0714   XZ=            417.3512   YZ=           1790.1776
 Octapole moment (field-independent basis, Debye-Ang**2):
  XXX=          -3817.0593  YYY=         120938.8447  ZZZ=            164.3284  XYY=          29323.4714
  XXY=           1233.9361  XXZ=            630.2277  XZZ=           2450.1154  YZZ=          14212.1675
  YYZ=          52583.2793  XYZ=          12337.9915
 Hexadecapole moment (field-independent basis, Debye-Ang**3):
 XXXX=        -108962.7098 YYYY=        3126582.4954 ZZZZ=         -98771.5103 XXXY=        -129731.5334
 XXXZ=         -48194.6225 YYYX=         745781.2256 YYYZ=        1466944.6779 ZZZX=         -29081.7946
 ZZZY=          -1054.1561 XXYY=          -9616.4790 XXZZ=         -22560.6686 YYZZ=         400332.0445
 XXYZ=           8887.1245 YYXZ=         340514.4776 ZZXY=          67541.4379
 N-N= 5.887015484142D+03 E-N=-1.652906998683D+04  KE= 2.035217713918D+03
 Unable to Open any file for archive entry.
 1\1\GINC-SKL-135\SP\RB3LYP\6-31G(d)\C26H39N8O8(1+)\KENGMITH\27-May-202
 2\0\\# B3LYP/6-31G* empiricaldispersion=gd3 guess=read geom=check nosy
 mm integral(ultrafinegrid)\\Candidate Structure: Conf:746 Charge calc 
 in gas phase\\1,1\N,0,9.9602733435,29.3828623896,12.4114764112\C,0,9.9
 995631732,28.8743381796,10.9845107217\C,0,11.402301905,28.9119531032,1
 0.3066310759\O,0,11.8708405286,27.8369451356,9.9616920036\C,0,8.975412
 0354,29.5180887827,10.0287661812\C,0,7.5352261422,28.9381615634,10.016
 1238226\C,0,6.7641882653,29.2343522418,11.2782349768\O,0,6.0746705865,
 30.2221494225,11.4543955882\O,0,6.9486410727,28.3871803036,12.32346083
 6\H,0,7.333948232,27.5454074658,12.0211522256\H,0,10.0550151045,30.447
 7032841,12.6465899661\H,0,9.8141998805,27.8001055101,11.0651447241\H,0
 ,8.9406396733,30.5982276437,10.1540197406\H,0,9.360759677,29.355040480
 4,9.0182535154\H,0,7.5742473113,27.8574011176,9.82990331\H,0,6.9937395
 617,29.4019457965,9.188477655\H,0,9.0921506914,29.0847438424,12.867672
 8884\H,0,10.7519103694,28.977292714,12.9495485055\N,0,11.9121667207,30
 .1077267518,9.9104316417\C,0,11.8441256361,31.4040264155,10.5717963803
 \C,0,11.6861623481,32.4470037563,9.4502123944\O,0,12.2904408885,32.293
 285783,8.3988529154\C,0,13.1448665676,31.7100581888,11.4241291313\C,0,
 13.8725215475,30.458488281,11.8141728994\C,0,14.8744228755,29.87244277
 73,11.074015668\C,0,13.5418664539,29.5175827849,12.8558045588\C,0,14.3
 684664335,28.3727875802,12.667046197\C,0,12.6466611514,29.5300867876,1
 3.945594\N,0,15.1781712461,28.6292106809,11.5843335232\C,0,14.28751774
 26,27.2436721936,13.4889121909\C,0,12.5565236731,28.3996537606,14.7576
 121052\C,0,13.3616461295,27.2634103575,14.5245717206\H,0,12.7222733872
 ,30.0022854196,9.307165674\H,0,10.9918465344,31.4087596894,11.24257062
 97\H,0,12.8344480588,32.289335015,12.2994381799\H,0,13.8086875869,32.3
 37293417,10.8201232981\H,0,15.3936188145,30.2533262091,10.2044140472\H
 ,0,15.8779899845,28.0031807767,11.2160125321\H,0,12.0729711311,30.4251
 311453,14.1652600419\H,0,14.9252108519,26.3803791307,13.3212115921\H,0
 ,11.886412554,28.4086140497,15.6138498681\H,0,13.2755882781,26.4020460
 862,15.1802848395\N,0,10.8905880456,33.5406493659,9.6719293099\C,0,10.
 0538958833,33.7911177174,10.8289665443\C,0,8.7377948805,32.9900856321,
 10.7427680284\O,0,8.1764240504,32.8327239754,9.6544120143\C,0,9.752907
 8444,35.3069775,11.0003201809\C,0,9.086189575,35.9650304811,9.79915442
 3\O,0,8.8700175818,35.4686756152,12.1134802177\H,0,9.3398987054,35.142
 7611073,12.9209286375\H,0,10.7205185334,34.0785905317,8.8308887859\H,0
 ,10.6189506918,33.4983844246,11.7091491927\H,0,10.7110295742,35.802758
 8082,11.2047910922\H,0,8.809498498,36.9885484615,10.0666093085\H,0,8.1
 886192149,35.4186239654,9.4910352994\H,0,9.760515937,36.0190071993,8.9
 389460368\N,0,8.2287854334,32.3540992203,11.8504952952\C,0,8.338324665
 3,32.6802304986,13.2839566079\C,0,9.8326114794,32.7777776152,13.656603
 3616\O,0,10.2646642991,33.8875880695,14.0081144508\C,0,7.5796929852,31
 .6071742446,14.1059705981\C,0,6.5010702743,32.1349982685,15.0708609416
 \C,0,5.5214422233,33.1834974243,14.4958636247\N,0,5.1183981033,32.9374
 932571,13.0995088927\C,0,5.5291224599,33.6350132111,12.0291277712\N,0,
 6.0041233052,34.8930593771,12.1392319365\N,0,5.416692511,33.0902456255
 ,10.8083014269\O,0,10.4984973085,31.7037548293,13.4761107843\H,0,7.403
 3309133,31.8242889613,11.6023129581\H,0,7.8995151433,33.6620039001,13.
 4591764421\H,0,8.3017310814,31.0225968174,14.685400137\H,0,7.095202207
 5,30.902648096,13.426304993\H,0,5.9341015784,31.2733724548,15.44268729
 65\H,0,6.9639441436,32.5972358185,15.950838004\H,0,4.6174725656,33.230
 5599858,15.1098646359\H,0,5.9788744061,34.1713631774,14.5436275965\H,0
 ,4.6728665593,32.046683759,12.906975729\H,0,6.8935382386,35.1337285171
 ,11.6921937347\H,0,5.8915208133,35.3635642204,13.0261946458\H,0,5.4397
 859527,32.0784734921,10.7144950748\H,0,5.8071965942,33.5954817393,10.0
 218566934\\Version=ES64L-G16RevC.01\HF=-2054.0392309\RMSD=9.348e-09\Di
 pole=-4.7346236,-1.1917715,0.6287859\Quadrupole=-1158.54371,2016.37019
 4,-857.826484,782.1892818,310.290359,1330.9531842\PG=C01 [X(C26H39N8O8
 )]\\@
 The archive entry for this job was punched.


 TOWERING GENIUS DISDAINS A BEATEN PATH.  IT SEEKS 
 REGIONS HITHERTO UNEXPLORED.

                                -- ABRAHAM LINCOLN
 Job cpu time:       0 days  0 hours  2 minutes 37.0 seconds.
 Elapsed time:       0 days  0 hours  0 minutes 40.4 seconds.
 File lengths (MBytes):  RWF=    376 Int=      0 D2E=      0 Chk=     56 Scr=     16
 Normal termination of Gaussian 16 at Fri May 27 05:10:44 2022.
