 Entering Gaussian System, Link 0=/opt/software/Gaussian/g16-AVX2-C.01/g16/g16
 Input=charge-conf-472.com
 Output=charge-conf-472.log
 Initial command:
 /opt/software/Gaussian/g16-AVX2-C.01/g16/l1.exe "/mnt/gs18/scratch/users/kengmith/Gau-2768.inp" -scrdir="/mnt/gs18/scratch/users/kengmith/"
 Entering Link 1 = /opt/software/Gaussian/g16-AVX2-C.01/g16/l1.exe PID=      2778.
  
 Copyright (c) 1988-2019, Gaussian, Inc.  All Rights Reserved.
  
 This is part of the Gaussian(R) 16 program.  It is based on
 the Gaussian(R) 09 system (copyright 2009, Gaussian, Inc.),
 the Gaussian(R) 03 system (copyright 2003, Gaussian, Inc.),
 the Gaussian(R) 98 system (copyright 1998, Gaussian, Inc.),
 the Gaussian(R) 94 system (copyright 1995, Gaussian, Inc.),
 the Gaussian 92(TM) system (copyright 1992, Gaussian, Inc.),
 the Gaussian 90(TM) system (copyright 1990, Gaussian, Inc.),
 the Gaussian 88(TM) system (copyright 1988, Gaussian, Inc.),
 the Gaussian 86(TM) system (copyright 1986, Carnegie Mellon
 University), and the Gaussian 82(TM) system (copyright 1983,
 Carnegie Mellon University). Gaussian is a federally registered
 trademark of Gaussian, Inc.
  
 This software contains proprietary and confidential information,
 including trade secrets, belonging to Gaussian, Inc.
  
 This software is provided under written license and may be
 used, copied, transmitted, or stored only in accord with that
 written license.
  
 The following legend is applicable only to US Government
 contracts under FAR:
  
                    RESTRICTED RIGHTS LEGEND
  
 Use, reproduction and disclosure by the US Government is
 subject to restrictions as set forth in subparagraphs (a)
 and (c) of the Commercial Computer Software - Restricted
 Rights clause in FAR 52.227-19.
  
 Gaussian, Inc.
 340 Quinnipiac St., Bldg. 40, Wallingford CT 06492
  
  
 ---------------------------------------------------------------
 Warning -- This program may not be used in any manner that
 competes with the business of Gaussian, Inc. or will provide
 assistance to any competitor of Gaussian, Inc.  The licensee
 of this program is prohibited from giving any competitor of
 Gaussian, Inc. access to this program.  By using this program,
 the user acknowledges that Gaussian, Inc. is engaged in the
 business of creating and licensing software in the field of
 computational chemistry and represents and warrants to the
 licensee that it is not a competitor of Gaussian, Inc. and that
 it will not use this program in any manner prohibited above.
 ---------------------------------------------------------------
  

 Cite this work as:
 Gaussian 16, Revision C.01,
 M. J. Frisch, G. W. Trucks, H. B. Schlegel, G. E. Scuseria, 
 M. A. Robb, J. R. Cheeseman, G. Scalmani, V. Barone, 
 G. A. Petersson, H. Nakatsuji, X. Li, M. Caricato, A. V. Marenich, 
 J. Bloino, B. G. Janesko, R. Gomperts, B. Mennucci, H. P. Hratchian, 
 J. V. Ortiz, A. F. Izmaylov, J. L. Sonnenberg, D. Williams-Young, 
 F. Ding, F. Lipparini, F. Egidi, J. Goings, B. Peng, A. Petrone, 
 T. Henderson, D. Ranasinghe, V. G. Zakrzewski, J. Gao, N. Rega, 
 G. Zheng, W. Liang, M. Hada, M. Ehara, K. Toyota, R. Fukuda, 
 J. Hasegawa, M. Ishida, T. Nakajima, Y. Honda, O. Kitao, H. Nakai, 
 T. Vreven, K. Throssell, J. A. Montgomery, Jr., J. E. Peralta, 
 F. Ogliaro, M. J. Bearpark, J. J. Heyd, E. N. Brothers, K. N. Kudin, 
 V. N. Staroverov, T. A. Keith, R. Kobayashi, J. Normand, 
 K. Raghavachari, A. P. Rendell, J. C. Burant, S. S. Iyengar, 
 J. Tomasi, M. Cossi, J. M. Millam, M. Klene, C. Adamo, R. Cammi, 
 J. W. Ochterski, R. L. Martin, K. Morokuma, O. Farkas, 
 J. B. Foresman, and D. J. Fox, Gaussian, Inc., Wallingford CT, 2019.
 
 ******************************************
 Gaussian 16:  ES64L-G16RevC.01  3-Jul-2019
                27-May-2022 
 ******************************************
 %mem=8gb
 %nproc=4
 Will use up to    4 processors via shared memory.
 %chk=conf-472.chk
 ----------------------------------------------------------------------
 # B3LYP/6-31G* empiricaldispersion=gd3 guess=read geom=check nosymm in
 tegral(ultrafinegrid)
 ----------------------------------------------------------------------
 1/29=2,38=1,172=1/1;
 2/12=2,15=1,40=1/2;
 3/5=1,6=6,7=1,11=2,14=-4,25=1,30=1,74=-5,75=-5,116=-2,124=31/1,2,3;
 4/5=1/1;
 5/5=2,38=6/2;
 6/7=2,8=2,9=2,10=2,28=1/1;
 99/5=1,9=1/99;
 ------------------------------------------------------
 Candidate Structure: Conf:472 Charge calc in gas phase
 ------------------------------------------------------
 Structure from the checkpoint file:  "conf-472.chk"
 Charge =  1 Multiplicity = 1
 Redundant internal coordinates found in file.  (old form).
 N,0,11.2418854786,31.4311048759,9.7047734853
 C,0,12.5064320429,32.1190974853,10.2002485976
 C,0,13.5309933623,31.1605937662,10.8626002978
 O,0,14.648504792,31.1396382194,10.3632523358
 C,0,12.2365036912,33.3343676215,11.0952632889
 C,0,11.5157481724,34.5309640804,10.4185563111
 C,0,10.0098556241,34.4556715515,10.5203045766
 O,0,9.3427659081,35.0236872306,11.3581865515
 O,0,9.4457597713,33.6316227928,9.5923990224
 H,0,8.454413246,33.557989132,9.7965695614
 H,0,11.46324399,30.7620247633,8.95110631
 H,0,13.006944599,32.4447840281,9.2866075809
 H,0,11.7540715671,33.0608454815,12.0383032866
 H,0,13.2337755562,33.6802280952,11.3870804488
 H,0,11.8137911403,34.6194768456,9.3671650762
 H,0,11.8101636543,35.4469492701,10.9343959402
 H,0,10.7846826006,30.8663141359,10.427959762
 H,0,10.5510229801,32.1303426408,9.3738014749
 N,0,13.2446554037,30.530870229,12.0326331879
 C,0,12.0068700311,30.0806583098,12.652066051
 C,0,12.293958463,29.9835669074,14.165235955
 O,0,13.4001973562,29.5804335723,14.5040708776
 C,0,11.6459571642,28.6265229377,12.1957977013
 C,0,11.413219735,28.498556265,10.7229016151
 C,0,12.3593269986,28.5656363718,9.7281637402
 C,0,10.1280603464,28.3776036856,10.0643846045
 C,0,10.3643342474,28.4141862236,8.66448177
 C,0,8.814021588,28.1869203214,10.5289966157
 N,0,11.7342321239,28.6002865127,8.481621506
 C,0,9.3375551318,28.2822950186,7.7252002287
 C,0,7.7920919104,28.0350306265,9.6002908672
 C,0,8.0496030524,28.0887216665,8.2142893878
 H,0,14.0605568051,30.1057377288,12.4729539846
 H,0,11.1912345977,30.7729211655,12.4352155985
 H,0,10.7588122009,28.3022182221,12.7514537516
 H,0,12.472969887,27.9880491919,12.5232845502
 H,0,13.4356368707,28.6393002701,9.7960356838
 H,0,12.2144114226,28.3695589728,7.621019415
 H,0,8.6053772268,28.1267347121,11.5935960388
 H,0,9.5391235032,28.3011092442,6.657959056
 H,0,6.7766950815,27.8640272856,9.9446877193
 H,0,7.2296740109,27.9578010011,7.5146800935
 N,0,11.2818751926,30.164354024,15.0564512717
 C,0,10.0719471954,30.9801355074,14.9636648894
 C,0,10.3208767426,32.2854122552,14.2138172561
 O,0,11.4378778437,32.803249023,14.2078065819
 C,0,9.6315850836,31.3147705089,16.4490695173
 C,0,10.622390182,32.2074931751,17.191114196
 O,0,8.3920100107,31.9746860405,16.4884385781
 H,0,7.7022703434,31.3725569059,16.1601834052
 H,0,11.6170545798,29.9936740314,15.9991238544
 H,0,9.2502187003,30.4190532896,14.5094551726
 H,0,9.5723967226,30.3323669183,16.9485472611
 H,0,10.2947498228,32.3000076222,18.2296918348
 H,0,10.6391785387,33.2044927683,16.7434657453
 H,0,11.6431946755,31.8152390942,17.1786457026
 N,0,9.2730952828,32.9382303506,13.6146968578
 C,0,8.0465151346,32.4982223975,12.9398955574
 C,0,6.9217483885,31.9761518514,13.8511273271
 O,0,5.8482022204,32.7492254799,13.956036826
 C,0,8.3082261446,31.4863899734,11.8133551679
 C,0,7.0973038627,31.1577626194,10.9134042717
 C,0,6.0903440884,32.2784190202,10.6147754923
 N,0,6.6699682417,33.539703453,10.0624132473
 C,0,6.3680793383,34.7560891214,10.7407890049
 N,0,5.9717832781,34.7515953751,11.9637599689
 N,0,6.5327857379,35.8595894908,9.9355015865
 O,0,6.9805588349,30.8840962483,14.3886897504
 H,0,9.5616718576,33.8638111294,13.3138462953
 H,0,7.6955399757,33.4182707026,12.4830539654
 H,0,8.68579767,30.5512824929,12.2393071042
 H,0,9.1101256187,31.9172466494,11.2122533202
 H,0,7.4728374846,30.7331270501,9.9766280108
 H,0,6.5153948395,30.3580102104,11.3863728335
 H,0,5.3618401079,31.8986233123,9.8914785153
 H,0,5.5271566087,32.5362312221,11.5089237451
 H,0,6.4057911809,33.6420524802,9.0841863417
 H,0,5.8631522681,35.6944405573,12.3344793348
 H,0,5.8910720649,33.5318142359,13.3349937825
 H,0,7.2196267135,35.8002119969,9.1938215172
 H,0,6.5421376182,36.7573218372,10.4026839716
 Recover connectivity data from disk.
                           ----------------------------
                           !    Current Parameters    !
                           ! (Angstroms and Degrees)  !
 --------------------------                            --------------------------
 ! Name  Definition              Value                                          !
 --------------------------------------------------------------------------------
 ! R1    R(1,2)                  1.5225                                         !
 ! R2    R(1,11)                 1.0318                                         !
 ! R3    R(1,17)                 1.0252                                         !
 ! R4    R(1,18)                 1.0372                                         !
 ! R5    R(2,3)                  1.5515                                         !
 ! R6    R(2,5)                  1.5332                                         !
 ! R7    R(2,12)                 1.0915                                         !
 ! R8    R(3,4)                  1.2242                                         !
 ! R9    R(3,19)                 1.3592                                         !
 ! R10   R(5,6)                  1.5522                                         !
 ! R11   R(5,13)                 1.094                                          !
 ! R12   R(5,14)                 1.0951                                         !
 ! R13   R(6,7)                  1.5112                                         !
 ! R14   R(6,15)                 1.0964                                         !
 ! R15   R(6,16)                 1.0917                                         !
 ! R16   R(7,8)                  1.2123                                         !
 ! R17   R(7,9)                  1.3632                                         !
 ! R18   R(9,10)                 1.0148                                         !
 ! R19   R(19,20)                1.4555                                         !
 ! R20   R(19,33)                1.02                                           !
 ! R21   R(20,21)                1.5432                                         !
 ! R22   R(20,23)                1.5662                                         !
 ! R23   R(20,34)                1.0916                                         !
 ! R24   R(21,22)                1.2252                                         !
 ! R25   R(21,43)                1.3606                                         !
 ! R26   R(23,24)                1.4967                                         !
 ! R27   R(23,35)                1.0959                                         !
 ! R28   R(23,36)                1.0949                                         !
 ! R29   R(24,25)                1.3745                                         !
 ! R30   R(24,26)                1.4491                                         !
 ! R31   R(25,29)                1.3949                                         !
 ! R32   R(25,37)                1.081                                          !
 ! R33   R(26,27)                1.4202                                         !
 ! R34   R(26,28)                1.4067                                         !
 ! R35   R(27,29)                1.3945                                         !
 ! R36   R(27,30)                1.3978                                         !
 ! R37   R(28,31)                1.3892                                         !
 ! R38   R(28,39)                1.0865                                         !
 ! R39   R(29,38)                1.0121                                         !
 ! R40   R(30,32)                1.3912                                         !
 ! R41   R(30,40)                1.0863                                         !
 ! R42   R(31,32)                1.4107                                         !
 ! R43   R(31,41)                1.0858                                         !
 ! R44   R(32,42)                1.0858                                         !
 ! R45   R(43,44)                1.4622                                         !
 ! R46   R(43,51)                1.0149                                         !
 ! R47   R(44,45)                1.5258                                         !
 ! R48   R(44,47)                1.585                                          !
 ! R49   R(44,52)                1.0938                                         !
 ! R50   R(45,46)                1.2312                                         !
 ! R51   R(45,57)                1.3722                                         !
 ! R52   R(47,48)                1.5262                                         !
 ! R53   R(47,49)                1.4048                                         !
 ! R54   R(47,53)                1.1037                                         !
 ! R55   R(48,54)                1.093                                          !
 ! R56   R(48,55)                1.093                                          !
 ! R57   R(48,56)                1.0936                                         !
 ! R58   R(49,50)                0.9727                                         !
 ! R59   R(57,58)                1.4675                                         !
 ! R60   R(57,69)                1.0151                                         !
 ! R61   R(58,59)                1.5388                                         !
 ! R62   R(58,61)                1.5367                                         !
 ! R63   R(58,70)                1.0855                                         !
 ! R64   R(59,60)                1.3271                                         !
 ! R65   R(59,68)                1.2186                                         !
 ! R66   R(61,62)                1.5441                                         !
 ! R67   R(61,71)                1.0947                                         !
 ! R68   R(61,72)                1.0909                                         !
 ! R69   R(62,63)                1.5359                                         !
 ! R70   R(62,73)                1.0949                                         !
 ! R71   R(62,74)                1.0963                                         !
 ! R72   R(63,64)                1.494                                          !
 ! R73   R(63,75)                1.0946                                         !
 ! R74   R(63,76)                1.0877                                         !
 ! R75   R(64,65)                1.4251                                         !
 ! R76   R(64,77)                1.0184                                         !
 ! R77   R(65,66)                1.2856                                         !
 ! R78   R(65,67)                1.376                                          !
 ! R79   R(66,78)                1.0189                                         !
 ! R80   R(66,79)                1.837                                          !
 ! R81   R(67,80)                1.0126                                         !
 ! R82   R(67,81)                1.0121                                         !
 ! A1    A(2,1,11)             110.6431                                         !
 ! A2    A(2,1,17)             112.9419                                         !
 ! A3    A(2,1,18)             110.6371                                         !
 ! A4    A(11,1,17)            104.6958                                         !
 ! A5    A(11,1,18)            110.3021                                         !
 ! A6    A(17,1,18)            107.4246                                         !
 ! A7    A(1,2,3)              114.0951                                         !
 ! A8    A(1,2,5)              113.6988                                         !
 ! A9    A(1,2,12)             104.0815                                         !
 ! A10   A(3,2,5)              110.8993                                         !
 ! A11   A(3,2,12)             103.8201                                         !
 ! A12   A(5,2,12)             109.4421                                         !
 ! A13   A(2,3,4)              116.0568                                         !
 ! A14   A(2,3,19)             120.97                                           !
 ! A15   A(4,3,19)             122.3778                                         !
 ! A16   A(2,5,6)              115.9952                                         !
 ! A17   A(2,5,13)             112.498                                          !
 ! A18   A(2,5,14)             104.2143                                         !
 ! A19   A(6,5,13)             111.3326                                         !
 ! A20   A(6,5,14)             107.1911                                         !
 ! A21   A(13,5,14)            104.5267                                         !
 ! A22   A(5,6,7)              113.2632                                         !
 ! A23   A(5,6,15)             110.7373                                         !
 ! A24   A(5,6,16)             108.3972                                         !
 ! A25   A(7,6,15)             109.8446                                         !
 ! A26   A(7,6,16)             106.1843                                         !
 ! A27   A(15,6,16)            108.1839                                         !
 ! A28   A(6,7,8)              124.8563                                         !
 ! A29   A(6,7,9)              113.3684                                         !
 ! A30   A(8,7,9)              121.7346                                         !
 ! A31   A(7,9,10)             108.1284                                         !
 ! A32   A(3,19,20)            133.5346                                         !
 ! A33   A(3,19,33)            113.3411                                         !
 ! A34   A(20,19,33)           111.5693                                         !
 ! A35   A(19,20,21)           106.1735                                         !
 ! A36   A(19,20,23)           111.0495                                         !
 ! A37   A(19,20,34)           110.7771                                         !
 ! A38   A(21,20,23)           105.6706                                         !
 ! A39   A(21,20,34)           111.9439                                         !
 ! A40   A(23,20,34)           111.0238                                         !
 ! A41   A(20,21,22)           117.377                                          !
 ! A42   A(20,21,43)           119.7039                                         !
 ! A43   A(22,21,43)           122.2896                                         !
 ! A44   A(20,23,24)           113.6982                                         !
 ! A45   A(20,23,35)           108.2759                                         !
 ! A46   A(20,23,36)           106.273                                          !
 ! A47   A(24,23,35)           110.3531                                         !
 ! A48   A(24,23,36)           111.2199                                         !
 ! A49   A(35,23,36)           106.6923                                         !
 ! A50   A(23,24,25)           126.9438                                         !
 ! A51   A(23,24,26)           126.318                                          !
 ! A52   A(25,24,26)           106.5984                                         !
 ! A53   A(24,25,29)           109.8461                                         !
 ! A54   A(24,25,37)           130.0364                                         !
 ! A55   A(29,25,37)           120.0404                                         !
 ! A56   A(24,26,27)           107.3523                                         !
 ! A57   A(24,26,28)           133.6022                                         !
 ! A58   A(27,26,28)           118.977                                          !
 ! A59   A(26,27,29)           107.225                                          !
 ! A60   A(26,27,30)           122.5292                                         !
 ! A61   A(29,27,30)           130.2454                                         !
 ! A62   A(26,28,31)           118.7618                                         !
 ! A63   A(26,28,39)           120.6968                                         !
 ! A64   A(31,28,39)           120.5113                                         !
 ! A65   A(25,29,27)           108.6456                                         !
 ! A66   A(25,29,38)           122.7905                                         !
 ! A67   A(27,29,38)           123.1691                                         !
 ! A68   A(27,30,32)           117.189                                          !
 ! A69   A(27,30,40)           121.4832                                         !
 ! A70   A(32,30,40)           121.3048                                         !
 ! A71   A(28,31,32)           121.2217                                         !
 ! A72   A(28,31,41)           119.5456                                         !
 ! A73   A(32,31,41)           119.2309                                         !
 ! A74   A(30,32,31)           121.3101                                         !
 ! A75   A(30,32,42)           119.2988                                         !
 ! A76   A(31,32,42)           119.381                                          !
 ! A77   A(21,43,44)           130.3967                                         !
 ! A78   A(21,43,51)           109.8997                                         !
 ! A79   A(44,43,51)           115.2158                                         !
 ! A80   A(43,44,45)           111.9298                                         !
 ! A81   A(43,44,47)           106.7509                                         !
 ! A82   A(43,44,52)           111.2115                                         !
 ! A83   A(45,44,47)           108.9825                                         !
 ! A84   A(45,44,52)           110.9362                                         !
 ! A85   A(47,44,52)           106.7826                                         !
 ! A86   A(44,45,46)           120.6788                                         !
 ! A87   A(44,45,57)           119.8009                                         !
 ! A88   A(46,45,57)           119.3745                                         !
 ! A89   A(44,47,48)           113.5015                                         !
 ! A90   A(44,47,49)           111.7512                                         !
 ! A91   A(44,47,53)           104.5419                                         !
 ! A92   A(48,47,49)           106.5249                                         !
 ! A93   A(48,47,53)           109.5993                                         !
 ! A94   A(49,47,53)           110.9852                                         !
 ! A95   A(47,48,54)           108.4764                                         !
 ! A96   A(47,48,55)           110.1448                                         !
 ! A97   A(47,48,56)           112.9931                                         !
 ! A98   A(54,48,55)           108.4557                                         !
 ! A99   A(54,48,56)           108.7235                                         !
 ! A100  A(55,48,56)           107.948                                          !
 ! A101  A(47,49,50)           108.993                                          !
 ! A102  A(45,57,58)           134.1352                                         !
 ! A103  A(45,57,69)           110.2494                                         !
 ! A104  A(58,57,69)           112.0071                                         !
 ! A105  A(57,58,59)           116.1273                                         !
 ! A106  A(57,58,61)           113.0907                                         !
 ! A107  A(57,58,70)           102.1011                                         !
 ! A108  A(59,58,61)           109.585                                          !
 ! A109  A(59,58,70)           107.4835                                         !
 ! A110  A(61,58,70)           107.7352                                         !
 ! A111  A(58,59,60)           116.1332                                         !
 ! A112  A(58,59,68)           122.0036                                         !
 ! A113  A(60,59,68)           121.7494                                         !
 ! A114  A(58,61,62)           115.7122                                         !
 ! A115  A(58,61,71)           109.6298                                         !
 ! A116  A(58,61,72)           105.6099                                         !
 ! A117  A(62,61,71)           108.3887                                         !
 ! A118  A(62,61,72)           109.8395                                         !
 ! A119  A(71,61,72)           107.3521                                         !
 ! A120  A(61,62,63)           118.176                                          !
 ! A121  A(61,62,73)           108.1927                                         !
 ! A122  A(61,62,74)           108.667                                          !
 ! A123  A(63,62,73)           109.9668                                         !
 ! A124  A(63,62,74)           105.5544                                         !
 ! A125  A(73,62,74)           105.5592                                         !
 ! A126  A(62,63,64)           115.6915                                         !
 ! A127  A(62,63,75)           108.159                                          !
 ! A128  A(62,63,76)           110.6441                                         !
 ! A129  A(64,63,75)           107.869                                          !
 ! A130  A(64,63,76)           107.7406                                         !
 ! A131  A(75,63,76)           106.3101                                         !
 ! A132  A(63,64,65)           117.5435                                         !
 ! A133  A(63,64,77)           109.8368                                         !
 ! A134  A(65,64,77)           108.4514                                         !
 ! A135  A(64,65,66)           121.0076                                         !
 ! A136  A(64,65,67)           112.3691                                         !
 ! A137  A(66,65,67)           126.6156                                         !
 ! A138  A(65,66,78)           112.0705                                         !
 ! A139  A(65,66,79)           136.5481                                         !
 ! A140  A(78,66,79)           109.7646                                         !
 ! A141  A(65,67,80)           117.5697                                         !
 ! A142  A(65,67,81)           116.2523                                         !
 ! A143  A(80,67,81)           112.5727                                         !
 ! D1    D(11,1,2,3)           -64.0081                                         !
 ! D2    D(11,1,2,5)           167.4514                                         !
 ! D3    D(11,1,2,12)           48.4472                                         !
 ! D4    D(17,1,2,3)            52.9823                                         !
 ! D5    D(17,1,2,5)           -75.5582                                         !
 ! D6    D(17,1,2,12)          165.4376                                         !
 ! D7    D(18,1,2,3)           173.4386                                         !
 ! D8    D(18,1,2,5)            44.8981                                         !
 ! D9    D(18,1,2,12)          -74.1061                                         !
 ! D10   D(1,2,3,4)            122.3155                                         !
 ! D11   D(1,2,3,19)           -66.3274                                         !
 ! D12   D(5,2,3,4)           -107.7383                                         !
 ! D13   D(5,2,3,19)            63.6188                                         !
 ! D14   D(12,2,3,4)             9.7038                                         !
 ! D15   D(12,2,3,19)         -178.9391                                         !
 ! D16   D(1,2,5,6)            -64.4201                                         !
 ! D17   D(1,2,5,13)            65.3739                                         !
 ! D18   D(1,2,5,14)           178.0164                                         !
 ! D19   D(3,2,5,6)            165.4248                                         !
 ! D20   D(3,2,5,13)           -64.7812                                         !
 ! D21   D(3,2,5,14)            47.8613                                         !
 ! D22   D(12,2,5,6)            51.4745                                         !
 ! D23   D(12,2,5,13)         -178.7316                                         !
 ! D24   D(12,2,5,14)          -66.089                                          !
 ! D25   D(2,3,19,20)           29.0786                                         !
 ! D26   D(2,3,19,33)         -166.7062                                         !
 ! D27   D(4,3,19,20)         -160.1198                                         !
 ! D28   D(4,3,19,33)            4.0954                                         !
 ! D29   D(2,5,6,7)             90.1484                                         !
 ! D30   D(2,5,6,15)           -33.7608                                         !
 ! D31   D(2,5,6,16)          -152.2886                                         !
 ! D32   D(13,5,6,7)           -40.203                                          !
 ! D33   D(13,5,6,15)         -164.1121                                         !
 ! D34   D(13,5,6,16)           77.36                                           !
 ! D35   D(14,5,6,7)          -153.95                                           !
 ! D36   D(14,5,6,15)           82.1408                                         !
 ! D37   D(14,5,6,16)          -36.387                                          !
 ! D38   D(5,6,7,8)             96.8315                                         !
 ! D39   D(5,6,7,9)            -80.8738                                         !
 ! D40   D(15,6,7,8)          -138.7728                                         !
 ! D41   D(15,6,7,9)            43.5219                                         !
 ! D42   D(16,6,7,8)           -22.0159                                         !
 ! D43   D(16,6,7,9)           160.2787                                         !
 ! D44   D(6,7,9,10)           173.7225                                         !
 ! D45   D(8,7,9,10)            -4.0636                                         !
 ! D46   D(3,19,20,21)        -157.2585                                         !
 ! D47   D(3,19,20,23)          88.3503                                         !
 ! D48   D(3,19,20,34)         -35.5095                                         !
 ! D49   D(33,19,20,21)         38.3207                                         !
 ! D50   D(33,19,20,23)        -76.0705                                         !
 ! D51   D(33,19,20,34)        160.0697                                         !
 ! D52   D(19,20,21,22)        -37.5165                                         !
 ! D53   D(19,20,21,43)        151.3684                                         !
 ! D54   D(23,20,21,22)         80.5031                                         !
 ! D55   D(23,20,21,43)        -90.6119                                         !
 ! D56   D(34,20,21,22)       -158.5172                                         !
 ! D57   D(34,20,21,43)         30.3677                                         !
 ! D58   D(19,20,23,24)        -61.7496                                         !
 ! D59   D(19,20,23,35)        175.2279                                         !
 ! D60   D(19,20,23,36)         60.9276                                         !
 ! D61   D(21,20,23,24)       -176.4549                                         !
 ! D62   D(21,20,23,35)         60.5225                                         !
 ! D63   D(21,20,23,36)        -53.7777                                         !
 ! D64   D(34,20,23,24)         61.9694                                         !
 ! D65   D(34,20,23,35)        -61.0532                                         !
 ! D66   D(34,20,23,36)       -175.3534                                         !
 ! D67   D(20,21,43,44)        -30.0844                                         !
 ! D68   D(20,21,43,51)        175.3647                                         !
 ! D69   D(22,21,43,44)        159.2526                                         !
 ! D70   D(22,21,43,51)          4.7017                                         !
 ! D71   D(20,23,24,25)         71.2977                                         !
 ! D72   D(20,23,24,26)       -103.8174                                         !
 ! D73   D(35,23,24,25)       -166.8247                                         !
 ! D74   D(35,23,24,26)         18.0601                                         !
 ! D75   D(36,23,24,25)        -48.6165                                         !
 ! D76   D(36,23,24,26)        136.2683                                         !
 ! D77   D(23,24,25,29)       -171.2246                                         !
 ! D78   D(23,24,25,37)          5.5163                                         !
 ! D79   D(26,24,25,29)          4.6698                                         !
 ! D80   D(26,24,25,37)       -178.5893                                         !
 ! D81   D(23,24,26,27)        174.3728                                         !
 ! D82   D(23,24,26,28)         -8.7788                                         !
 ! D83   D(25,24,26,27)         -1.5549                                         !
 ! D84   D(25,24,26,28)        175.2936                                         !
 ! D85   D(24,25,29,27)         -6.124                                          !
 ! D86   D(24,25,29,38)       -160.8454                                         !
 ! D87   D(37,25,29,27)        176.7581                                         !
 ! D88   D(37,25,29,38)         22.0367                                         !
 ! D89   D(24,26,27,29)         -2.0905                                         !
 ! D90   D(24,26,27,30)        178.1055                                         !
 ! D91   D(28,26,27,29)       -179.4822                                         !
 ! D92   D(28,26,27,30)          0.7138                                         !
 ! D93   D(24,26,28,31)       -176.2889                                         !
 ! D94   D(24,26,28,39)          1.7282                                         !
 ! D95   D(27,26,28,31)          0.2722                                         !
 ! D96   D(27,26,28,39)        178.2893                                         !
 ! D97   D(26,27,29,25)          4.9553                                         !
 ! D98   D(26,27,29,38)        159.5604                                         !
 ! D99   D(30,27,29,25)       -175.2612                                         !
 ! D100  D(30,27,29,38)        -20.6561                                         !
 ! D101  D(26,27,30,32)         -0.9963                                         !
 ! D102  D(26,27,30,40)       -179.27                                           !
 ! D103  D(29,27,30,32)        179.249                                          !
 ! D104  D(29,27,30,40)          0.9753                                         !
 ! D105  D(26,28,31,32)         -0.9367                                         !
 ! D106  D(26,28,31,41)        178.5824                                         !
 ! D107  D(39,28,31,32)       -178.9576                                         !
 ! D108  D(39,28,31,41)          0.5615                                         !
 ! D109  D(27,30,32,31)          0.3175                                         !
 ! D110  D(27,30,32,42)       -178.5178                                         !
 ! D111  D(40,30,32,31)        178.5945                                         !
 ! D112  D(40,30,32,42)         -0.2408                                         !
 ! D113  D(28,31,32,30)          0.6499                                         !
 ! D114  D(28,31,32,42)        179.4843                                         !
 ! D115  D(41,31,32,30)       -178.8707                                         !
 ! D116  D(41,31,32,42)         -0.0363                                         !
 ! D117  D(21,43,44,45)        -35.988                                          !
 ! D118  D(21,43,44,47)       -155.1556                                         !
 ! D119  D(21,43,44,52)         88.7237                                         !
 ! D120  D(51,43,44,45)        117.4857                                         !
 ! D121  D(51,43,44,47)         -1.6819                                         !
 ! D122  D(51,43,44,52)       -117.8026                                         !
 ! D123  D(43,44,45,46)        -27.7114                                         !
 ! D124  D(43,44,45,57)        156.7054                                         !
 ! D125  D(47,44,45,46)         90.1316                                         !
 ! D126  D(47,44,45,57)        -85.4516                                         !
 ! D127  D(52,44,45,46)       -152.5758                                         !
 ! D128  D(52,44,45,57)         31.8411                                         !
 ! D129  D(43,44,47,48)         66.0383                                         !
 ! D130  D(43,44,47,49)       -173.4689                                         !
 ! D131  D(43,44,47,53)        -53.3474                                         !
 ! D132  D(45,44,47,48)        -55.025                                          !
 ! D133  D(45,44,47,49)         65.4678                                         !
 ! D134  D(45,44,47,53)       -174.4107                                         !
 ! D135  D(52,44,47,48)       -174.9213                                         !
 ! D136  D(52,44,47,49)        -54.4284                                         !
 ! D137  D(52,44,47,53)         65.6931                                         !
 ! D138  D(44,45,57,58)        -34.5471                                         !
 ! D139  D(44,45,57,69)        169.326                                          !
 ! D140  D(46,45,57,58)        149.8119                                         !
 ! D141  D(46,45,57,69)         -6.315                                          !
 ! D142  D(44,47,48,54)       -174.1814                                         !
 ! D143  D(44,47,48,55)         67.2573                                         !
 ! D144  D(44,47,48,56)        -53.5547                                         !
 ! D145  D(49,47,48,54)         62.416                                          !
 ! D146  D(49,47,48,55)        -56.1453                                         !
 ! D147  D(49,47,48,56)       -176.9573                                         !
 ! D148  D(53,47,48,54)        -57.7277                                         !
 ! D149  D(53,47,48,55)       -176.2891                                         !
 ! D150  D(53,47,48,56)         62.899                                          !
 ! D151  D(44,47,49,50)         65.0431                                         !
 ! D152  D(48,47,49,50)       -170.4704                                         !
 ! D153  D(53,47,49,50)        -51.2253                                         !
 ! D154  D(45,57,58,59)         74.8425                                         !
 ! D155  D(45,57,58,61)        -53.1085                                         !
 ! D156  D(45,57,58,70)       -168.5812                                         !
 ! D157  D(69,57,58,59)       -129.3333                                         !
 ! D158  D(69,57,58,61)        102.7157                                         !
 ! D159  D(69,57,58,70)        -12.7571                                         !
 ! D160  D(57,58,59,60)        109.6597                                         !
 ! D161  D(57,58,59,68)        -74.156                                          !
 ! D162  D(61,58,59,60)       -120.6858                                         !
 ! D163  D(61,58,59,68)         55.4985                                         !
 ! D164  D(70,58,59,60)         -3.8747                                         !
 ! D165  D(70,58,59,68)        172.3096                                         !
 ! D166  D(57,58,61,62)       -170.3882                                         !
 ! D167  D(57,58,61,71)         66.691                                          !
 ! D168  D(57,58,61,72)        -48.6765                                         !
 ! D169  D(59,58,61,62)         58.3268                                         !
 ! D170  D(59,58,61,71)        -64.594                                          !
 ! D171  D(59,58,61,72)       -179.9615                                         !
 ! D172  D(70,58,61,62)        -58.3256                                         !
 ! D173  D(70,58,61,71)        178.7535                                         !
 ! D174  D(70,58,61,72)         63.386                                          !
 ! D175  D(58,61,62,63)         34.5166                                         !
 ! D176  D(58,61,62,73)        160.235                                          !
 ! D177  D(58,61,62,74)        -85.6196                                         !
 ! D178  D(71,61,62,63)        158.0897                                         !
 ! D179  D(71,61,62,73)        -76.1919                                         !
 ! D180  D(71,61,62,74)         37.9535                                         !
 ! D181  D(72,61,62,63)        -84.9055                                         !
 ! D182  D(72,61,62,73)         40.813                                          !
 ! D183  D(72,61,62,74)        154.9583                                         !
 ! D184  D(61,62,63,64)         53.4413                                         !
 ! D185  D(61,62,63,75)        174.5151                                         !
 ! D186  D(61,62,63,76)        -69.4188                                         !
 ! D187  D(73,62,63,64)        -71.4099                                         !
 ! D188  D(73,62,63,75)         49.6639                                         !
 ! D189  D(73,62,63,76)        165.73                                           !
 ! D190  D(74,62,63,64)        175.1765                                         !
 ! D191  D(74,62,63,75)        -63.7497                                         !
 ! D192  D(74,62,63,76)         52.3165                                         !
 ! D193  D(62,63,64,65)       -125.9104                                         !
 ! D194  D(62,63,64,77)        109.5054                                         !
 ! D195  D(75,63,64,65)        112.8597                                         !
 ! D196  D(75,63,64,77)        -11.7244                                         !
 ! D197  D(76,63,64,65)         -1.5301                                         !
 ! D198  D(76,63,64,77)       -126.1143                                         !
 ! D199  D(63,64,65,66)         20.3572                                         !
 ! D200  D(63,64,65,67)       -158.6962                                         !
 ! D201  D(77,64,65,66)        145.63                                           !
 ! D202  D(77,64,65,67)        -33.4234                                         !
 ! D203  D(64,65,66,78)        175.6717                                         !
 ! D204  D(64,65,66,79)         12.226                                          !
 ! D205  D(67,65,66,78)         -5.4189                                         !
 ! D206  D(67,65,66,79)       -168.8646                                         !
 ! D207  D(64,65,67,80)        -28.7727                                         !
 ! D208  D(64,65,67,81)       -166.5324                                         !
 ! D209  D(66,65,67,80)        152.2381                                         !
 ! D210  D(66,65,67,81)         14.4784                                         !
 --------------------------------------------------------------------------------
 Symmetry turned off by external request.
 Stoichiometry    C26H39N8O8(1+)
 Framework group  C1[X(C26H39N8O8)]
 Deg. of freedom   237
 Full point group                 C1      NOp   1
                          Input orientation:                          
 ---------------------------------------------------------------------
 Center     Atomic      Atomic             Coordinates (Angstroms)
 Number     Number       Type             X           Y           Z
 ---------------------------------------------------------------------
      1          7           0       11.241885   31.431105    9.704773
      2          6           0       12.506432   32.119097   10.200249
      3          6           0       13.530993   31.160594   10.862600
      4          8           0       14.648505   31.139638   10.363252
      5          6           0       12.236504   33.334368   11.095263
      6          6           0       11.515748   34.530964   10.418556
      7          6           0       10.009856   34.455672   10.520305
      8          8           0        9.342766   35.023687   11.358187
      9          8           0        9.445760   33.631623    9.592399
     10          1           0        8.454413   33.557989    9.796570
     11          1           0       11.463244   30.762025    8.951106
     12          1           0       13.006945   32.444784    9.286608
     13          1           0       11.754072   33.060845   12.038303
     14          1           0       13.233776   33.680228   11.387080
     15          1           0       11.813791   34.619477    9.367165
     16          1           0       11.810164   35.446949   10.934396
     17          1           0       10.784683   30.866314   10.427960
     18          1           0       10.551023   32.130343    9.373801
     19          7           0       13.244655   30.530870   12.032633
     20          6           0       12.006870   30.080658   12.652066
     21          6           0       12.293958   29.983567   14.165236
     22          8           0       13.400197   29.580434   14.504071
     23          6           0       11.645957   28.626523   12.195798
     24          6           0       11.413220   28.498556   10.722902
     25          6           0       12.359327   28.565636    9.728164
     26          6           0       10.128060   28.377604   10.064385
     27          6           0       10.364334   28.414186    8.664482
     28          6           0        8.814022   28.186920   10.528997
     29          7           0       11.734232   28.600287    8.481622
     30          6           0        9.337555   28.282295    7.725200
     31          6           0        7.792092   28.035031    9.600291
     32          6           0        8.049603   28.088722    8.214289
     33          1           0       14.060557   30.105738   12.472954
     34          1           0       11.191235   30.772921   12.435216
     35          1           0       10.758812   28.302218   12.751454
     36          1           0       12.472970   27.988049   12.523285
     37          1           0       13.435637   28.639300    9.796036
     38          1           0       12.214411   28.369559    7.621019
     39          1           0        8.605377   28.126735   11.593596
     40          1           0        9.539124   28.301109    6.657959
     41          1           0        6.776695   27.864027    9.944688
     42          1           0        7.229674   27.957801    7.514680
     43          7           0       11.281875   30.164354   15.056451
     44          6           0       10.071947   30.980136   14.963665
     45          6           0       10.320877   32.285412   14.213817
     46          8           0       11.437878   32.803249   14.207807
     47          6           0        9.631585   31.314771   16.449070
     48          6           0       10.622390   32.207493   17.191114
     49          8           0        8.392010   31.974686   16.488439
     50          1           0        7.702270   31.372557   16.160183
     51          1           0       11.617055   29.993674   15.999124
     52          1           0        9.250219   30.419053   14.509455
     53          1           0        9.572397   30.332367   16.948547
     54          1           0       10.294750   32.300008   18.229692
     55          1           0       10.639179   33.204493   16.743466
     56          1           0       11.643195   31.815239   17.178646
     57          7           0        9.273095   32.938230   13.614697
     58          6           0        8.046515   32.498222   12.939896
     59          6           0        6.921748   31.976152   13.851127
     60          8           0        5.848202   32.749225   13.956037
     61          6           0        8.308226   31.486390   11.813355
     62          6           0        7.097304   31.157763   10.913404
     63          6           0        6.090344   32.278419   10.614775
     64          7           0        6.669968   33.539703   10.062413
     65          6           0        6.368079   34.756089   10.740789
     66          7           0        5.971783   34.751595   11.963760
     67          7           0        6.532786   35.859589    9.935502
     68          8           0        6.980559   30.884096   14.388690
     69          1           0        9.561672   33.863811   13.313846
     70          1           0        7.695540   33.418271   12.483054
     71          1           0        8.685798   30.551282   12.239307
     72          1           0        9.110126   31.917247   11.212253
     73          1           0        7.472837   30.733127    9.976628
     74          1           0        6.515395   30.358010   11.386373
     75          1           0        5.361840   31.898623    9.891479
     76          1           0        5.527157   32.536231   11.508924
     77          1           0        6.405791   33.642052    9.084186
     78          1           0        5.863152   35.694441   12.334479
     79          1           0        5.891072   33.531814   13.334994
     80          1           0        7.219627   35.800212    9.193822
     81          1           0        6.542138   36.757322   10.402684
 ---------------------------------------------------------------------
 Rotational constants (GHZ):           0.0955088           0.0812020           0.0659213
 Standard basis: 6-31G(d) (6D, 7F)
   708 basis functions,  1332 primitive gaussians,   708 cartesian basis functions
   157 alpha electrons      157 beta electrons
       nuclear repulsion energy      5857.9239851083 Hartrees.
 NAtoms=   81 NActive=   81 NUniq=   81 SFac= 1.00D+00 NAtFMM=   60 NAOKFM=T Big=T
 Integral buffers will be    131072 words long.
 Raffenetti 2 integral format.
 Two-electron integral symmetry is turned off.
 Nuclear repulsion after empirical dispersion term =     5857.7840036634 Hartrees.
 One-electron integrals computed using PRISM.
 NBasis=   708 RedAO= T EigKep=  3.70D-04  NBF=   708
 NBsUse=   708 1.00D-06 EigRej= -1.00D+00 NBFU=   708
 Initial guess from the checkpoint file:  "conf-472.chk"
 B after Tr=     0.000000    0.000000    0.000000
         Rot=    1.000000    0.000000    0.000000    0.000000 Ang=   0.00 deg.
 Requested convergence on RMS density matrix=1.00D-08 within 128 cycles.
 Requested convergence on MAX density matrix=1.00D-06.
 Requested convergence on             energy=1.00D-06.
 No special actions if energy rises.
 SCF Done:  E(RB3LYP) =  -2054.02588130     A.U. after    2 cycles
            NFock=  2  Conv=0.70D-08     -V/T= 2.0092

 **********************************************************************

            Population analysis using the SCF Density.

 **********************************************************************

 Alpha  occ. eigenvalues --  -19.33204 -19.27825 -19.27672 -19.23105 -19.23053
 Alpha  occ. eigenvalues --  -19.21891 -19.21865 -19.21381 -14.58962 -14.50627
 Alpha  occ. eigenvalues --  -14.49896 -14.48113 -14.47226 -14.46414 -14.45626
 Alpha  occ. eigenvalues --  -14.43151 -10.45966 -10.42587 -10.41650 -10.41447
 Alpha  occ. eigenvalues --  -10.39365 -10.39129 -10.39014 -10.35922 -10.34483
 Alpha  occ. eigenvalues --  -10.34194 -10.34063 -10.33960 -10.33481 -10.33333
 Alpha  occ. eigenvalues --  -10.33277 -10.32929 -10.31474 -10.30992 -10.30832
 Alpha  occ. eigenvalues --  -10.30763 -10.30734 -10.30645 -10.30298 -10.29989
 Alpha  occ. eigenvalues --  -10.29578 -10.24715  -1.23841  -1.19125  -1.15812
 Alpha  occ. eigenvalues --   -1.15089  -1.14231  -1.13600  -1.13329  -1.11516
 Alpha  occ. eigenvalues --   -1.11049  -1.10056  -1.09832  -1.03854  -1.02693
 Alpha  occ. eigenvalues --   -1.02197  -1.01953  -0.98302  -0.95745  -0.94492
 Alpha  occ. eigenvalues --   -0.92384  -0.91688  -0.88154  -0.87198  -0.85897
 Alpha  occ. eigenvalues --   -0.85306  -0.84872  -0.83626  -0.80362  -0.79169
 Alpha  occ. eigenvalues --   -0.78686  -0.78173  -0.74516  -0.73938  -0.73772
 Alpha  occ. eigenvalues --   -0.73719  -0.72158  -0.71447  -0.71099  -0.70878
 Alpha  occ. eigenvalues --   -0.70092  -0.69356  -0.67992  -0.67724  -0.67565
 Alpha  occ. eigenvalues --   -0.67419  -0.65488  -0.65404  -0.64958  -0.63441
 Alpha  occ. eigenvalues --   -0.63242  -0.62443  -0.61991  -0.60656  -0.60529
 Alpha  occ. eigenvalues --   -0.59845  -0.59569  -0.59234  -0.59081  -0.58890
 Alpha  occ. eigenvalues --   -0.58711  -0.58459  -0.57561  -0.57367  -0.56625
 Alpha  occ. eigenvalues --   -0.56203  -0.55616  -0.55512  -0.54951  -0.54648
 Alpha  occ. eigenvalues --   -0.54166  -0.53937  -0.53642  -0.53538  -0.53146
 Alpha  occ. eigenvalues --   -0.52648  -0.52334  -0.52162  -0.51614  -0.51102
 Alpha  occ. eigenvalues --   -0.50926  -0.50256  -0.49961  -0.49493  -0.49222
 Alpha  occ. eigenvalues --   -0.48736  -0.48565  -0.47949  -0.47770  -0.47432
 Alpha  occ. eigenvalues --   -0.47051  -0.46793  -0.46591  -0.46195  -0.45726
 Alpha  occ. eigenvalues --   -0.45497  -0.45085  -0.44847  -0.44633  -0.44077
 Alpha  occ. eigenvalues --   -0.41616  -0.41135  -0.41002  -0.40179  -0.39791
 Alpha  occ. eigenvalues --   -0.39671  -0.38063  -0.37369  -0.37306  -0.36868
 Alpha  occ. eigenvalues --   -0.36554  -0.35538  -0.34923  -0.34603  -0.34398
 Alpha  occ. eigenvalues --   -0.34073  -0.32593
 Alpha virt. eigenvalues --   -0.13987  -0.13472  -0.11317  -0.10408  -0.10082
 Alpha virt. eigenvalues --   -0.09699  -0.09067  -0.08022  -0.07820  -0.06582
 Alpha virt. eigenvalues --   -0.05937  -0.04225  -0.03225  -0.02759  -0.02485
 Alpha virt. eigenvalues --   -0.02026  -0.01452  -0.00967  -0.00522  -0.00099
 Alpha virt. eigenvalues --    0.00169   0.00725   0.01119   0.01539   0.01861
 Alpha virt. eigenvalues --    0.01968   0.02537   0.02737   0.03517   0.03817
 Alpha virt. eigenvalues --    0.04059   0.04253   0.04462   0.05270   0.05738
 Alpha virt. eigenvalues --    0.06073   0.06159   0.06667   0.06876   0.07225
 Alpha virt. eigenvalues --    0.07391   0.07760   0.08056   0.08105   0.08439
 Alpha virt. eigenvalues --    0.08955   0.09135   0.09251   0.09592   0.10161
 Alpha virt. eigenvalues --    0.10384   0.10803   0.10947   0.11602   0.11879
 Alpha virt. eigenvalues --    0.12183   0.12411   0.13138   0.13319   0.13457
 Alpha virt. eigenvalues --    0.13985   0.14405   0.14697   0.14870   0.15591
 Alpha virt. eigenvalues --    0.15778   0.16048   0.16526   0.16822   0.17426
 Alpha virt. eigenvalues --    0.19003   0.19709   0.20367   0.20785   0.21678
 Alpha virt. eigenvalues --    0.22730   0.23096   0.23426   0.23774   0.24929
 Alpha virt. eigenvalues --    0.26629   0.27676   0.28328   0.29030   0.29818
 Alpha virt. eigenvalues --    0.30736   0.31687   0.32045   0.32352   0.32888
 Alpha virt. eigenvalues --    0.34602   0.36612   0.37067   0.37624   0.38315
 Alpha virt. eigenvalues --    0.38851   0.39527   0.40424   0.41093   0.41409
 Alpha virt. eigenvalues --    0.42076   0.42317   0.43389   0.43623   0.43879
 Alpha virt. eigenvalues --    0.44432   0.44767   0.45160   0.45281   0.45547
 Alpha virt. eigenvalues --    0.46067   0.46526   0.46580   0.46721   0.47317
 Alpha virt. eigenvalues --    0.47695   0.47947   0.48291   0.48407   0.49146
 Alpha virt. eigenvalues --    0.49455   0.49672   0.50232   0.50326   0.50666
 Alpha virt. eigenvalues --    0.51445   0.51545   0.51905   0.52517   0.53244
 Alpha virt. eigenvalues --    0.53401   0.54052   0.54404   0.54540   0.55000
 Alpha virt. eigenvalues --    0.55363   0.55700   0.56308   0.56743   0.57628
 Alpha virt. eigenvalues --    0.58007   0.58580   0.58981   0.59435   0.59501
 Alpha virt. eigenvalues --    0.59865   0.60883   0.61019   0.61656   0.62511
 Alpha virt. eigenvalues --    0.62684   0.63377   0.64070   0.64328   0.64991
 Alpha virt. eigenvalues --    0.65925   0.66484   0.66824   0.67217   0.68142
 Alpha virt. eigenvalues --    0.68607   0.69373   0.69429   0.69674   0.70181
 Alpha virt. eigenvalues --    0.70610   0.71016   0.71068   0.71748   0.71831
 Alpha virt. eigenvalues --    0.72206   0.72832   0.73199   0.73605   0.73875
 Alpha virt. eigenvalues --    0.74236   0.74524   0.74645   0.74876   0.75535
 Alpha virt. eigenvalues --    0.75825   0.76090   0.76498   0.76653   0.77099
 Alpha virt. eigenvalues --    0.77334   0.78018   0.78177   0.78290   0.78653
 Alpha virt. eigenvalues --    0.78806   0.79630   0.79980   0.80040   0.80669
 Alpha virt. eigenvalues --    0.80732   0.81147   0.81370   0.81972   0.82554
 Alpha virt. eigenvalues --    0.83094   0.83304   0.83604   0.84338   0.84663
 Alpha virt. eigenvalues --    0.85240   0.85710   0.85958   0.86314   0.87310
 Alpha virt. eigenvalues --    0.87470   0.87581   0.88400   0.88531   0.88791
 Alpha virt. eigenvalues --    0.89885   0.89926   0.90540   0.90908   0.91403
 Alpha virt. eigenvalues --    0.91812   0.92191   0.93051   0.93804   0.94586
 Alpha virt. eigenvalues --    0.94942   0.95609   0.96121   0.96915   0.97106
 Alpha virt. eigenvalues --    0.97827   0.97988   0.98574   0.99272   0.99860
 Alpha virt. eigenvalues --    1.00087   1.01126   1.01372   1.02821   1.03790
 Alpha virt. eigenvalues --    1.04110   1.04734   1.05589   1.06689   1.07321
 Alpha virt. eigenvalues --    1.07984   1.08136   1.08293   1.08983   1.10009
 Alpha virt. eigenvalues --    1.10187   1.10796   1.11063   1.12159   1.12717
 Alpha virt. eigenvalues --    1.13918   1.14114   1.15202   1.15824   1.16412
 Alpha virt. eigenvalues --    1.16672   1.17485   1.18667   1.19491   1.20263
 Alpha virt. eigenvalues --    1.20966   1.21453   1.22017   1.22827   1.23775
 Alpha virt. eigenvalues --    1.25158   1.25487   1.25960   1.27159   1.27936
 Alpha virt. eigenvalues --    1.28578   1.28664   1.29217   1.30280   1.30964
 Alpha virt. eigenvalues --    1.31203   1.31658   1.31905   1.33312   1.34323
 Alpha virt. eigenvalues --    1.34887   1.35379   1.36119   1.36512   1.37026
 Alpha virt. eigenvalues --    1.38348   1.39131   1.39874   1.40450   1.40627
 Alpha virt. eigenvalues --    1.41445   1.42972   1.43218   1.43735   1.44745
 Alpha virt. eigenvalues --    1.45262   1.46316   1.46507   1.48275   1.49441
 Alpha virt. eigenvalues --    1.49694   1.50646   1.51182   1.51475   1.53335
 Alpha virt. eigenvalues --    1.53389   1.54104   1.55453   1.56039   1.56425
 Alpha virt. eigenvalues --    1.57577   1.59131   1.59977   1.60453   1.61774
 Alpha virt. eigenvalues --    1.62006   1.62329   1.63027   1.63927   1.64297
 Alpha virt. eigenvalues --    1.64673   1.64905   1.65597   1.65876   1.66850
 Alpha virt. eigenvalues --    1.67401   1.68239   1.68670   1.68793   1.69389
 Alpha virt. eigenvalues --    1.69477   1.70542   1.71090   1.71306   1.71455
 Alpha virt. eigenvalues --    1.72165   1.72736   1.73689   1.73821   1.74133
 Alpha virt. eigenvalues --    1.74841   1.75905   1.76226   1.76446   1.76731
 Alpha virt. eigenvalues --    1.77055   1.77466   1.78165   1.78302   1.78906
 Alpha virt. eigenvalues --    1.79737   1.79889   1.80360   1.80793   1.80900
 Alpha virt. eigenvalues --    1.81611   1.82218   1.82766   1.83424   1.84323
 Alpha virt. eigenvalues --    1.84783   1.85933   1.86720   1.86791   1.87274
 Alpha virt. eigenvalues --    1.88229   1.88452   1.89000   1.89717   1.90285
 Alpha virt. eigenvalues --    1.90674   1.90935   1.91230   1.91823   1.92252
 Alpha virt. eigenvalues --    1.92806   1.93588   1.93758   1.94767   1.95997
 Alpha virt. eigenvalues --    1.96559   1.97419   1.98057   1.99120   1.99748
 Alpha virt. eigenvalues --    2.00493   2.00816   2.01655   2.01970   2.02835
 Alpha virt. eigenvalues --    2.03127   2.04271   2.05639   2.05833   2.07158
 Alpha virt. eigenvalues --    2.07607   2.08317   2.08800   2.10067   2.10508
 Alpha virt. eigenvalues --    2.11216   2.11292   2.13084   2.13638   2.13837
 Alpha virt. eigenvalues --    2.14025   2.15186   2.15267   2.15500   2.16202
 Alpha virt. eigenvalues --    2.17636   2.18437   2.18767   2.20345   2.20751
 Alpha virt. eigenvalues --    2.22708   2.23225   2.23344   2.24259   2.24744
 Alpha virt. eigenvalues --    2.25888   2.25961   2.26922   2.27764   2.29139
 Alpha virt. eigenvalues --    2.29513   2.30749   2.31260   2.31947   2.32319
 Alpha virt. eigenvalues --    2.33280   2.34217   2.34784   2.35694   2.36155
 Alpha virt. eigenvalues --    2.37124   2.38325   2.39542   2.40150   2.40553
 Alpha virt. eigenvalues --    2.41301   2.42547   2.43485   2.44382   2.44889
 Alpha virt. eigenvalues --    2.45383   2.46140   2.47376   2.47855   2.49003
 Alpha virt. eigenvalues --    2.49585   2.50042   2.51279   2.52538   2.52816
 Alpha virt. eigenvalues --    2.53787   2.54496   2.54874   2.55674   2.56044
 Alpha virt. eigenvalues --    2.56262   2.57067   2.57443   2.57592   2.58443
 Alpha virt. eigenvalues --    2.58887   2.60270   2.61149   2.61881   2.63153
 Alpha virt. eigenvalues --    2.63811   2.64382   2.65995   2.66380   2.67420
 Alpha virt. eigenvalues --    2.68692   2.69423   2.71167   2.71744   2.72389
 Alpha virt. eigenvalues --    2.73870   2.75379   2.80677   2.81867   2.84973
 Alpha virt. eigenvalues --    2.86755   2.86942   2.87269   2.88212   2.88459
 Alpha virt. eigenvalues --    2.89166   2.89894   2.91985   2.93983   2.94340
 Alpha virt. eigenvalues --    2.95421   2.97826   2.98921   3.00330   3.02185
 Alpha virt. eigenvalues --    3.04404   3.09876   3.12840   3.32404   3.68888
 Alpha virt. eigenvalues --    3.75577   3.76931   3.84255   3.85213   3.86618
 Alpha virt. eigenvalues --    3.89924   3.94048   3.94484   3.99728   3.99807
 Alpha virt. eigenvalues --    4.00074   4.02080   4.04200   4.05449   4.07273
 Alpha virt. eigenvalues --    4.08740   4.10729   4.12362   4.14123   4.15623
 Alpha virt. eigenvalues --    4.20157   4.21601   4.24128   4.25459   4.26201
 Alpha virt. eigenvalues --    4.27625   4.28351   4.30945   4.34153   4.36849
 Alpha virt. eigenvalues --    4.37934   4.40071   4.45013   4.46023   4.47331
 Alpha virt. eigenvalues --    4.47872   4.56753   4.62800   4.65821   4.68392
 Alpha virt. eigenvalues --    4.69648
          Condensed to atoms (all electrons):
 Mulliken charges:
               1
     1  N   -0.814866
     2  C   -0.110542
     3  C    0.580417
     4  O   -0.479726
     5  C   -0.340292
     6  C   -0.358204
     7  C    0.579328
     8  O   -0.452556
     9  O   -0.651444
    10  H    0.471112
    11  H    0.429577
    12  H    0.216583
    13  H    0.234028
    14  H    0.225221
    15  H    0.181352
    16  H    0.219922
    17  H    0.424616
    18  H    0.433571
    19  N   -0.564001
    20  C   -0.084019
    21  C    0.655309
    22  O   -0.511721
    23  C   -0.359499
    24  C    0.045517
    25  C   -0.050880
    26  C    0.059091
    27  C    0.260227
    28  C   -0.214162
    29  N   -0.695598
    30  C   -0.170326
    31  C   -0.142398
    32  C   -0.152774
    33  H    0.376384
    34  H    0.125916
    35  H    0.178265
    36  H    0.201544
    37  H    0.207401
    38  H    0.359271
    39  H    0.157049
    40  H    0.154633
    41  H    0.155129
    42  H    0.158416
    43  N   -0.622148
    44  C   -0.056025
    45  C    0.591169
    46  O   -0.522387
    47  C    0.094963
    48  C   -0.455803
    49  O   -0.627418
    50  H    0.428910
    51  H    0.352197
    52  H    0.182555
    53  H    0.143384
    54  H    0.180205
    55  H    0.178082
    56  H    0.155580
    57  N   -0.615250
    58  C   -0.082701
    59  C    0.647343
    60  O   -0.581559
    61  C   -0.297717
    62  C   -0.293274
    63  C   -0.172199
    64  N   -0.683006
    65  C    0.688682
    66  N   -0.697441
    67  N   -0.749348
    68  O   -0.497717
    69  H    0.358736
    70  H    0.189993
    71  H    0.169797
    72  H    0.089184
    73  H    0.151748
    74  H    0.185163
    75  H    0.177941
    76  H    0.208575
    77  H    0.353575
    78  H    0.319851
    79  H    0.470758
    80  H    0.340485
    81  H    0.358246
 Sum of Mulliken charges =   1.00000
 Mulliken charges with hydrogens summed into heavy atoms:
               1
     1  N    0.472899
     2  C    0.106041
     3  C    0.580417
     4  O   -0.479726
     5  C    0.118957
     6  C    0.043070
     7  C    0.579328
     8  O   -0.452556
     9  O   -0.180332
    19  N   -0.187617
    20  C    0.041897
    21  C    0.655309
    22  O   -0.511721
    23  C    0.020310
    24  C    0.045517
    25  C    0.156522
    26  C    0.059091
    27  C    0.260227
    28  C   -0.057113
    29  N   -0.336327
    30  C   -0.015693
    31  C    0.012731
    32  C    0.005642
    43  N   -0.269951
    44  C    0.126530
    45  C    0.591169
    46  O   -0.522387
    47  C    0.238347
    48  C    0.058064
    49  O   -0.198508
    57  N   -0.256513
    58  C    0.107291
    59  C    0.647343
    60  O   -0.110801
    61  C   -0.038737
    62  C    0.043637
    63  C    0.214317
    64  N   -0.329431
    65  C    0.688682
    66  N   -0.377590
    67  N   -0.050617
    68  O   -0.497717
 Electronic spatial extent (au):  <R**2>=        1394355.5424
 Charge=              1.0000 electrons
 Dipole moment (field-independent basis, Debye):
    X=             43.8287    Y=            154.6516    Z=             43.1745  Tot=            166.4395
 Quadrupole moment (field-independent basis, Debye-Ang):
   XX=            157.8081   YY=           4781.7146   ZZ=            149.5700
   XY=           1396.4552   XZ=            389.6170   YZ=           1394.6689
 Traceless Quadrupole moment (field-independent basis, Debye-Ang):
   XX=          -1538.5561   YY=           3085.3504   ZZ=          -1546.7943
   XY=           1396.4552   XZ=            389.6170   YZ=           1394.6689
 Octapole moment (field-independent basis, Debye-Ang**2):
  XXX=          -3607.3928  YYY=         141891.1115  ZZZ=          -4999.0116  XYY=          42504.9745
  XXY=           5035.0260  XXZ=            532.8400  XZZ=           1158.1060  YZZ=           5021.1166
  YYZ=          42612.8476  XYZ=          12451.3444
 Hexadecapole moment (field-independent basis, Debye-Ang**3):
 XXXX=        -120586.0976 YYYY=        4009976.7686 ZZZZ=        -177868.9925 XXXY=        -111991.4404
 XXXZ=         -57448.9719 YYYX=        1232901.5067 YYYZ=        1226973.4836 ZZZX=         -51209.3356
 ZZZY=        -155977.4283 XXYY=         138385.0038 XXZZ=         -30871.3974 YYZZ=         135882.6839
 XXYZ=          17745.0234 YYXZ=         373326.8407 ZZXY=          38392.7685
 N-N= 5.857784003663D+03 E-N=-1.646850567901D+04  KE= 2.035205786155D+03
 Unable to Open any file for archive entry.
 1\1\GINC-SKL-132\SP\RB3LYP\6-31G(d)\C26H39N8O8(1+)\KENGMITH\27-May-202
 2\0\\# B3LYP/6-31G* empiricaldispersion=gd3 guess=read geom=check nosy
 mm integral(ultrafinegrid)\\Candidate Structure: Conf:472 Charge calc 
 in gas phase\\1,1\N,0,11.2418854786,31.4311048759,9.7047734853\C,0,12.
 5064320429,32.1190974853,10.2002485976\C,0,13.5309933623,31.1605937662
 ,10.8626002978\O,0,14.648504792,31.1396382194,10.3632523358\C,0,12.236
 5036912,33.3343676215,11.0952632889\C,0,11.5157481724,34.5309640804,10
 .4185563111\C,0,10.0098556241,34.4556715515,10.5203045766\O,0,9.342765
 9081,35.0236872306,11.3581865515\O,0,9.4457597713,33.6316227928,9.5923
 990224\H,0,8.454413246,33.557989132,9.7965695614\H,0,11.46324399,30.76
 20247633,8.95110631\H,0,13.006944599,32.4447840281,9.2866075809\H,0,11
 .7540715671,33.0608454815,12.0383032866\H,0,13.2337755562,33.680228095
 2,11.3870804488\H,0,11.8137911403,34.6194768456,9.3671650762\H,0,11.81
 01636543,35.4469492701,10.9343959402\H,0,10.7846826006,30.8663141359,1
 0.427959762\H,0,10.5510229801,32.1303426408,9.3738014749\N,0,13.244655
 4037,30.530870229,12.0326331879\C,0,12.0068700311,30.0806583098,12.652
 066051\C,0,12.293958463,29.9835669074,14.165235955\O,0,13.4001973562,2
 9.5804335723,14.5040708776\C,0,11.6459571642,28.6265229377,12.19579770
 13\C,0,11.413219735,28.498556265,10.7229016151\C,0,12.3593269986,28.56
 56363718,9.7281637402\C,0,10.1280603464,28.3776036856,10.0643846045\C,
 0,10.3643342474,28.4141862236,8.66448177\C,0,8.814021588,28.1869203214
 ,10.5289966157\N,0,11.7342321239,28.6002865127,8.481621506\C,0,9.33755
 51318,28.2822950186,7.7252002287\C,0,7.7920919104,28.0350306265,9.6002
 908672\C,0,8.0496030524,28.0887216665,8.2142893878\H,0,14.0605568051,3
 0.1057377288,12.4729539846\H,0,11.1912345977,30.7729211655,12.43521559
 85\H,0,10.7588122009,28.3022182221,12.7514537516\H,0,12.472969887,27.9
 880491919,12.5232845502\H,0,13.4356368707,28.6393002701,9.7960356838\H
 ,0,12.2144114226,28.3695589728,7.621019415\H,0,8.6053772268,28.1267347
 121,11.5935960388\H,0,9.5391235032,28.3011092442,6.657959056\H,0,6.776
 6950815,27.8640272856,9.9446877193\H,0,7.2296740109,27.9578010011,7.51
 46800935\N,0,11.2818751926,30.164354024,15.0564512717\C,0,10.071947195
 4,30.9801355074,14.9636648894\C,0,10.3208767426,32.2854122552,14.21381
 72561\O,0,11.4378778437,32.803249023,14.2078065819\C,0,9.6315850836,31
 .3147705089,16.4490695173\C,0,10.622390182,32.2074931751,17.191114196\
 O,0,8.3920100107,31.9746860405,16.4884385781\H,0,7.7022703434,31.37255
 69059,16.1601834052\H,0,11.6170545798,29.9936740314,15.9991238544\H,0,
 9.2502187003,30.4190532896,14.5094551726\H,0,9.5723967226,30.332366918
 3,16.9485472611\H,0,10.2947498228,32.3000076222,18.2296918348\H,0,10.6
 391785387,33.2044927683,16.7434657453\H,0,11.6431946755,31.8152390942,
 17.1786457026\N,0,9.2730952828,32.9382303506,13.6146968578\C,0,8.04651
 51346,32.4982223975,12.9398955574\C,0,6.9217483885,31.9761518514,13.85
 11273271\O,0,5.8482022204,32.7492254799,13.956036826\C,0,8.3082261446,
 31.4863899734,11.8133551679\C,0,7.0973038627,31.1577626194,10.91340427
 17\C,0,6.0903440884,32.2784190202,10.6147754923\N,0,6.6699682417,33.53
 9703453,10.0624132473\C,0,6.3680793383,34.7560891214,10.7407890049\N,0
 ,5.9717832781,34.7515953751,11.9637599689\N,0,6.5327857379,35.85958949
 08,9.9355015865\O,0,6.9805588349,30.8840962483,14.3886897504\H,0,9.561
 6718576,33.8638111294,13.3138462953\H,0,7.6955399757,33.4182707026,12.
 4830539654\H,0,8.68579767,30.5512824929,12.2393071042\H,0,9.1101256187
 ,31.9172466494,11.2122533202\H,0,7.4728374846,30.7331270501,9.97662801
 08\H,0,6.5153948395,30.3580102104,11.3863728335\H,0,5.3618401079,31.89
 86233123,9.8914785153\H,0,5.5271566087,32.5362312221,11.5089237451\H,0
 ,6.4057911809,33.6420524802,9.0841863417\H,0,5.8631522681,35.694440557
 3,12.3344793348\H,0,5.8910720649,33.5318142359,13.3349937825\H,0,7.219
 6267135,35.8002119969,9.1938215172\H,0,6.5421376182,36.7573218372,10.4
 026839716\\Version=ES64L-G16RevC.01\HF=-2054.0258813\RMSD=6.955e-09\Di
 pole=-1.2592538,1.3918665,-5.4394124\Quadrupole=-1143.8787734,2293.882
 4056,-1150.0036323,1038.2302373,289.6706699,1036.9021648\PG=C01 [X(C26
 H39N8O8)]\\@
 The archive entry for this job was punched.


 WE HAVE SEEN THAT MAN ON THE AVERAGE DOES NOT LIVE ABOVE
 TWO-AND-TWENTY YEARS.  DURING THESE TWO AND TWENTY
 YEARS HE IS LIABLE TO TWO AND TWENTY THOUSAND EVILS,
 MANY OF WHICH ARE INCURABLE.  YET EVEN IN THIS DREADFUL STATE
 MEN STILL STRUT AND POSE ON THE STAGE OF LIFE.
 THEY MAKE LOVE AT THE RISK OF DESTRUCTION,
 INTRIGUE, CARRY ON WAR, AND FORM PROJECTS, JUST AS IF THEY
 WERE TO LIVE IN LUXURY AND HAPPINESS FOR A THOUSAND
 AGES.

                                              -- VOLTAIRE
 Job cpu time:       0 days  0 hours  4 minutes 15.8 seconds.
 Elapsed time:       0 days  0 hours  1 minutes  5.2 seconds.
 File lengths (MBytes):  RWF=    376 Int=      0 D2E=      0 Chk=     56 Scr=     16
 Normal termination of Gaussian 16 at Fri May 27 05:11:09 2022.
