 Entering Gaussian System, Link 0=/opt/software/Gaussian/g16-AVX2-C.01/g16/g16
 Input=charge-conf-879.com
 Output=charge-conf-879.log
 Initial command:
 /opt/software/Gaussian/g16-AVX2-C.01/g16/l1.exe "/mnt/gs18/scratch/users/kengmith/Gau-26356.inp" -scrdir="/mnt/gs18/scratch/users/kengmith/"
 Entering Link 1 = /opt/software/Gaussian/g16-AVX2-C.01/g16/l1.exe PID=     26366.
  
 Copyright (c) 1988-2019, Gaussian, Inc.  All Rights Reserved.
  
 This is part of the Gaussian(R) 16 program.  It is based on
 the Gaussian(R) 09 system (copyright 2009, Gaussian, Inc.),
 the Gaussian(R) 03 system (copyright 2003, Gaussian, Inc.),
 the Gaussian(R) 98 system (copyright 1998, Gaussian, Inc.),
 the Gaussian(R) 94 system (copyright 1995, Gaussian, Inc.),
 the Gaussian 92(TM) system (copyright 1992, Gaussian, Inc.),
 the Gaussian 90(TM) system (copyright 1990, Gaussian, Inc.),
 the Gaussian 88(TM) system (copyright 1988, Gaussian, Inc.),
 the Gaussian 86(TM) system (copyright 1986, Carnegie Mellon
 University), and the Gaussian 82(TM) system (copyright 1983,
 Carnegie Mellon University). Gaussian is a federally registered
 trademark of Gaussian, Inc.
  
 This software contains proprietary and confidential information,
 including trade secrets, belonging to Gaussian, Inc.
  
 This software is provided under written license and may be
 used, copied, transmitted, or stored only in accord with that
 written license.
  
 The following legend is applicable only to US Government
 contracts under FAR:
  
                    RESTRICTED RIGHTS LEGEND
  
 Use, reproduction and disclosure by the US Government is
 subject to restrictions as set forth in subparagraphs (a)
 and (c) of the Commercial Computer Software - Restricted
 Rights clause in FAR 52.227-19.
  
 Gaussian, Inc.
 340 Quinnipiac St., Bldg. 40, Wallingford CT 06492
  
  
 ---------------------------------------------------------------
 Warning -- This program may not be used in any manner that
 competes with the business of Gaussian, Inc. or will provide
 assistance to any competitor of Gaussian, Inc.  The licensee
 of this program is prohibited from giving any competitor of
 Gaussian, Inc. access to this program.  By using this program,
 the user acknowledges that Gaussian, Inc. is engaged in the
 business of creating and licensing software in the field of
 computational chemistry and represents and warrants to the
 licensee that it is not a competitor of Gaussian, Inc. and that
 it will not use this program in any manner prohibited above.
 ---------------------------------------------------------------
  

 Cite this work as:
 Gaussian 16, Revision C.01,
 M. J. Frisch, G. W. Trucks, H. B. Schlegel, G. E. Scuseria, 
 M. A. Robb, J. R. Cheeseman, G. Scalmani, V. Barone, 
 G. A. Petersson, H. Nakatsuji, X. Li, M. Caricato, A. V. Marenich, 
 J. Bloino, B. G. Janesko, R. Gomperts, B. Mennucci, H. P. Hratchian, 
 J. V. Ortiz, A. F. Izmaylov, J. L. Sonnenberg, D. Williams-Young, 
 F. Ding, F. Lipparini, F. Egidi, J. Goings, B. Peng, A. Petrone, 
 T. Henderson, D. Ranasinghe, V. G. Zakrzewski, J. Gao, N. Rega, 
 G. Zheng, W. Liang, M. Hada, M. Ehara, K. Toyota, R. Fukuda, 
 J. Hasegawa, M. Ishida, T. Nakajima, Y. Honda, O. Kitao, H. Nakai, 
 T. Vreven, K. Throssell, J. A. Montgomery, Jr., J. E. Peralta, 
 F. Ogliaro, M. J. Bearpark, J. J. Heyd, E. N. Brothers, K. N. Kudin, 
 V. N. Staroverov, T. A. Keith, R. Kobayashi, J. Normand, 
 K. Raghavachari, A. P. Rendell, J. C. Burant, S. S. Iyengar, 
 J. Tomasi, M. Cossi, J. M. Millam, M. Klene, C. Adamo, R. Cammi, 
 J. W. Ochterski, R. L. Martin, K. Morokuma, O. Farkas, 
 J. B. Foresman, and D. J. Fox, Gaussian, Inc., Wallingford CT, 2019.
 
 ******************************************
 Gaussian 16:  ES64L-G16RevC.01  3-Jul-2019
                27-May-2022 
 ******************************************
 %mem=8gb
 %nproc=4
 Will use up to    4 processors via shared memory.
 %chk=conf-879.chk
 ----------------------------------------------------------------------
 # B3LYP/6-31G* empiricaldispersion=gd3 guess=read geom=check nosymm in
 tegral(ultrafinegrid)
 ----------------------------------------------------------------------
 1/29=2,38=1,172=1/1;
 2/12=2,15=1,40=1/2;
 3/5=1,6=6,7=1,11=2,14=-4,25=1,30=1,74=-5,75=-5,116=-2,124=31/1,2,3;
 4/5=1/1;
 5/5=2,38=6/2;
 6/7=2,8=2,9=2,10=2,28=1/1;
 99/5=1,9=1/99;
 ------------------------------------------------------
 Candidate Structure: Conf:879 Charge calc in gas phase
 ------------------------------------------------------
 Structure from the checkpoint file:  "conf-879.chk"
 Charge =  1 Multiplicity = 1
 Redundant internal coordinates found in file.  (old form).
 N,0,10.1620074901,29.7263076457,12.7533950921
 C,0,10.2887584596,29.1714328889,14.1490480599
 C,0,11.1697643826,30.0655620505,15.0581674752
 O,0,11.6538362774,29.5425732448,16.0513626431
 C,0,10.8481521482,27.7403788168,14.1023460915
 C,0,9.8729296794,26.6512927394,13.6138396471
 C,0,9.6897090197,26.5478091166,12.1052345
 O,0,9.9126605341,27.4582493892,11.3193442308
 O,0,9.2308921762,25.3921911085,11.6208007592
 H,0,9.1089496458,24.7287486735,12.3215803411
 H,0,10.0317531406,28.9391618016,12.0725847557
 H,0,9.278457513,29.1497618392,14.5602119635
 H,0,11.7717771567,27.7157962998,13.5109997727
 H,0,11.1356643507,27.5097698497,15.1298998511
 H,0,8.8735047793,26.8055544591,14.0474633394
 H,0,10.2186959236,25.6798949876,13.9885303813
 H,0,9.3476084214,30.3650269971,12.6749272816
 H,0,11.0109565416,30.2358292574,12.4933354499
 N,0,11.5082215796,31.3346587074,14.6610711593
 C,0,10.7249975369,32.4373433782,14.0734433205
 C,0,11.7596996549,33.571434343,13.89244366
 O,0,12.6323570811,33.7079715401,14.7471128179
 C,0,9.5489404111,32.9003304683,14.9802271349
 C,0,8.5262001816,31.8168445854,15.1306716059
 C,0,8.2455867215,31.0625064388,16.244199367
 C,0,7.7315028036,31.2651390567,14.0597723682
 C,0,7.0151566087,30.1529055215,14.5834720121
 C,0,7.6123493516,31.5732188144,12.6892224759
 N,0,7.3525539579,30.0526030682,15.922837775
 C,0,6.2118688008,29.3423540246,13.7720214898
 C,0,6.8241955235,30.7618004042,11.8749827645
 C,0,6.1365179344,29.653659572,12.4152752096
 H,0,12.20869938,31.7382058743,15.2886808772
 H,0,10.3196805729,32.159014861,13.1017198054
 H,0,9.0990850447,33.78185404,14.51008583
 H,0,9.9634048523,33.1948922363,15.9497021458
 H,0,8.6390319567,31.1483704154,17.2477035223
 H,0,6.8942898092,29.4565033036,16.5963567836
 H,0,8.0862520144,32.4520091102,12.2723010423
 H,0,5.6612885624,28.5010264886,14.184873276
 H,0,6.7299216554,31.0165213474,10.8223922508
 H,0,5.5166374456,29.0422617563,11.7661251027
 N,0,11.6913994042,34.3511926933,12.787513295
 C,0,10.6579656653,34.4652829647,11.7604292407
 C,0,11.3722866253,34.8054590667,10.4533499608
 O,0,12.2682259466,35.644507059,10.4610941468
 C,0,9.5903497651,35.5729891762,12.1385427642
 C,0,9.1992021244,36.5271592016,11.0107406883
 O,0,8.4438978089,34.9489345451,12.7040361462
 H,0,7.9800552848,34.530443487,11.9545836819
 H,0,12.4044107944,35.0754841507,12.7421267598
 H,0,10.1159423734,33.5311483277,11.6688355133
 H,0,10.0378290515,36.151485237,12.9534582325
 H,0,8.7711837775,35.9757108752,10.1694049059
 H,0,10.0628541086,37.0998870134,10.6612931096
 H,0,8.4476966454,37.2234736037,11.3938648684
 N,0,10.9427463989,34.2527854009,9.2710500549
 C,0,10.2573092825,32.9900252476,8.9614482276
 C,0,8.7458088269,32.9062675487,9.333726569
 O,0,8.0609070815,32.1399103088,8.5792329492
 C,0,11.0551947732,31.7786208388,9.5256918639
 C,0,10.3695525605,30.4019982271,9.6051630203
 C,0,9.8291418378,29.7379893153,8.3193248728
 N,0,10.5484328189,30.0768550836,7.0852225973
 C,0,10.0453473147,30.7934335124,6.0627900628
 N,0,8.9481733174,31.5178473657,6.2073734471
 N,0,10.7261452851,30.7726929168,4.8882396517
 O,0,8.3297633246,33.4981411483,10.3417487676
 H,0,11.4712896842,34.6480708969,8.5010403756
 H,0,10.2980273148,32.9357360693,7.8720446241
 H,0,11.3677670034,32.0336534081,10.5464750389
 H,0,11.9871133159,31.6965487683,8.9527896252
 H,0,11.0951580361,29.7154526591,10.0611811927
 H,0,9.5081841145,30.4621212409,10.280713072
 H,0,9.864464157,28.6500915933,8.4396327538
 H,0,8.7893483086,30.0203205625,8.1787363905
 H,0,11.4896501464,29.7242160097,6.9737920601
 H,0,8.5079739601,31.9081744238,5.3849148399
 H,0,8.557536641,31.7952391221,7.1853717172
 H,0,11.2823701524,29.9681276324,4.6352548489
 H,0,10.4326362674,31.367804707,4.1269756912
 Recover connectivity data from disk.
                           ----------------------------
                           !    Current Parameters    !
                           ! (Angstroms and Degrees)  !
 --------------------------                            --------------------------
 ! Name  Definition              Value                                          !
 --------------------------------------------------------------------------------
 ! R1    R(1,2)                  1.5072                                         !
 ! R2    R(1,11)                 1.0488                                         !
 ! R3    R(1,17)                 1.038                                          !
 ! R4    R(1,18)                 1.0237                                         !
 ! R5    R(2,3)                  1.5499                                         !
 ! R6    R(2,5)                  1.5372                                         !
 ! R7    R(2,12)                 1.091                                          !
 ! R8    R(3,4)                  1.2224                                         !
 ! R9    R(3,19)                 1.3722                                         !
 ! R10   R(5,6)                  1.5414                                         !
 ! R11   R(5,13)                 1.097                                          !
 ! R12   R(5,14)                 1.0917                                         !
 ! R13   R(6,7)                  1.5232                                         !
 ! R14   R(6,15)                 1.1003                                         !
 ! R15   R(6,16)                 1.0971                                         !
 ! R16   R(7,8)                  1.2232                                         !
 ! R17   R(7,9)                  1.3344                                         !
 ! R18   R(9,10)                 0.9727                                         !
 ! R19   R(19,20)                1.4747                                         !
 ! R20   R(19,33)                1.0234                                         !
 ! R21   R(20,21)                1.5458                                         !
 ! R22   R(20,23)                1.5555                                         !
 ! R23   R(20,34)                1.089                                          !
 ! R24   R(21,22)                1.2291                                         !
 ! R25   R(21,43)                1.3541                                         !
 ! R26   R(23,24)                1.4975                                         !
 ! R27   R(23,35)                1.0957                                         !
 ! R28   R(23,36)                1.0947                                         !
 ! R29   R(24,25)                1.3739                                         !
 ! R30   R(24,26)                1.4432                                         !
 ! R31   R(25,29)                1.3859                                         !
 ! R32   R(25,37)                1.0813                                         !
 ! R33   R(26,27)                1.4228                                         !
 ! R34   R(26,28)                1.4098                                         !
 ! R35   R(27,29)                1.3848                                         !
 ! R36   R(27,30)                1.4003                                         !
 ! R37   R(28,31)                1.3938                                         !
 ! R38   R(28,39)                1.082                                          !
 ! R39   R(29,38)                1.0094                                         !
 ! R40   R(30,32)                1.394                                          !
 ! R41   R(30,40)                1.0869                                         !
 ! R42   R(31,32)                1.4117                                         !
 ! R43   R(31,41)                1.0871                                         !
 ! R44   R(32,42)                1.086                                          !
 ! R45   R(43,44)                1.4615                                         !
 ! R46   R(43,51)                1.0174                                         !
 ! R47   R(44,45)                1.5279                                         !
 ! R48   R(44,47)                1.5842                                         !
 ! R49   R(44,52)                1.0839                                         !
 ! R50   R(45,46)                1.2275                                         !
 ! R51   R(45,57)                1.374                                          !
 ! R52   R(47,48)                1.5282                                         !
 ! R53   R(47,49)                1.4225                                         !
 ! R54   R(47,53)                1.095                                          !
 ! R55   R(48,54)                1.0932                                         !
 ! R56   R(48,55)                1.0936                                         !
 ! R57   R(48,56)                1.0938                                         !
 ! R58   R(49,50)                0.9757                                         !
 ! R59   R(57,58)                1.4698                                         !
 ! R60   R(57,69)                1.0142                                         !
 ! R61   R(58,59)                1.5589                                         !
 ! R62   R(58,61)                1.5564                                         !
 ! R63   R(58,70)                1.0915                                         !
 ! R64   R(59,60)                1.275                                          !
 ! R65   R(59,68)                1.2408                                         !
 ! R66   R(61,62)                1.54                                           !
 ! R67   R(61,71)                1.0976                                         !
 ! R68   R(61,72)                1.097                                          !
 ! R69   R(62,63)                1.5448                                         !
 ! R70   R(62,73)                1.0981                                         !
 ! R71   R(62,74)                1.0963                                         !
 ! R72   R(63,64)                1.4681                                         !
 ! R73   R(63,75)                1.0951                                         !
 ! R74   R(63,76)                1.0866                                         !
 ! R75   R(64,65)                1.3461                                         !
 ! R76   R(64,77)                1.0113                                         !
 ! R77   R(65,66)                1.3227                                         !
 ! R78   R(65,67)                1.3577                                         !
 ! R79   R(66,78)                1.0112                                         !
 ! R80   R(66,79)                1.089                                          !
 ! R81   R(67,80)                1.0103                                         !
 ! R82   R(67,81)                1.0099                                         !
 ! A1    A(2,1,11)             109.5852                                         !
 ! A2    A(2,1,17)             111.255                                          !
 ! A3    A(2,1,18)             110.4092                                         !
 ! A4    A(11,1,17)            108.3795                                         !
 ! A5    A(11,1,18)            108.1575                                         !
 ! A6    A(17,1,18)            108.9772                                         !
 ! A7    A(1,2,3)              112.2449                                         !
 ! A8    A(1,2,5)              110.1931                                         !
 ! A9    A(1,2,12)             106.1653                                         !
 ! A10   A(3,2,5)              110.3667                                         !
 ! A11   A(3,2,12)             108.4691                                         !
 ! A12   A(5,2,12)             109.2657                                         !
 ! A13   A(2,3,4)              117.0563                                         !
 ! A14   A(2,3,19)             120.2667                                         !
 ! A15   A(4,3,19)             122.2186                                         !
 ! A16   A(2,5,6)              115.9232                                         !
 ! A17   A(2,5,13)             110.0983                                         !
 ! A18   A(2,5,14)             105.3018                                         !
 ! A19   A(6,5,13)             110.2448                                         !
 ! A20   A(6,5,14)             108.4028                                         !
 ! A21   A(13,5,14)            106.3155                                         !
 ! A22   A(5,6,7)              115.9764                                         !
 ! A23   A(5,6,15)             110.532                                          !
 ! A24   A(5,6,16)             108.5408                                         !
 ! A25   A(7,6,15)             106.8928                                         !
 ! A26   A(7,6,16)             108.4223                                         !
 ! A27   A(15,6,16)            106.0107                                         !
 ! A28   A(6,7,8)              124.3213                                         !
 ! A29   A(6,7,9)              117.3707                                         !
 ! A30   A(8,7,9)              118.2948                                         !
 ! A31   A(7,9,10)             111.8539                                         !
 ! A32   A(3,19,20)            132.5236                                         !
 ! A33   A(3,19,33)            110.8575                                         !
 ! A34   A(20,19,33)           108.2425                                         !
 ! A35   A(19,20,21)           103.8712                                         !
 ! A36   A(19,20,23)           113.0675                                         !
 ! A37   A(19,20,34)           111.2306                                         !
 ! A38   A(21,20,23)           110.8521                                         !
 ! A39   A(21,20,34)           109.3992                                         !
 ! A40   A(23,20,34)           108.3503                                         !
 ! A41   A(20,21,22)           118.3809                                         !
 ! A42   A(20,21,43)           118.964                                          !
 ! A43   A(22,21,43)           122.6335                                         !
 ! A44   A(20,23,24)           111.0732                                         !
 ! A45   A(20,23,35)           107.4423                                         !
 ! A46   A(20,23,36)           108.0645                                         !
 ! A47   A(24,23,35)           110.1703                                         !
 ! A48   A(24,23,36)           111.3632                                         !
 ! A49   A(35,23,36)           108.5999                                         !
 ! A50   A(23,24,25)           128.1806                                         !
 ! A51   A(23,24,26)           125.3184                                         !
 ! A52   A(25,24,26)           106.2032                                         !
 ! A53   A(24,25,29)           110.106                                          !
 ! A54   A(24,25,37)           129.364                                          !
 ! A55   A(29,25,37)           120.4996                                         !
 ! A56   A(24,26,27)           107.6347                                         !
 ! A57   A(24,26,28)           133.1876                                         !
 ! A58   A(27,26,28)           119.084                                          !
 ! A59   A(26,27,29)           106.854                                          !
 ! A60   A(26,27,30)           121.8718                                         !
 ! A61   A(29,27,30)           131.1712                                         !
 ! A62   A(26,28,31)           119.2428                                         !
 ! A63   A(26,28,39)           121.0026                                         !
 ! A64   A(31,28,39)           119.6973                                         !
 ! A65   A(25,29,27)           109.1765                                         !
 ! A66   A(25,29,38)           124.6203                                         !
 ! A67   A(27,29,38)           125.2731                                         !
 ! A68   A(27,30,32)           117.7582                                         !
 ! A69   A(27,30,40)           121.2342                                         !
 ! A70   A(32,30,40)           121.0071                                         !
 ! A71   A(28,31,32)           120.5893                                         !
 ! A72   A(28,31,41)           118.5744                                         !
 ! A73   A(32,31,41)           120.8163                                         !
 ! A74   A(30,32,31)           121.4304                                         !
 ! A75   A(30,32,42)           119.1353                                         !
 ! A76   A(31,32,42)           119.4195                                         !
 ! A77   A(21,43,44)           130.85                                           !
 ! A78   A(21,43,51)           114.2688                                         !
 ! A79   A(44,43,51)           114.1198                                         !
 ! A80   A(43,44,45)           106.7381                                         !
 ! A81   A(43,44,47)           111.3078                                         !
 ! A82   A(43,44,52)           110.2259                                         !
 ! A83   A(45,44,47)           111.3196                                         !
 ! A84   A(45,44,52)           110.6949                                         !
 ! A85   A(47,44,52)           106.6052                                         !
 ! A86   A(44,45,46)           119.2111                                         !
 ! A87   A(44,45,57)           120.0281                                         !
 ! A88   A(46,45,57)           120.5682                                         !
 ! A89   A(44,47,48)           115.6529                                         !
 ! A90   A(44,47,49)           109.345                                          !
 ! A91   A(44,47,53)           105.7613                                         !
 ! A92   A(48,47,49)           111.1619                                         !
 ! A93   A(48,47,53)           108.9031                                         !
 ! A94   A(49,47,53)           105.3831                                         !
 ! A95   A(47,48,54)           110.6841                                         !
 ! A96   A(47,48,55)           111.1411                                         !
 ! A97   A(47,48,56)           108.351                                          !
 ! A98   A(54,48,55)           109.1137                                         !
 ! A99   A(54,48,56)           108.7648                                         !
 ! A100  A(55,48,56)           108.7304                                         !
 ! A101  A(47,49,50)           105.4235                                         !
 ! A102  A(45,57,58)           132.2717                                         !
 ! A103  A(45,57,69)           109.4892                                         !
 ! A104  A(58,57,69)           114.7072                                         !
 ! A105  A(57,58,59)           116.6171                                         !
 ! A106  A(57,58,61)           110.6869                                         !
 ! A107  A(57,58,70)           103.6254                                         !
 ! A108  A(59,58,61)           111.6325                                         !
 ! A109  A(59,58,70)           105.7738                                         !
 ! A110  A(61,58,70)           107.6972                                         !
 ! A111  A(58,59,60)           114.3187                                         !
 ! A112  A(58,59,68)           119.5703                                         !
 ! A113  A(60,59,68)           125.969                                          !
 ! A114  A(58,61,62)           119.093                                          !
 ! A115  A(58,61,71)           107.5952                                         !
 ! A116  A(58,61,72)           107.7218                                         !
 ! A117  A(62,61,71)           106.6488                                         !
 ! A118  A(62,61,72)           109.7733                                         !
 ! A119  A(71,61,72)           105.1384                                         !
 ! A120  A(61,62,63)           119.8049                                         !
 ! A121  A(61,62,73)           106.6262                                         !
 ! A122  A(61,62,74)           109.4258                                         !
 ! A123  A(63,62,73)           107.9443                                         !
 ! A124  A(63,62,74)           105.1663                                         !
 ! A125  A(73,62,74)           107.3113                                         !
 ! A126  A(62,63,64)           115.4106                                         !
 ! A127  A(62,63,75)           108.9223                                         !
 ! A128  A(62,63,76)           109.3161                                         !
 ! A129  A(64,63,75)           107.8096                                         !
 ! A130  A(64,63,76)           107.4648                                         !
 ! A131  A(75,63,76)           107.6504                                         !
 ! A132  A(63,64,65)           125.329                                          !
 ! A133  A(63,64,77)           117.9147                                         !
 ! A134  A(65,64,77)           116.7301                                         !
 ! A135  A(64,65,66)           121.235                                          !
 ! A136  A(64,65,67)           117.4867                                         !
 ! A137  A(66,65,67)           121.2557                                         !
 ! A138  A(65,66,78)           118.9206                                         !
 ! A139  A(65,66,79)           122.3581                                         !
 ! A140  A(78,66,79)           118.4202                                         !
 ! A141  A(65,67,80)           120.3207                                         !
 ! A142  A(65,67,81)           119.8268                                         !
 ! A143  A(80,67,81)           116.1387                                         !
 ! D1    D(11,1,2,3)           150.2914                                         !
 ! D2    D(11,1,2,5)            26.8511                                         !
 ! D3    D(11,1,2,12)          -91.3548                                         !
 ! D4    D(17,1,2,3)           -89.8742                                         !
 ! D5    D(17,1,2,5)           146.6855                                         !
 ! D6    D(17,1,2,12)           28.4796                                         !
 ! D7    D(18,1,2,3)            31.259                                          !
 ! D8    D(18,1,2,5)           -92.1813                                         !
 ! D9    D(18,1,2,12)          149.6128                                         !
 ! D10   D(1,2,3,4)           -159.2753                                         !
 ! D11   D(1,2,3,19)            13.1278                                         !
 ! D12   D(5,2,3,4)            -35.9323                                         !
 ! D13   D(5,2,3,19)           136.4707                                         !
 ! D14   D(12,2,3,4)            83.741                                          !
 ! D15   D(12,2,3,19)         -103.8559                                         !
 ! D16   D(1,2,5,6)            -73.6612                                         !
 ! D17   D(1,2,5,13)            52.3225                                         !
 ! D18   D(1,2,5,14)           166.5432                                         !
 ! D19   D(3,2,5,6)            161.8118                                         !
 ! D20   D(3,2,5,13)           -72.2045                                         !
 ! D21   D(3,2,5,14)            42.0162                                         !
 ! D22   D(12,2,5,6)            42.621                                          !
 ! D23   D(12,2,5,13)          168.6047                                         !
 ! D24   D(12,2,5,14)          -77.1746                                         !
 ! D25   D(2,3,19,20)           45.654                                          !
 ! D26   D(2,3,19,33)         -170.8364                                         !
 ! D27   D(4,3,19,20)         -142.3455                                         !
 ! D28   D(4,3,19,33)            1.1641                                         !
 ! D29   D(2,5,6,7)             79.8908                                         !
 ! D30   D(2,5,6,15)           -41.9552                                         !
 ! D31   D(2,5,6,16)          -157.8206                                         !
 ! D32   D(13,5,6,7)           -46.0186                                         !
 ! D33   D(13,5,6,15)         -167.8646                                         !
 ! D34   D(13,5,6,16)           76.27                                           !
 ! D35   D(14,5,6,7)          -162.0123                                         !
 ! D36   D(14,5,6,15)           76.1418                                         !
 ! D37   D(14,5,6,16)          -39.7237                                         !
 ! D38   D(5,6,7,8)            -22.7754                                         !
 ! D39   D(5,6,7,9)            158.5688                                         !
 ! D40   D(15,6,7,8)           100.9836                                         !
 ! D41   D(15,6,7,9)           -77.6722                                         !
 ! D42   D(16,6,7,8)          -145.1266                                         !
 ! D43   D(16,6,7,9)            36.2177                                         !
 ! D44   D(6,7,9,10)            -2.7699                                         !
 ! D45   D(8,7,9,10)           178.4909                                         !
 ! D46   D(3,19,20,21)         179.6865                                         !
 ! D47   D(3,19,20,23)          59.443                                          !
 ! D48   D(3,19,20,34)         -62.7346                                         !
 ! D49   D(33,19,20,21)         35.4984                                         !
 ! D50   D(33,19,20,23)        -84.7451                                         !
 ! D51   D(33,19,20,34)        153.0773                                         !
 ! D52   D(19,20,21,22)        -36.6727                                         !
 ! D53   D(19,20,21,43)        141.6836                                         !
 ! D54   D(23,20,21,22)         85.0584                                         !
 ! D55   D(23,20,21,43)        -96.5853                                         !
 ! D56   D(34,20,21,22)       -155.5155                                         !
 ! D57   D(34,20,21,43)         22.8408                                         !
 ! D58   D(19,20,23,24)        -65.2669                                         !
 ! D59   D(19,20,23,35)        174.1756                                         !
 ! D60   D(19,20,23,36)         57.1658                                         !
 ! D61   D(21,20,23,24)        178.5621                                         !
 ! D62   D(21,20,23,35)         58.0046                                         !
 ! D63   D(21,20,23,36)        -59.0052                                         !
 ! D64   D(34,20,23,24)         58.5083                                         !
 ! D65   D(34,20,23,35)        -62.0492                                         !
 ! D66   D(34,20,23,36)       -179.059                                          !
 ! D67   D(20,21,43,44)         10.6096                                         !
 ! D68   D(20,21,43,51)        179.8635                                         !
 ! D69   D(22,21,43,44)       -171.1077                                         !
 ! D70   D(22,21,43,51)         -1.8538                                         !
 ! D71   D(20,23,24,25)        109.1974                                         !
 ! D72   D(20,23,24,26)        -63.654                                          !
 ! D73   D(35,23,24,25)       -131.8712                                         !
 ! D74   D(35,23,24,26)         55.2774                                         !
 ! D75   D(36,23,24,25)        -11.3037                                         !
 ! D76   D(36,23,24,26)        175.8449                                         !
 ! D77   D(23,24,25,29)       -172.3109                                         !
 ! D78   D(23,24,25,37)          5.6543                                         !
 ! D79   D(26,24,25,29)          1.6193                                         !
 ! D80   D(26,24,25,37)        179.5845                                         !
 ! D81   D(23,24,26,27)        172.6697                                         !
 ! D82   D(23,24,26,28)         -3.6576                                         !
 ! D83   D(25,24,26,27)         -1.4836                                         !
 ! D84   D(25,24,26,28)       -177.8109                                         !
 ! D85   D(24,25,29,27)         -1.1589                                         !
 ! D86   D(24,25,29,38)       -170.594                                          !
 ! D87   D(37,25,29,27)       -179.3331                                         !
 ! D88   D(37,25,29,38)         11.2317                                         !
 ! D89   D(24,26,27,29)          0.8058                                         !
 ! D90   D(24,26,27,30)       -175.8897                                         !
 ! D91   D(28,26,27,29)        177.7422                                         !
 ! D92   D(28,26,27,30)          1.0468                                         !
 ! D93   D(24,26,28,31)        174.3655                                         !
 ! D94   D(24,26,28,39)         -8.3947                                         !
 ! D95   D(27,26,28,31)         -1.6289                                         !
 ! D96   D(27,26,28,39)        175.611                                          !
 ! D97   D(26,27,29,25)          0.1776                                         !
 ! D98   D(26,27,29,38)        169.5273                                         !
 ! D99   D(30,27,29,25)        176.4489                                         !
 ! D100  D(30,27,29,38)        -14.2014                                         !
 ! D101  D(26,27,30,32)          0.343                                          !
 ! D102  D(26,27,30,40)       -179.3882                                         !
 ! D103  D(29,27,30,32)       -175.4541                                         !
 ! D104  D(29,27,30,40)          4.8147                                         !
 ! D105  D(26,28,31,32)          0.8576                                         !
 ! D106  D(26,28,31,41)        179.2447                                         !
 ! D107  D(39,28,31,32)       -176.4189                                         !
 ! D108  D(39,28,31,41)          1.9682                                         !
 ! D109  D(27,30,32,31)         -1.1536                                         !
 ! D110  D(27,30,32,42)       -179.7432                                         !
 ! D111  D(40,30,32,31)        178.5782                                         !
 ! D112  D(40,30,32,42)         -0.0113                                         !
 ! D113  D(28,31,32,30)          0.569                                          !
 ! D114  D(28,31,32,42)        179.1547                                         !
 ! D115  D(41,31,32,30)       -177.7817                                         !
 ! D116  D(41,31,32,42)          0.8039                                         !
 ! D117  D(21,43,44,45)       -148.003                                          !
 ! D118  D(21,43,44,47)         90.3413                                         !
 ! D119  D(21,43,44,52)        -27.7325                                         !
 ! D120  D(51,43,44,45)         42.7304                                         !
 ! D121  D(51,43,44,47)        -78.9253                                         !
 ! D122  D(51,43,44,52)        163.0009                                         !
 ! D123  D(43,44,45,46)        -43.3566                                         !
 ! D124  D(43,44,45,57)        141.6579                                         !
 ! D125  D(47,44,45,46)         78.2916                                         !
 ! D126  D(47,44,45,57)        -96.6938                                         !
 ! D127  D(52,44,45,46)       -163.3255                                         !
 ! D128  D(52,44,45,57)         21.6891                                         !
 ! D129  D(43,44,47,48)        134.733                                          !
 ! D130  D(43,44,47,49)        -98.8933                                         !
 ! D131  D(43,44,47,53)         14.137                                          !
 ! D132  D(45,44,47,48)         15.7819                                         !
 ! D133  D(45,44,47,49)        142.1556                                         !
 ! D134  D(45,44,47,53)       -104.8141                                         !
 ! D135  D(52,44,47,48)       -105.0316                                         !
 ! D136  D(52,44,47,49)         21.3421                                         !
 ! D137  D(52,44,47,53)        134.3724                                         !
 ! D138  D(44,45,57,58)        -27.9873                                         !
 ! D139  D(44,45,57,69)        174.9534                                         !
 ! D140  D(46,45,57,58)        157.0962                                         !
 ! D141  D(46,45,57,69)          0.0369                                         !
 ! D142  D(44,47,48,54)         59.7029                                         !
 ! D143  D(44,47,48,55)        -61.7137                                         !
 ! D144  D(44,47,48,56)        178.8798                                         !
 ! D145  D(49,47,48,54)        -65.7449                                         !
 ! D146  D(49,47,48,55)        172.8384                                         !
 ! D147  D(49,47,48,56)         53.4319                                         !
 ! D148  D(53,47,48,54)        178.5823                                         !
 ! D149  D(53,47,48,55)         57.1657                                         !
 ! D150  D(53,47,48,56)        -62.2409                                         !
 ! D151  D(44,47,49,50)        -73.9835                                         !
 ! D152  D(48,47,49,50)         54.9123                                         !
 ! D153  D(53,47,49,50)        172.7397                                         !
 ! D154  D(45,57,58,59)         74.0199                                         !
 ! D155  D(45,57,58,61)        -55.0305                                         !
 ! D156  D(45,57,58,70)       -170.2367                                         !
 ! D157  D(69,57,58,59)       -129.8382                                         !
 ! D158  D(69,57,58,61)        101.1114                                         !
 ! D159  D(69,57,58,70)        -14.0947                                         !
 ! D160  D(57,58,59,60)        150.2141                                         !
 ! D161  D(57,58,59,68)        -33.8617                                         !
 ! D162  D(61,58,59,60)        -81.1904                                         !
 ! D163  D(61,58,59,68)         94.7338                                         !
 ! D164  D(70,58,59,60)         35.6715                                         !
 ! D165  D(70,58,59,68)       -148.4043                                         !
 ! D166  D(57,58,61,62)        165.9452                                         !
 ! D167  D(57,58,61,71)         44.5846                                         !
 ! D168  D(57,58,61,72)        -68.3051                                         !
 ! D169  D(59,58,61,62)         34.2674                                         !
 ! D170  D(59,58,61,71)        -87.0933                                         !
 ! D171  D(59,58,61,72)        160.017                                          !
 ! D172  D(70,58,61,62)        -81.4231                                         !
 ! D173  D(70,58,61,71)        157.2163                                         !
 ! D174  D(70,58,61,72)         44.3266                                         !
 ! D175  D(58,61,62,63)         59.2032                                         !
 ! D176  D(58,61,62,73)       -178.0041                                         !
 ! D177  D(58,61,62,74)        -62.2441                                         !
 ! D178  D(71,61,62,63)       -178.9622                                         !
 ! D179  D(71,61,62,73)        -56.1695                                         !
 ! D180  D(71,61,62,74)         59.5905                                         !
 ! D181  D(72,61,62,63)        -65.5613                                         !
 ! D182  D(72,61,62,73)         57.2313                                         !
 ! D183  D(72,61,62,74)        172.9913                                         !
 ! D184  D(61,62,63,64)         29.6501                                         !
 ! D185  D(61,62,63,75)        151.037                                          !
 ! D186  D(61,62,63,76)        -91.5883                                         !
 ! D187  D(73,62,63,64)        -92.498                                          !
 ! D188  D(73,62,63,75)         28.8889                                         !
 ! D189  D(73,62,63,76)        146.2636                                         !
 ! D190  D(74,62,63,64)        153.181                                          !
 ! D191  D(74,62,63,75)        -85.4321                                         !
 ! D192  D(74,62,63,76)         31.9427                                         !
 ! D193  D(62,63,64,65)       -112.8388                                         !
 ! D194  D(62,63,64,77)         69.089                                          !
 ! D195  D(75,63,64,65)        125.1758                                         !
 ! D196  D(75,63,64,77)        -52.8965                                         !
 ! D197  D(76,63,64,65)          9.3948                                         !
 ! D198  D(76,63,64,77)       -168.6775                                         !
 ! D199  D(63,64,65,66)         15.6397                                         !
 ! D200  D(63,64,65,67)       -166.067                                          !
 ! D201  D(77,64,65,66)       -166.2675                                         !
 ! D202  D(77,64,65,67)         12.0258                                         !
 ! D203  D(64,65,66,78)       -169.209                                          !
 ! D204  D(64,65,66,79)         17.196                                          !
 ! D205  D(67,65,66,78)         12.5621                                         !
 ! D206  D(67,65,66,79)       -161.0329                                         !
 ! D207  D(64,65,67,80)         28.5732                                         !
 ! D208  D(64,65,67,81)       -173.9708                                         !
 ! D209  D(66,65,67,80)       -153.1339                                         !
 ! D210  D(66,65,67,81)          4.3221                                         !
 --------------------------------------------------------------------------------
 Symmetry turned off by external request.
 Stoichiometry    C26H39N8O8(1+)
 Framework group  C1[X(C26H39N8O8)]
 Deg. of freedom   237
 Full point group                 C1      NOp   1
                          Input orientation:                          
 ---------------------------------------------------------------------
 Center     Atomic      Atomic             Coordinates (Angstroms)
 Number     Number       Type             X           Y           Z
 ---------------------------------------------------------------------
      1          7           0       10.162007   29.726308   12.753395
      2          6           0       10.288758   29.171433   14.149048
      3          6           0       11.169764   30.065562   15.058167
      4          8           0       11.653836   29.542573   16.051363
      5          6           0       10.848152   27.740379   14.102346
      6          6           0        9.872930   26.651293   13.613840
      7          6           0        9.689709   26.547809   12.105235
      8          8           0        9.912661   27.458249   11.319344
      9          8           0        9.230892   25.392191   11.620801
     10          1           0        9.108950   24.728749   12.321580
     11          1           0       10.031753   28.939162   12.072585
     12          1           0        9.278458   29.149762   14.560212
     13          1           0       11.771777   27.715796   13.511000
     14          1           0       11.135664   27.509770   15.129900
     15          1           0        8.873505   26.805554   14.047463
     16          1           0       10.218696   25.679895   13.988530
     17          1           0        9.347608   30.365027   12.674927
     18          1           0       11.010957   30.235829   12.493335
     19          7           0       11.508222   31.334659   14.661071
     20          6           0       10.724998   32.437343   14.073443
     21          6           0       11.759700   33.571434   13.892444
     22          8           0       12.632357   33.707972   14.747113
     23          6           0        9.548940   32.900330   14.980227
     24          6           0        8.526200   31.816845   15.130672
     25          6           0        8.245587   31.062506   16.244199
     26          6           0        7.731503   31.265139   14.059772
     27          6           0        7.015157   30.152906   14.583472
     28          6           0        7.612349   31.573219   12.689222
     29          7           0        7.352554   30.052603   15.922838
     30          6           0        6.211869   29.342354   13.772021
     31          6           0        6.824196   30.761800   11.874983
     32          6           0        6.136518   29.653660   12.415275
     33          1           0       12.208699   31.738206   15.288681
     34          1           0       10.319681   32.159015   13.101720
     35          1           0        9.099085   33.781854   14.510086
     36          1           0        9.963405   33.194892   15.949702
     37          1           0        8.639032   31.148370   17.247704
     38          1           0        6.894290   29.456503   16.596357
     39          1           0        8.086252   32.452009   12.272301
     40          1           0        5.661289   28.501026   14.184873
     41          1           0        6.729922   31.016521   10.822392
     42          1           0        5.516637   29.042262   11.766125
     43          7           0       11.691399   34.351193   12.787513
     44          6           0       10.657966   34.465283   11.760429
     45          6           0       11.372287   34.805459   10.453350
     46          8           0       12.268226   35.644507   10.461094
     47          6           0        9.590350   35.572989   12.138543
     48          6           0        9.199202   36.527159   11.010741
     49          8           0        8.443898   34.948935   12.704036
     50          1           0        7.980055   34.530443   11.954584
     51          1           0       12.404411   35.075484   12.742127
     52          1           0       10.115942   33.531148   11.668836
     53          1           0       10.037829   36.151485   12.953458
     54          1           0        8.771184   35.975711   10.169405
     55          1           0       10.062854   37.099887   10.661293
     56          1           0        8.447697   37.223474   11.393865
     57          7           0       10.942746   34.252785    9.271050
     58          6           0       10.257309   32.990025    8.961448
     59          6           0        8.745809   32.906268    9.333727
     60          8           0        8.060907   32.139910    8.579233
     61          6           0       11.055195   31.778621    9.525692
     62          6           0       10.369553   30.401998    9.605163
     63          6           0        9.829142   29.737989    8.319325
     64          7           0       10.548433   30.076855    7.085223
     65          6           0       10.045347   30.793434    6.062790
     66          7           0        8.948173   31.517847    6.207373
     67          7           0       10.726145   30.772693    4.888240
     68          8           0        8.329763   33.498141   10.341749
     69          1           0       11.471290   34.648071    8.501040
     70          1           0       10.298027   32.935736    7.872045
     71          1           0       11.367767   32.033653   10.546475
     72          1           0       11.987113   31.696549    8.952790
     73          1           0       11.095158   29.715453   10.061181
     74          1           0        9.508184   30.462121   10.280713
     75          1           0        9.864464   28.650092    8.439633
     76          1           0        8.789348   30.020321    8.178736
     77          1           0       11.489650   29.724216    6.973792
     78          1           0        8.507974   31.908174    5.384915
     79          1           0        8.557537   31.795239    7.185372
     80          1           0       11.282370   29.968128    4.635255
     81          1           0       10.432636   31.367805    4.126976
 ---------------------------------------------------------------------
 Rotational constants (GHZ):           0.0940998           0.0751961           0.0552660
 Standard basis: 6-31G(d) (6D, 7F)
   708 basis functions,  1332 primitive gaussians,   708 cartesian basis functions
   157 alpha electrons      157 beta electrons
       nuclear repulsion energy      5712.3229564437 Hartrees.
 NAtoms=   81 NActive=   81 NUniq=   81 SFac= 1.00D+00 NAtFMM=   60 NAOKFM=T Big=T
 Integral buffers will be    131072 words long.
 Raffenetti 2 integral format.
 Two-electron integral symmetry is turned off.
 Nuclear repulsion after empirical dispersion term =     5712.1911887945 Hartrees.
 One-electron integrals computed using PRISM.
 NBasis=   708 RedAO= T EigKep=  3.44D-04  NBF=   708
 NBsUse=   708 1.00D-06 EigRej= -1.00D+00 NBFU=   708
 Initial guess from the checkpoint file:  "conf-879.chk"
 B after Tr=     0.000000    0.000000    0.000000
         Rot=    1.000000    0.000000    0.000000    0.000000 Ang=   0.00 deg.
 Requested convergence on RMS density matrix=1.00D-08 within 128 cycles.
 Requested convergence on MAX density matrix=1.00D-06.
 Requested convergence on             energy=1.00D-06.
 No special actions if energy rises.
 SCF Done:  E(RB3LYP) =  -2054.02848673     A.U. after    1 cycles
            NFock=  1  Conv=0.91D-08     -V/T= 2.0093

 **********************************************************************

            Population analysis using the SCF Density.

 **********************************************************************

 Alpha  occ. eigenvalues --  -19.33453 -19.28533 -19.22093 -19.20292 -19.19407
 Alpha  occ. eigenvalues --  -19.19086 -19.18893 -19.18159 -14.55432 -14.50798
 Alpha  occ. eigenvalues --  -14.50725 -14.47936 -14.47815 -14.45477 -14.44018
 Alpha  occ. eigenvalues --  -14.43941 -10.46739 -10.46391 -10.40181 -10.37397
 Alpha  occ. eigenvalues --  -10.37217 -10.36578 -10.36556 -10.34466 -10.34153
 Alpha  occ. eigenvalues --  -10.33652 -10.32634 -10.32367 -10.32019 -10.31534
 Alpha  occ. eigenvalues --  -10.30768 -10.30705 -10.30455 -10.30163 -10.29070
 Alpha  occ. eigenvalues --  -10.28298 -10.28207 -10.27782 -10.27594 -10.27594
 Alpha  occ. eigenvalues --  -10.27525 -10.22636  -1.24555  -1.16272  -1.14809
 Alpha  occ. eigenvalues --   -1.14444  -1.12089  -1.11741  -1.11048  -1.11038
 Alpha  occ. eigenvalues --   -1.07947  -1.07679  -1.04471  -1.03556  -1.01890
 Alpha  occ. eigenvalues --   -1.01697  -1.00159  -0.99948  -0.93788  -0.93577
 Alpha  occ. eigenvalues --   -0.90605  -0.89905  -0.86631  -0.85097  -0.84636
 Alpha  occ. eigenvalues --   -0.83473  -0.83114  -0.81559  -0.79118  -0.78309
 Alpha  occ. eigenvalues --   -0.77657  -0.76171  -0.75907  -0.74749  -0.72312
 Alpha  occ. eigenvalues --   -0.71991  -0.71867  -0.71290  -0.69819  -0.68855
 Alpha  occ. eigenvalues --   -0.68769  -0.68166  -0.68026  -0.66081  -0.65617
 Alpha  occ. eigenvalues --   -0.65285  -0.65145  -0.64021  -0.63284  -0.63096
 Alpha  occ. eigenvalues --   -0.62901  -0.61657  -0.60887  -0.59774  -0.59325
 Alpha  occ. eigenvalues --   -0.59073  -0.58545  -0.58208  -0.57741  -0.57475
 Alpha  occ. eigenvalues --   -0.57251  -0.56350  -0.56034  -0.55568  -0.55204
 Alpha  occ. eigenvalues --   -0.55066  -0.54527  -0.53846  -0.53483  -0.53057
 Alpha  occ. eigenvalues --   -0.52656  -0.52342  -0.51873  -0.51669  -0.51306
 Alpha  occ. eigenvalues --   -0.50820  -0.50607  -0.50253  -0.49997  -0.49737
 Alpha  occ. eigenvalues --   -0.49474  -0.48788  -0.48703  -0.48414  -0.47786
 Alpha  occ. eigenvalues --   -0.47430  -0.47163  -0.46559  -0.46507  -0.45893
 Alpha  occ. eigenvalues --   -0.45648  -0.45418  -0.45344  -0.44968  -0.43993
 Alpha  occ. eigenvalues --   -0.43522  -0.43294  -0.43048  -0.42327  -0.42252
 Alpha  occ. eigenvalues --   -0.42111  -0.41113  -0.39104  -0.38449  -0.37599
 Alpha  occ. eigenvalues --   -0.36657  -0.35679  -0.35299  -0.34596  -0.34283
 Alpha  occ. eigenvalues --   -0.33682  -0.33439  -0.32721  -0.32342  -0.31445
 Alpha  occ. eigenvalues --   -0.30947  -0.30142
 Alpha virt. eigenvalues --   -0.13487  -0.11693  -0.10801  -0.09707  -0.07977
 Alpha virt. eigenvalues --   -0.07937  -0.07224  -0.06689  -0.06551  -0.05617
 Alpha virt. eigenvalues --   -0.04516  -0.03315  -0.03190  -0.02235  -0.01948
 Alpha virt. eigenvalues --   -0.01459  -0.00741  -0.00571   0.00344   0.00445
 Alpha virt. eigenvalues --    0.00838   0.01260   0.01518   0.02162   0.03229
 Alpha virt. eigenvalues --    0.03801   0.04110   0.04491   0.04832   0.05249
 Alpha virt. eigenvalues --    0.05401   0.05604   0.05889   0.06715   0.07010
 Alpha virt. eigenvalues --    0.07221   0.07430   0.07858   0.08217   0.08477
 Alpha virt. eigenvalues --    0.08679   0.08947   0.09377   0.09732   0.10227
 Alpha virt. eigenvalues --    0.10342   0.10605   0.10936   0.11557   0.11911
 Alpha virt. eigenvalues --    0.11992   0.12196   0.12665   0.12974   0.13643
 Alpha virt. eigenvalues --    0.14057   0.14237   0.14460   0.14624   0.15295
 Alpha virt. eigenvalues --    0.15813   0.15996   0.16513   0.16957   0.17520
 Alpha virt. eigenvalues --    0.18252   0.18434   0.18521   0.19127   0.20270
 Alpha virt. eigenvalues --    0.20697   0.21572   0.22374   0.23674   0.24305
 Alpha virt. eigenvalues --    0.24508   0.25196   0.25689   0.26383   0.26724
 Alpha virt. eigenvalues --    0.27474   0.27987   0.29028   0.29927   0.31901
 Alpha virt. eigenvalues --    0.33223   0.34023   0.34656   0.35232   0.35953
 Alpha virt. eigenvalues --    0.36544   0.36866   0.37646   0.38867   0.39340
 Alpha virt. eigenvalues --    0.40263   0.40866   0.41377   0.41971   0.42090
 Alpha virt. eigenvalues --    0.42415   0.42828   0.43653   0.43856   0.44251
 Alpha virt. eigenvalues --    0.44328   0.45200   0.45646   0.45908   0.46562
 Alpha virt. eigenvalues --    0.47073   0.47351   0.47675   0.48174   0.48516
 Alpha virt. eigenvalues --    0.48865   0.49231   0.49408   0.50068   0.50546
 Alpha virt. eigenvalues --    0.51291   0.51596   0.51744   0.51977   0.52333
 Alpha virt. eigenvalues --    0.52697   0.52976   0.53272   0.53704   0.54013
 Alpha virt. eigenvalues --    0.54558   0.54698   0.54883   0.55483   0.55742
 Alpha virt. eigenvalues --    0.56041   0.56803   0.57058   0.57532   0.58176
 Alpha virt. eigenvalues --    0.58412   0.58955   0.59704   0.60066   0.60641
 Alpha virt. eigenvalues --    0.61311   0.61773   0.62011   0.62314   0.62916
 Alpha virt. eigenvalues --    0.63305   0.64056   0.64240   0.64329   0.65218
 Alpha virt. eigenvalues --    0.65785   0.65951   0.67106   0.67487   0.67915
 Alpha virt. eigenvalues --    0.68353   0.69264   0.69487   0.69811   0.70956
 Alpha virt. eigenvalues --    0.71401   0.71705   0.72298   0.72542   0.73085
 Alpha virt. eigenvalues --    0.73339   0.73774   0.73836   0.73966   0.74011
 Alpha virt. eigenvalues --    0.74168   0.74822   0.75237   0.75478   0.75697
 Alpha virt. eigenvalues --    0.75871   0.76130   0.76443   0.76953   0.77359
 Alpha virt. eigenvalues --    0.77904   0.78110   0.78234   0.79278   0.79612
 Alpha virt. eigenvalues --    0.80081   0.80339   0.80997   0.81353   0.81630
 Alpha virt. eigenvalues --    0.81905   0.82557   0.82885   0.83332   0.83881
 Alpha virt. eigenvalues --    0.84418   0.84733   0.85121   0.85584   0.86005
 Alpha virt. eigenvalues --    0.86317   0.86703   0.86888   0.87313   0.87577
 Alpha virt. eigenvalues --    0.88324   0.88781   0.89031   0.89725   0.90268
 Alpha virt. eigenvalues --    0.90721   0.91383   0.92345   0.92738   0.93566
 Alpha virt. eigenvalues --    0.93770   0.94425   0.94781   0.95534   0.96047
 Alpha virt. eigenvalues --    0.96532   0.97881   0.98075   0.98705   0.99230
 Alpha virt. eigenvalues --    1.00708   1.01387   1.01887   1.02196   1.02629
 Alpha virt. eigenvalues --    1.02886   1.03726   1.03964   1.04835   1.05298
 Alpha virt. eigenvalues --    1.05434   1.05682   1.06749   1.07921   1.08457
 Alpha virt. eigenvalues --    1.09331   1.09723   1.09808   1.10442   1.11254
 Alpha virt. eigenvalues --    1.11551   1.12220   1.12693   1.13681   1.14947
 Alpha virt. eigenvalues --    1.15977   1.16744   1.17549   1.18309   1.18559
 Alpha virt. eigenvalues --    1.20447   1.20516   1.21635   1.22348   1.22757
 Alpha virt. eigenvalues --    1.23477   1.24191   1.24443   1.25264   1.26120
 Alpha virt. eigenvalues --    1.27094   1.27516   1.28290   1.28740   1.29143
 Alpha virt. eigenvalues --    1.29773   1.30618   1.31130   1.31791   1.32753
 Alpha virt. eigenvalues --    1.33628   1.33924   1.35127   1.36047   1.36491
 Alpha virt. eigenvalues --    1.37026   1.37423   1.38818   1.39121   1.39482
 Alpha virt. eigenvalues --    1.39976   1.40256   1.41173   1.41426   1.42454
 Alpha virt. eigenvalues --    1.43152   1.43462   1.43574   1.44877   1.46613
 Alpha virt. eigenvalues --    1.47044   1.48627   1.49410   1.49988   1.50381
 Alpha virt. eigenvalues --    1.51167   1.51525   1.52749   1.53096   1.53978
 Alpha virt. eigenvalues --    1.54692   1.54778   1.55729   1.56929   1.57255
 Alpha virt. eigenvalues --    1.57866   1.58117   1.58942   1.59431   1.60099
 Alpha virt. eigenvalues --    1.61185   1.61944   1.63742   1.64037   1.64888
 Alpha virt. eigenvalues --    1.65657   1.66153   1.66465   1.67326   1.67464
 Alpha virt. eigenvalues --    1.67918   1.68433   1.69553   1.70070   1.70527
 Alpha virt. eigenvalues --    1.70998   1.71629   1.71804   1.72218   1.73534
 Alpha virt. eigenvalues --    1.73883   1.74722   1.74801   1.75187   1.75763
 Alpha virt. eigenvalues --    1.76855   1.77330   1.77639   1.78004   1.78297
 Alpha virt. eigenvalues --    1.78407   1.79239   1.79816   1.80558   1.80996
 Alpha virt. eigenvalues --    1.81248   1.82243   1.82576   1.82948   1.83120
 Alpha virt. eigenvalues --    1.83859   1.84263   1.85077   1.85765   1.85877
 Alpha virt. eigenvalues --    1.86375   1.86762   1.87440   1.87787   1.88473
 Alpha virt. eigenvalues --    1.88854   1.90242   1.90460   1.90750   1.91057
 Alpha virt. eigenvalues --    1.91885   1.92492   1.92894   1.93784   1.94009
 Alpha virt. eigenvalues --    1.94291   1.94502   1.95294   1.96139   1.96298
 Alpha virt. eigenvalues --    1.96837   1.97145   1.97220   1.98790   1.99394
 Alpha virt. eigenvalues --    2.00197   2.01241   2.01563   2.02975   2.04042
 Alpha virt. eigenvalues --    2.04711   2.05342   2.05821   2.06383   2.07386
 Alpha virt. eigenvalues --    2.08428   2.09086   2.10408   2.11523   2.12103
 Alpha virt. eigenvalues --    2.12815   2.14090   2.15009   2.15220   2.15836
 Alpha virt. eigenvalues --    2.16201   2.16656   2.16952   2.17224   2.18270
 Alpha virt. eigenvalues --    2.18988   2.19671   2.19929   2.20781   2.21557
 Alpha virt. eigenvalues --    2.22140   2.22660   2.23624   2.25133   2.26221
 Alpha virt. eigenvalues --    2.26911   2.27379   2.29713   2.30106   2.30545
 Alpha virt. eigenvalues --    2.31056   2.31765   2.32365   2.32900   2.33462
 Alpha virt. eigenvalues --    2.34604   2.34973   2.36241   2.36875   2.37824
 Alpha virt. eigenvalues --    2.38480   2.39839   2.40241   2.41212   2.41592
 Alpha virt. eigenvalues --    2.43021   2.43298   2.44162   2.44499   2.45164
 Alpha virt. eigenvalues --    2.45919   2.46955   2.47667   2.48189   2.48928
 Alpha virt. eigenvalues --    2.49711   2.50383   2.52055   2.52552   2.52964
 Alpha virt. eigenvalues --    2.54580   2.55289   2.55644   2.55729   2.57524
 Alpha virt. eigenvalues --    2.57906   2.58613   2.59744   2.59954   2.61027
 Alpha virt. eigenvalues --    2.61752   2.62001   2.62898   2.63223   2.64037
 Alpha virt. eigenvalues --    2.64798   2.65114   2.66396   2.67964   2.68408
 Alpha virt. eigenvalues --    2.71297   2.72404   2.72939   2.75082   2.76402
 Alpha virt. eigenvalues --    2.78647   2.80348   2.84021   2.85471   2.86641
 Alpha virt. eigenvalues --    2.89129   2.89740   2.89830   2.90564   2.90847
 Alpha virt. eigenvalues --    2.92013   2.92920   2.93717   2.95681   2.97440
 Alpha virt. eigenvalues --    2.98735   2.99671   3.01977   3.03914   3.04971
 Alpha virt. eigenvalues --    3.08589   3.14697   3.16095   3.34320   3.66763
 Alpha virt. eigenvalues --    3.74103   3.79154   3.80770   3.83159   3.86037
 Alpha virt. eigenvalues --    3.88804   3.92706   3.92985   3.95449   3.97589
 Alpha virt. eigenvalues --    4.01387   4.02698   4.04603   4.07141   4.08267
 Alpha virt. eigenvalues --    4.10973   4.12258   4.13678   4.15741   4.15979
 Alpha virt. eigenvalues --    4.20426   4.23494   4.24480   4.27214   4.29417
 Alpha virt. eigenvalues --    4.31014   4.31802   4.34048   4.34368   4.36702
 Alpha virt. eigenvalues --    4.38552   4.41607   4.42609   4.48948   4.51108
 Alpha virt. eigenvalues --    4.54209   4.59317   4.62234   4.63400   4.72906
 Alpha virt. eigenvalues --    4.75105
          Condensed to atoms (all electrons):
 Mulliken charges:
               1
     1  N   -0.839169
     2  C   -0.103644
     3  C    0.613642
     4  O   -0.481885
     5  C   -0.301713
     6  C   -0.427689
     7  C    0.638627
     8  O   -0.486236
     9  O   -0.524861
    10  H    0.439241
    11  H    0.454399
    12  H    0.235541
    13  H    0.175097
    14  H    0.232769
    15  H    0.209586
    16  H    0.194145
    17  H    0.420696
    18  H    0.401006
    19  N   -0.633595
    20  C   -0.072519
    21  C    0.619920
    22  O   -0.513985
    23  C   -0.358464
    24  C    0.065278
    25  C   -0.007932
    26  C    0.056346
    27  C    0.291482
    28  C   -0.313505
    29  N   -0.675031
    30  C   -0.182150
    31  C   -0.159050
    32  C   -0.159997
    33  H    0.377542
    34  H    0.102079
    35  H    0.231482
    36  H    0.173962
    37  H    0.186838
    38  H    0.345744
    39  H    0.195784
    40  H    0.143176
    41  H    0.183362
    42  H    0.148885
    43  N   -0.613721
    44  C   -0.054862
    45  C    0.583062
    46  O   -0.512699
    47  C    0.154206
    48  C   -0.495425
    49  O   -0.647427
    50  H    0.439873
    51  H    0.362509
    52  H    0.155185
    53  H    0.156180
    54  H    0.169817
    55  H    0.169526
    56  H    0.168227
    57  N   -0.592709
    58  C   -0.066486
    59  C    0.635581
    60  O   -0.617291
    61  C   -0.269214
    62  C   -0.312164
    63  C   -0.161844
    64  N   -0.599591
    65  C    0.783493
    66  N   -0.784061
    67  N   -0.765133
    68  O   -0.557633
    69  H    0.335842
    70  H    0.137770
    71  H    0.143866
    72  H    0.147164
    73  H    0.135189
    74  H    0.164285
    75  H    0.187019
    76  H    0.221562
    77  H    0.351117
    78  H    0.355958
    79  H    0.454489
    80  H    0.369908
    81  H    0.373233
 Sum of Mulliken charges =   1.00000
 Mulliken charges with hydrogens summed into heavy atoms:
               1
     1  N    0.436932
     2  C    0.131897
     3  C    0.613642
     4  O   -0.481885
     5  C    0.106154
     6  C   -0.023958
     7  C    0.638627
     8  O   -0.486236
     9  O   -0.085620
    19  N   -0.256053
    20  C    0.029559
    21  C    0.619920
    22  O   -0.513985
    23  C    0.046980
    24  C    0.065278
    25  C    0.178906
    26  C    0.056346
    27  C    0.291482
    28  C   -0.117721
    29  N   -0.329286
    30  C   -0.038974
    31  C    0.024311
    32  C   -0.011112
    43  N   -0.251212
    44  C    0.100323
    45  C    0.583062
    46  O   -0.512699
    47  C    0.310386
    48  C    0.012145
    49  O   -0.207554
    57  N   -0.256866
    58  C    0.071283
    59  C    0.635581
    60  O   -0.617291
    61  C    0.021816
    62  C   -0.012690
    63  C    0.246737
    64  N   -0.248473
    65  C    0.783493
    66  N    0.026386
    67  N   -0.021993
    68  O   -0.557633
 Electronic spatial extent (au):  <R**2>=        1388548.2390
 Charge=              1.0000 electrons
 Dipole moment (field-independent basis, Debye):
    X=             46.3685    Y=            134.1990    Z=             45.3044  Tot=            149.0366
 Quadrupole moment (field-independent basis, Debye-Ang):
   XX=            197.6904   YY=           3503.4467   ZZ=            293.2200
   XY=           1295.1175   XZ=            396.0717   YZ=           1210.1251
 Traceless Quadrupole moment (field-independent basis, Debye-Ang):
   XX=          -1133.7620   YY=           2171.9943   ZZ=          -1038.2324
   XY=           1295.1175   XZ=            396.0717   YZ=           1210.1251
 Octapole moment (field-independent basis, Debye-Ang**2):
  XXX=          -2979.4433  YYY=          81378.9076  ZZZ=          -1502.4877  XYY=          33734.6288
  XXY=           4546.9813  XXZ=            431.2448  XZZ=           1841.5060  YZZ=           6399.5262
  YYZ=          29192.0637  XYZ=          10455.1966
 Hexadecapole moment (field-independent basis, Debye-Ang**3):
 XXXX=        -104640.8551 YYYY=        1437297.8508 ZZZZ=        -116707.3251 XXXY=        -112271.7520
 XXXZ=         -58119.6051 YYYX=         777988.9250 YYYZ=         568343.8038 ZZZX=         -33147.0786
 ZZZY=         -84288.2601 XXYY=          69446.5463 XXZZ=         -30185.6097 YYZZ=          85186.1281
 XXYZ=          -5955.4089 YYXZ=         244712.0530 ZZXY=          32178.8048
 N-N= 5.712191188794D+03 E-N=-1.618199198538D+04  KE= 2.035161076586D+03
 Unable to Open any file for archive entry.
 1\1\GINC-SKL-136\SP\RB3LYP\6-31G(d)\C26H39N8O8(1+)\KENGMITH\27-May-202
 2\0\\# B3LYP/6-31G* empiricaldispersion=gd3 guess=read geom=check nosy
 mm integral(ultrafinegrid)\\Candidate Structure: Conf:879 Charge calc 
 in gas phase\\1,1\N,0,10.1620074901,29.7263076457,12.7533950921\C,0,10
 .2887584596,29.1714328889,14.1490480599\C,0,11.1697643826,30.065562050
 5,15.0581674752\O,0,11.6538362774,29.5425732448,16.0513626431\C,0,10.8
 481521482,27.7403788168,14.1023460915\C,0,9.8729296794,26.6512927394,1
 3.6138396471\C,0,9.6897090197,26.5478091166,12.1052345\O,0,9.912660534
 1,27.4582493892,11.3193442308\O,0,9.2308921762,25.3921911085,11.620800
 7592\H,0,9.1089496458,24.7287486735,12.3215803411\H,0,10.0317531406,28
 .9391618016,12.0725847557\H,0,9.278457513,29.1497618392,14.5602119635\
 H,0,11.7717771567,27.7157962998,13.5109997727\H,0,11.1356643507,27.509
 7698497,15.1298998511\H,0,8.8735047793,26.8055544591,14.0474633394\H,0
 ,10.2186959236,25.6798949876,13.9885303813\H,0,9.3476084214,30.3650269
 971,12.6749272816\H,0,11.0109565416,30.2358292574,12.4933354499\N,0,11
 .5082215796,31.3346587074,14.6610711593\C,0,10.7249975369,32.437343378
 2,14.0734433205\C,0,11.7596996549,33.571434343,13.89244366\O,0,12.6323
 570811,33.7079715401,14.7471128179\C,0,9.5489404111,32.9003304683,14.9
 802271349\C,0,8.5262001816,31.8168445854,15.1306716059\C,0,8.245586721
 5,31.0625064388,16.244199367\C,0,7.7315028036,31.2651390567,14.0597723
 682\C,0,7.0151566087,30.1529055215,14.5834720121\C,0,7.6123493516,31.5
 732188144,12.6892224759\N,0,7.3525539579,30.0526030682,15.922837775\C,
 0,6.2118688008,29.3423540246,13.7720214898\C,0,6.8241955235,30.7618004
 042,11.8749827645\C,0,6.1365179344,29.653659572,12.4152752096\H,0,12.2
 0869938,31.7382058743,15.2886808772\H,0,10.3196805729,32.159014861,13.
 1017198054\H,0,9.0990850447,33.78185404,14.51008583\H,0,9.9634048523,3
 3.1948922363,15.9497021458\H,0,8.6390319567,31.1483704154,17.247703522
 3\H,0,6.8942898092,29.4565033036,16.5963567836\H,0,8.0862520144,32.452
 0091102,12.2723010423\H,0,5.6612885624,28.5010264886,14.184873276\H,0,
 6.7299216554,31.0165213474,10.8223922508\H,0,5.5166374456,29.042261756
 3,11.7661251027\N,0,11.6913994042,34.3511926933,12.787513295\C,0,10.65
 79656653,34.4652829647,11.7604292407\C,0,11.3722866253,34.8054590667,1
 0.4533499608\O,0,12.2682259466,35.644507059,10.4610941468\C,0,9.590349
 7651,35.5729891762,12.1385427642\C,0,9.1992021244,36.5271592016,11.010
 7406883\O,0,8.4438978089,34.9489345451,12.7040361462\H,0,7.9800552848,
 34.530443487,11.9545836819\H,0,12.4044107944,35.0754841507,12.74212675
 98\H,0,10.1159423734,33.5311483277,11.6688355133\H,0,10.0378290515,36.
 151485237,12.9534582325\H,0,8.7711837775,35.9757108752,10.1694049059\H
 ,0,10.0628541086,37.0998870134,10.6612931096\H,0,8.4476966454,37.22347
 36037,11.3938648684\N,0,10.9427463989,34.2527854009,9.2710500549\C,0,1
 0.2573092825,32.9900252476,8.9614482276\C,0,8.7458088269,32.9062675487
 ,9.333726569\O,0,8.0609070815,32.1399103088,8.5792329492\C,0,11.055194
 7732,31.7786208388,9.5256918639\C,0,10.3695525605,30.4019982271,9.6051
 630203\C,0,9.8291418378,29.7379893153,8.3193248728\N,0,10.5484328189,3
 0.0768550836,7.0852225973\C,0,10.0453473147,30.7934335124,6.0627900628
 \N,0,8.9481733174,31.5178473657,6.2073734471\N,0,10.7261452851,30.7726
 929168,4.8882396517\O,0,8.3297633246,33.4981411483,10.3417487676\H,0,1
 1.4712896842,34.6480708969,8.5010403756\H,0,10.2980273148,32.935736069
 3,7.8720446241\H,0,11.3677670034,32.0336534081,10.5464750389\H,0,11.98
 71133159,31.6965487683,8.9527896252\H,0,11.0951580361,29.7154526591,10
 .0611811927\H,0,9.5081841145,30.4621212409,10.280713072\H,0,9.86446415
 7,28.6500915933,8.4396327538\H,0,8.7893483086,30.0203205625,8.17873639
 05\H,0,11.4896501464,29.7242160097,6.9737920601\H,0,8.5079739601,31.90
 81744238,5.3849148399\H,0,8.557536641,31.7952391221,7.1853717172\H,0,1
 1.2823701524,29.9681276324,4.6352548489\H,0,10.4326362674,31.367804707
 ,4.1269756912\\Version=ES64L-G16RevC.01\HF=-2054.0284867\RMSD=9.089e-0
 9\Dipole=-0.0770918,-6.5307171,-4.4707434\Quadrupole=-842.9242284,1614
 .8245383,-771.9003099,962.8881284,294.4695893,899.6983605\PG=C01 [X(C2
 6H39N8O8)]\\@
 The archive entry for this job was punched.


 IF GOD HAD MEANT MAN TO SEE THE SUN RISE, HE
 WOULD HAVE SCHEDULED IT FOR A LATER HOUR.
 Job cpu time:       0 days  0 hours  2 minutes 25.6 seconds.
 Elapsed time:       0 days  0 hours  0 minutes 37.5 seconds.
 File lengths (MBytes):  RWF=    376 Int=      0 D2E=      0 Chk=     56 Scr=     16
 Normal termination of Gaussian 16 at Fri May 27 05:10:41 2022.
