 Entering Gaussian System, Link 0=/opt/software/Gaussian/g16-AVX2-C.01/g16/g16
 Input=charge-conf-62.com
 Output=charge-conf-62.log
 Initial command:
 /opt/software/Gaussian/g16-AVX2-C.01/g16/l1.exe "/mnt/gs18/scratch/users/kengmith/Gau-25426.inp" -scrdir="/mnt/gs18/scratch/users/kengmith/"
 Entering Link 1 = /opt/software/Gaussian/g16-AVX2-C.01/g16/l1.exe PID=     25436.
  
 Copyright (c) 1988-2019, Gaussian, Inc.  All Rights Reserved.
  
 This is part of the Gaussian(R) 16 program.  It is based on
 the Gaussian(R) 09 system (copyright 2009, Gaussian, Inc.),
 the Gaussian(R) 03 system (copyright 2003, Gaussian, Inc.),
 the Gaussian(R) 98 system (copyright 1998, Gaussian, Inc.),
 the Gaussian(R) 94 system (copyright 1995, Gaussian, Inc.),
 the Gaussian 92(TM) system (copyright 1992, Gaussian, Inc.),
 the Gaussian 90(TM) system (copyright 1990, Gaussian, Inc.),
 the Gaussian 88(TM) system (copyright 1988, Gaussian, Inc.),
 the Gaussian 86(TM) system (copyright 1986, Carnegie Mellon
 University), and the Gaussian 82(TM) system (copyright 1983,
 Carnegie Mellon University). Gaussian is a federally registered
 trademark of Gaussian, Inc.
  
 This software contains proprietary and confidential information,
 including trade secrets, belonging to Gaussian, Inc.
  
 This software is provided under written license and may be
 used, copied, transmitted, or stored only in accord with that
 written license.
  
 The following legend is applicable only to US Government
 contracts under FAR:
  
                    RESTRICTED RIGHTS LEGEND
  
 Use, reproduction and disclosure by the US Government is
 subject to restrictions as set forth in subparagraphs (a)
 and (c) of the Commercial Computer Software - Restricted
 Rights clause in FAR 52.227-19.
  
 Gaussian, Inc.
 340 Quinnipiac St., Bldg. 40, Wallingford CT 06492
  
  
 ---------------------------------------------------------------
 Warning -- This program may not be used in any manner that
 competes with the business of Gaussian, Inc. or will provide
 assistance to any competitor of Gaussian, Inc.  The licensee
 of this program is prohibited from giving any competitor of
 Gaussian, Inc. access to this program.  By using this program,
 the user acknowledges that Gaussian, Inc. is engaged in the
 business of creating and licensing software in the field of
 computational chemistry and represents and warrants to the
 licensee that it is not a competitor of Gaussian, Inc. and that
 it will not use this program in any manner prohibited above.
 ---------------------------------------------------------------
  

 Cite this work as:
 Gaussian 16, Revision C.01,
 M. J. Frisch, G. W. Trucks, H. B. Schlegel, G. E. Scuseria, 
 M. A. Robb, J. R. Cheeseman, G. Scalmani, V. Barone, 
 G. A. Petersson, H. Nakatsuji, X. Li, M. Caricato, A. V. Marenich, 
 J. Bloino, B. G. Janesko, R. Gomperts, B. Mennucci, H. P. Hratchian, 
 J. V. Ortiz, A. F. Izmaylov, J. L. Sonnenberg, D. Williams-Young, 
 F. Ding, F. Lipparini, F. Egidi, J. Goings, B. Peng, A. Petrone, 
 T. Henderson, D. Ranasinghe, V. G. Zakrzewski, J. Gao, N. Rega, 
 G. Zheng, W. Liang, M. Hada, M. Ehara, K. Toyota, R. Fukuda, 
 J. Hasegawa, M. Ishida, T. Nakajima, Y. Honda, O. Kitao, H. Nakai, 
 T. Vreven, K. Throssell, J. A. Montgomery, Jr., J. E. Peralta, 
 F. Ogliaro, M. J. Bearpark, J. J. Heyd, E. N. Brothers, K. N. Kudin, 
 V. N. Staroverov, T. A. Keith, R. Kobayashi, J. Normand, 
 K. Raghavachari, A. P. Rendell, J. C. Burant, S. S. Iyengar, 
 J. Tomasi, M. Cossi, J. M. Millam, M. Klene, C. Adamo, R. Cammi, 
 J. W. Ochterski, R. L. Martin, K. Morokuma, O. Farkas, 
 J. B. Foresman, and D. J. Fox, Gaussian, Inc., Wallingford CT, 2019.
 
 ******************************************
 Gaussian 16:  ES64L-G16RevC.01  3-Jul-2019
                27-May-2022 
 ******************************************
 %mem=8gb
 %nproc=4
 Will use up to    4 processors via shared memory.
 %chk=conf-62.chk
 ----------------------------------------------------------------------
 # B3LYP/6-31G* empiricaldispersion=gd3 guess=read geom=check nosymm in
 tegral(ultrafinegrid)
 ----------------------------------------------------------------------
 1/29=2,38=1,172=1/1;
 2/12=2,15=1,40=1/2;
 3/5=1,6=6,7=1,11=2,14=-4,25=1,30=1,74=-5,75=-5,116=-2,124=31/1,2,3;
 4/5=1/1;
 5/5=2,38=6/2;
 6/7=2,8=2,9=2,10=2,28=1/1;
 99/5=1,9=1/99;
 -----------------------------------------------------
 Candidate Structure: Conf:62 Charge calc in gas phase
 -----------------------------------------------------
 Structure from the checkpoint file:  "conf-62.chk"
 Charge =  1 Multiplicity = 1
 Redundant internal coordinates found in file.  (old form).
 N,0,9.1403453762,29.8415667642,13.9289942368
 C,0,9.3949512893,28.4819759235,13.2918412318
 C,0,10.8279768736,27.9425266294,13.5761406064
 O,0,10.8901346753,26.9229349628,14.251393329
 C,0,9.031644646,28.4182641954,11.7957933139
 C,0,7.5362745368,28.1771974999,11.4499013494
 C,0,6.6295608264,29.3255313619,11.8439076597
 O,0,6.2711101207,30.2168397356,11.1153910335
 O,0,6.3113655424,29.3983639245,13.1859899179
 H,0,6.3604460039,28.5153173107,13.594247694
 H,0,9.6788769903,30.6004125628,13.49512345
 H,0,8.7676402466,27.7951556251,13.8643737909
 H,0,9.411576424,29.2812572171,11.24629366
 H,0,9.5827379424,27.5669004775,11.3849973477
 H,0,7.1983256193,27.244814894,11.9209054547
 H,0,7.4538654805,28.0527599934,10.3680529851
 H,0,8.1421251946,30.0869237765,13.8661635805
 H,0,9.4243974504,29.8491951974,14.926290368
 N,0,11.9009658701,28.4988534403,12.9684388507
 C,0,12.1418101374,29.8177102836,12.4065512166
 C,0,13.1433528113,29.6310907661,11.2478793865
 O,0,13.9379721196,28.6999924503,11.3070370689
 C,0,12.8204296274,30.7621131754,13.4477790197
 C,0,11.9455405286,31.0473083259,14.625616518
 C,0,11.6533336942,30.1983703135,15.6623268707
 C,0,11.1491427012,32.2430380127,14.8243239071
 C,0,10.3772797282,32.0447764278,15.9984676498
 C,0,11.0554822912,33.4664610765,14.134317135
 N,0,10.6361448689,30.7481501592,16.4544988276
 C,0,9.5319493252,33.0309233303,16.5150344475
 C,0,10.2289317219,34.4555204534,14.6546617763
 C,0,9.4807801623,34.2427642534,15.8323944963
 H,0,12.7502482205,27.9365016425,13.0155770723
 H,0,11.2055695277,30.2529598386,12.0549652037
 H,0,13.095995382,31.6933288791,12.9416458887
 H,0,13.7555141782,30.2788396282,13.7506096439
 H,0,12.0445179074,29.2156308227,15.88702221
 H,0,10.4990181953,30.4753958812,17.4201223781
 H,0,11.5997019305,33.6447185638,13.2124641844
 H,0,8.9609807145,32.8704901893,17.4252008198
 H,0,10.1612324993,35.4096840545,14.1407845414
 H,0,8.8545214296,35.0419713455,16.2176564887
 N,0,13.1777228603,30.597254073,10.3006993543
 C,0,12.1316053178,31.5666208077,9.9873832943
 C,0,10.8578985163,30.8352405796,9.5510737511
 O,0,10.8792948738,29.6528786049,9.2109554311
 C,0,12.7223585938,32.5985222435,8.9399726414
 C,0,11.7835518611,33.0192355531,7.805296693
 O,0,13.2747329593,33.699126299,9.6203315641
 H,0,12.5249575999,34.1763190346,10.0336986456
 H,0,13.8444540499,30.3918329602,9.5646421762
 H,0,11.8931986223,32.1684570001,10.8657809842
 H,0,13.5751578774,32.0930917097,8.4693064719
 H,0,12.3497554129,33.6716524996,7.1344649849
 H,0,10.9160313314,33.5801765518,8.1589443864
 H,0,11.430383897,32.1536746581,7.2336959224
 N,0,9.658765128,31.5121120374,9.5200747502
 C,0,9.0452394496,32.6179011207,10.2813405945
 C,0,9.7681771629,33.9982311081,10.2933603452
 O,0,9.1480404312,34.9468720188,9.7314225763
 C,0,8.7440939497,32.1820879436,11.7255584245
 C,0,7.7511460052,33.0439701651,12.5461480545
 C,0,6.8203962712,33.994612374,11.7826220384
 N,0,5.9870294557,33.3250226908,10.7716649068
 C,0,5.8041512242,33.7430183232,9.5067515551
 N,0,6.6198632353,34.6187085875,8.9328646573
 N,0,4.7636158287,33.2135060025,8.8206820448
 O,0,10.8482879203,34.0631600581,10.9204197695
 H,0,8.954106982,30.8908164393,9.1350100773
 H,0,8.1037380032,32.748428317,9.7599647572
 H,0,9.707602811,32.1637013322,12.2510280364
 H,0,8.3610470311,31.1658199911,11.6555867368
 H,0,7.1341679092,32.3788333589,13.1673832634
 H,0,8.3082156695,33.6758258925,13.242606239
 H,0,6.1555255331,34.4859458405,12.5030585249
 H,0,7.4040896747,34.772051594,11.2933440009
 H,0,5.5976586049,32.4210205326,11.0195358949
 H,0,6.3450340664,35.0356533961,8.0534905923
 H,0,7.6357114074,34.7661460321,9.2472285898
 H,0,3.9594475381,32.8467787815,9.3086475052
 H,0,4.6747269533,33.3590142824,7.8257361829
 Recover connectivity data from disk.
                           ----------------------------
                           !    Current Parameters    !
                           ! (Angstroms and Degrees)  !
 --------------------------                            --------------------------
 ! Name  Definition              Value                                          !
 --------------------------------------------------------------------------------
 ! R1    R(1,2)                  1.5229                                         !
 ! R2    R(1,11)                 1.0267                                         !
 ! R3    R(1,17)                 1.0299                                         !
 ! R4    R(1,18)                 1.037                                          !
 ! R5    R(2,3)                  1.5574                                         !
 ! R6    R(2,5)                  1.5408                                         !
 ! R7    R(2,12)                 1.0923                                         !
 ! R8    R(3,4)                  1.2245                                         !
 ! R9    R(3,19)                 1.3528                                         !
 ! R10   R(5,6)                  1.5537                                         !
 ! R11   R(5,13)                 1.0914                                         !
 ! R12   R(5,14)                 1.0942                                         !
 ! R13   R(6,7)                  1.5153                                         !
 ! R14   R(6,15)                 1.0979                                         !
 ! R15   R(6,16)                 1.0921                                         !
 ! R16   R(7,8)                  1.2057                                         !
 ! R17   R(7,9)                  1.3812                                         !
 ! R18   R(9,10)                 0.9741                                         !
 ! R19   R(19,20)                1.4537                                         !
 ! R20   R(19,33)                1.0197                                         !
 ! R21   R(20,21)                1.5429                                         !
 ! R22   R(20,23)                1.561                                          !
 ! R23   R(20,34)                1.0907                                         !
 ! R24   R(21,22)                1.2255                                         !
 ! R25   R(21,43)                1.3534                                         !
 ! R26   R(23,24)                1.4947                                         !
 ! R27   R(23,35)                1.0951                                         !
 ! R28   R(23,36)                1.0953                                         !
 ! R29   R(24,25)                1.3714                                         !
 ! R30   R(24,26)                1.4503                                         !
 ! R31   R(25,29)                1.4016                                         !
 ! R32   R(25,37)                1.0813                                         !
 ! R33   R(26,27)                1.419                                          !
 ! R34   R(26,28)                1.4077                                         !
 ! R35   R(27,29)                1.3986                                         !
 ! R36   R(27,30)                1.3978                                         !
 ! R37   R(28,31)                1.39                                           !
 ! R38   R(28,39)                1.0852                                         !
 ! R39   R(29,38)                1.0127                                         !
 ! R40   R(30,32)                1.3918                                         !
 ! R41   R(30,40)                1.0863                                         !
 ! R42   R(31,32)                1.4114                                         !
 ! R43   R(31,41)                1.0859                                         !
 ! R44   R(32,42)                1.086                                          !
 ! R45   R(43,44)                1.4602                                         !
 ! R46   R(43,51)                1.0142                                         !
 ! R47   R(44,45)                1.5322                                         !
 ! R48   R(44,47)                1.5846                                         !
 ! R49   R(44,52)                1.0912                                         !
 ! R50   R(45,46)                1.2305                                         !
 ! R51   R(45,57)                1.3773                                         !
 ! R52   R(47,48)                1.5316                                         !
 ! R53   R(47,49)                1.4069                                         !
 ! R54   R(47,53)                1.0974                                         !
 ! R55   R(48,54)                1.0937                                         !
 ! R56   R(48,55)                1.0919                                         !
 ! R57   R(48,56)                1.0957                                         !
 ! R58   R(49,50)                0.9802                                         !
 ! R59   R(57,58)                1.476                                          !
 ! R60   R(57,69)                1.0153                                         !
 ! R61   R(58,59)                1.5582                                         !
 ! R62   R(58,61)                1.5383                                         !
 ! R63   R(58,70)                1.0841                                         !
 ! R64   R(59,60)                1.265                                          !
 ! R65   R(59,68)                1.2506                                         !
 ! R66   R(61,62)                1.5499                                         !
 ! R67   R(61,71)                1.0976                                         !
 ! R68   R(61,72)                1.0883                                         !
 ! R69   R(62,63)                1.5339                                         !
 ! R70   R(62,73)                1.0995                                         !
 ! R71   R(62,74)                1.093                                          !
 ! R72   R(63,64)                1.4714                                         !
 ! R73   R(63,75)                1.0966                                         !
 ! R74   R(63,76)                1.0883                                         !
 ! R75   R(64,65)                1.3447                                         !
 ! R76   R(64,77)                1.015                                          !
 ! R77   R(65,66)                1.3272                                         !
 ! R78   R(65,67)                1.3542                                         !
 ! R79   R(66,78)                1.0113                                         !
 ! R80   R(66,79)                1.0736                                         !
 ! R81   R(67,80)                1.0096                                         !
 ! R82   R(67,81)                1.0095                                         !
 ! A1    A(2,1,11)             113.288                                          !
 ! A2    A(2,1,17)             110.4395                                         !
 ! A3    A(2,1,18)             111.2929                                         !
 ! A4    A(11,1,17)            107.8512                                         !
 ! A5    A(11,1,18)            104.9098                                         !
 ! A6    A(17,1,18)            108.8099                                         !
 ! A7    A(1,2,3)              112.7491                                         !
 ! A8    A(1,2,5)              113.8102                                         !
 ! A9    A(1,2,12)             104.2439                                         !
 ! A10   A(3,2,5)              112.3262                                         !
 ! A11   A(3,2,12)             102.4138                                         !
 ! A12   A(5,2,12)             110.3354                                         !
 ! A13   A(2,3,4)              115.8361                                         !
 ! A14   A(2,3,19)             120.3563                                         !
 ! A15   A(4,3,19)             123.3587                                         !
 ! A16   A(2,5,6)              116.7121                                         !
 ! A17   A(2,5,13)             111.9677                                         !
 ! A18   A(2,5,14)             106.137                                          !
 ! A19   A(6,5,13)             110.2224                                         !
 ! A20   A(6,5,14)             106.2867                                         !
 ! A21   A(13,5,14)            104.5306                                         !
 ! A22   A(5,6,7)              113.6067                                         !
 ! A23   A(5,6,15)             109.4219                                         !
 ! A24   A(5,6,16)             108.1103                                         !
 ! A25   A(7,6,15)             110.3557                                         !
 ! A26   A(7,6,16)             107.3844                                         !
 ! A27   A(15,6,16)            107.7573                                         !
 ! A28   A(6,7,8)              125.5228                                         !
 ! A29   A(6,7,9)              115.4975                                         !
 ! A30   A(8,7,9)              118.6625                                         !
 ! A31   A(7,9,10)             110.3549                                         !
 ! A32   A(3,19,20)            132.6993                                         !
 ! A33   A(3,19,33)            114.3965                                         !
 ! A34   A(20,19,33)           112.3481                                         !
 ! A35   A(19,20,21)           106.7439                                         !
 ! A36   A(19,20,23)           111.2911                                         !
 ! A37   A(19,20,34)           110.1473                                         !
 ! A38   A(21,20,23)           106.9723                                         !
 ! A39   A(21,20,34)           111.3097                                         !
 ! A40   A(23,20,34)           110.2899                                         !
 ! A41   A(20,21,22)           118.4605                                         !
 ! A42   A(20,21,43)           117.1102                                         !
 ! A43   A(22,21,43)           124.0338                                         !
 ! A44   A(20,23,24)           112.744                                          !
 ! A45   A(20,23,35)           108.3954                                         !
 ! A46   A(20,23,36)           106.7763                                         !
 ! A47   A(24,23,35)           110.441                                          !
 ! A48   A(24,23,36)           111.4714                                         !
 ! A49   A(35,23,36)           106.7474                                         !
 ! A50   A(23,24,25)           127.034                                          !
 ! A51   A(23,24,26)           125.9222                                         !
 ! A52   A(25,24,26)           106.8446                                         !
 ! A53   A(24,25,29)           109.82                                           !
 ! A54   A(24,25,37)           129.9836                                         !
 ! A55   A(29,25,37)           120.105                                          !
 ! A56   A(24,26,27)           107.2686                                         !
 ! A57   A(24,26,28)           133.3059                                         !
 ! A58   A(27,26,28)           119.3934                                         !
 ! A59   A(26,27,29)           107.3755                                         !
 ! A60   A(26,27,30)           122.4217                                         !
 ! A61   A(29,27,30)           130.2004                                         !
 ! A62   A(26,28,31)           118.3245                                         !
 ! A63   A(26,28,39)           121.7188                                         !
 ! A64   A(31,28,39)           119.9533                                         !
 ! A65   A(25,29,27)           108.2811                                         !
 ! A66   A(25,29,38)           122.1086                                         !
 ! A67   A(27,29,38)           122.3781                                         !
 ! A68   A(27,30,32)           117.0803                                         !
 ! A69   A(27,30,40)           121.5524                                         !
 ! A70   A(32,30,40)           121.3446                                         !
 ! A71   A(28,31,32)           121.3528                                         !
 ! A72   A(28,31,41)           119.023                                          !
 ! A73   A(32,31,41)           119.6241                                         !
 ! A74   A(30,32,31)           121.401                                          !
 ! A75   A(30,32,42)           119.2071                                         !
 ! A76   A(31,32,42)           119.3914                                         !
 ! A77   A(21,43,44)           127.2913                                         !
 ! A78   A(21,43,51)           112.3353                                         !
 ! A79   A(44,43,51)           116.7262                                         !
 ! A80   A(43,44,45)           109.8629                                         !
 ! A81   A(43,44,47)           107.8818                                         !
 ! A82   A(43,44,52)           110.4844                                         !
 ! A83   A(45,44,47)           115.6292                                         !
 ! A84   A(45,44,52)           108.1128                                         !
 ! A85   A(47,44,52)           104.7375                                         !
 ! A86   A(44,45,46)           121.5287                                         !
 ! A87   A(44,45,57)           119.7074                                         !
 ! A88   A(46,45,57)           118.7593                                         !
 ! A89   A(44,47,48)           116.1076                                         !
 ! A90   A(44,47,49)           109.6433                                         !
 ! A91   A(44,47,53)           105.8601                                         !
 ! A92   A(48,47,49)           112.5838                                         !
 ! A93   A(48,47,53)           106.5653                                         !
 ! A94   A(49,47,53)           105.2247                                         !
 ! A95   A(47,48,54)           107.5131                                         !
 ! A96   A(47,48,55)           112.8396                                         !
 ! A97   A(47,48,56)           111.5331                                         !
 ! A98   A(54,48,55)           107.6679                                         !
 ! A99   A(54,48,56)           108.5479                                         !
 ! A100  A(55,48,56)           108.5832                                         !
 ! A101  A(47,49,50)           106.5271                                         !
 ! A102  A(45,57,58)           135.9254                                         !
 ! A103  A(45,57,69)           108.1832                                         !
 ! A104  A(58,57,69)           111.4419                                         !
 ! A105  A(57,58,59)           118.3438                                         !
 ! A106  A(57,58,61)           110.6912                                         !
 ! A107  A(57,58,70)           101.7207                                         !
 ! A108  A(59,58,61)           109.5448                                         !
 ! A109  A(59,58,70)           107.456                                          !
 ! A110  A(61,58,70)           108.3975                                         !
 ! A111  A(58,59,60)           115.6851                                         !
 ! A112  A(58,59,68)           116.7789                                         !
 ! A113  A(60,59,68)           127.3857                                         !
 ! A114  A(58,61,62)           117.7064                                         !
 ! A115  A(58,61,71)           106.4005                                         !
 ! A116  A(58,61,72)           105.8484                                         !
 ! A117  A(62,61,71)           108.5555                                         !
 ! A118  A(62,61,72)           109.1373                                         !
 ! A119  A(71,61,72)           108.9106                                         !
 ! A120  A(61,62,63)           118.023                                          !
 ! A121  A(61,62,73)           108.7979                                         !
 ! A122  A(61,62,74)           109.4096                                         !
 ! A123  A(63,62,73)           108.3999                                         !
 ! A124  A(63,62,74)           105.5546                                         !
 ! A125  A(73,62,74)           106.0024                                         !
 ! A126  A(62,63,64)           113.806                                          !
 ! A127  A(62,63,75)           108.5755                                         !
 ! A128  A(62,63,76)           109.9408                                         !
 ! A129  A(64,63,75)           108.1739                                         !
 ! A130  A(64,63,76)           108.6601                                         !
 ! A131  A(75,63,76)           107.4855                                         !
 ! A132  A(63,64,65)           125.5843                                         !
 ! A133  A(63,64,77)           117.0515                                         !
 ! A134  A(65,64,77)           117.0261                                         !
 ! A135  A(64,65,66)           121.8873                                         !
 ! A136  A(64,65,67)           117.3568                                         !
 ! A137  A(66,65,67)           120.742                                          !
 ! A138  A(65,66,78)           118.7505                                         !
 ! A139  A(65,66,79)           123.0626                                         !
 ! A140  A(78,66,79)           117.0758                                         !
 ! A141  A(65,67,80)           120.6111                                         !
 ! A142  A(65,67,81)           120.7072                                         !
 ! A143  A(80,67,81)           117.297                                          !
 ! D1    D(11,1,2,3)            69.0866                                         !
 ! D2    D(11,1,2,5)           -60.3538                                         !
 ! D3    D(11,1,2,12)          179.3871                                         !
 ! D4    D(17,1,2,3)          -169.8111                                         !
 ! D5    D(17,1,2,5)            60.7485                                         !
 ! D6    D(17,1,2,12)          -59.5105                                         !
 ! D7    D(18,1,2,3)           -48.8436                                         !
 ! D8    D(18,1,2,5)          -178.284                                          !
 ! D9    D(18,1,2,12)           61.457                                          !
 ! D10   D(1,2,3,4)            115.1392                                         !
 ! D11   D(1,2,3,19)           -72.2941                                         !
 ! D12   D(5,2,3,4)           -114.6623                                         !
 ! D13   D(5,2,3,19)            57.9043                                         !
 ! D14   D(12,2,3,4)             3.7013                                         !
 ! D15   D(12,2,3,19)          176.268                                          !
 ! D16   D(1,2,5,6)            -82.2139                                         !
 ! D17   D(1,2,5,13)            46.1197                                         !
 ! D18   D(1,2,5,14)           159.5944                                         !
 ! D19   D(3,2,5,6)            148.1332                                         !
 ! D20   D(3,2,5,13)           -83.5332                                         !
 ! D21   D(3,2,5,14)            29.9415                                         !
 ! D22   D(12,2,5,6)            34.5527                                         !
 ! D23   D(12,2,5,13)          162.8863                                         !
 ! D24   D(12,2,5,14)          -83.639                                          !
 ! D25   D(2,3,19,20)           24.9257                                         !
 ! D26   D(2,3,19,33)         -164.4593                                         !
 ! D27   D(4,3,19,20)         -163.088                                          !
 ! D28   D(4,3,19,33)            7.5271                                         !
 ! D29   D(2,5,6,7)             66.7796                                         !
 ! D30   D(2,5,6,15)           -57.0421                                         !
 ! D31   D(2,5,6,16)          -174.1428                                         !
 ! D32   D(13,5,6,7)           -62.3929                                         !
 ! D33   D(13,5,6,15)          173.7855                                         !
 ! D34   D(13,5,6,16)           56.6848                                         !
 ! D35   D(14,5,6,7)          -175.11                                           !
 ! D36   D(14,5,6,15)           61.0683                                         !
 ! D37   D(14,5,6,16)          -56.0324                                         !
 ! D38   D(5,6,7,8)             95.6397                                         !
 ! D39   D(5,6,7,9)            -77.7731                                         !
 ! D40   D(15,6,7,8)          -141.0477                                         !
 ! D41   D(15,6,7,9)            45.5394                                         !
 ! D42   D(16,6,7,8)           -23.8522                                         !
 ! D43   D(16,6,7,9)           162.735                                          !
 ! D44   D(6,7,9,10)           -26.4118                                         !
 ! D45   D(8,7,9,10)           159.6962                                         !
 ! D46   D(3,19,20,21)        -149.617                                          !
 ! D47   D(3,19,20,23)          93.9977                                         !
 ! D48   D(3,19,20,34)         -28.6456                                         !
 ! D49   D(33,19,20,21)         39.6228                                         !
 ! D50   D(33,19,20,23)        -76.7626                                         !
 ! D51   D(33,19,20,34)        160.5942                                         !
 ! D52   D(19,20,21,22)        -28.7861                                         !
 ! D53   D(19,20,21,43)        158.1383                                         !
 ! D54   D(23,20,21,22)         90.4409                                         !
 ! D55   D(23,20,21,43)        -82.6347                                         !
 ! D56   D(34,20,21,22)       -149.0136                                         !
 ! D57   D(34,20,21,43)         37.9107                                         !
 ! D58   D(19,20,23,24)        -64.5806                                         !
 ! D59   D(19,20,23,35)        172.8381                                         !
 ! D60   D(19,20,23,36)         58.1658                                         !
 ! D61   D(21,20,23,24)        179.174                                          !
 ! D62   D(21,20,23,35)         56.5927                                         !
 ! D63   D(21,20,23,36)        -58.0796                                         !
 ! D64   D(34,20,23,24)         57.9806                                         !
 ! D65   D(34,20,23,35)        -64.6008                                         !
 ! D66   D(34,20,23,36)       -179.2731                                         !
 ! D67   D(20,21,43,44)        -21.182                                          !
 ! D68   D(20,21,43,51)       -178.7044                                         !
 ! D69   D(22,21,43,44)        166.1661                                         !
 ! D70   D(22,21,43,51)          8.6436                                         !
 ! D71   D(20,23,24,25)         74.5796                                         !
 ! D72   D(20,23,24,26)        -99.6076                                         !
 ! D73   D(35,23,24,25)       -163.9929                                         !
 ! D74   D(35,23,24,26)         21.8199                                         !
 ! D75   D(36,23,24,25)        -45.5                                            !
 ! D76   D(36,23,24,26)        140.3128                                         !
 ! D77   D(23,24,25,29)       -170.5562                                         !
 ! D78   D(23,24,25,37)          5.8972                                         !
 ! D79   D(26,24,25,29)          4.5278                                         !
 ! D80   D(26,24,25,37)       -179.0187                                         !
 ! D81   D(23,24,26,27)        174.374                                          !
 ! D82   D(23,24,26,28)         -7.7722                                         !
 ! D83   D(25,24,26,27)         -0.7803                                         !
 ! D84   D(25,24,26,28)        177.0736                                         !
 ! D85   D(24,25,29,27)         -6.6594                                         !
 ! D86   D(24,25,29,38)       -157.4812                                         !
 ! D87   D(37,25,29,27)        176.4814                                         !
 ! D88   D(37,25,29,38)         25.6596                                         !
 ! D89   D(24,26,27,29)         -3.2135                                         !
 ! D90   D(24,26,27,30)        177.3036                                         !
 ! D91   D(28,26,27,29)        178.5789                                         !
 ! D92   D(28,26,27,30)         -0.904                                          !
 ! D93   D(24,26,28,31)       -175.9708                                         !
 ! D94   D(24,26,28,39)          4.699                                          !
 ! D95   D(27,26,28,31)          1.6768                                         !
 ! D96   D(27,26,28,39)       -177.6533                                         !
 ! D97   D(26,27,29,25)          5.9777                                         !
 ! D98   D(26,27,29,38)        156.7044                                         !
 ! D99   D(30,27,29,25)       -174.5938                                         !
 ! D100  D(30,27,29,38)        -23.8671                                         !
 ! D101  D(26,27,30,32)         -0.583                                          !
 ! D102  D(26,27,30,40)       -178.8734                                         !
 ! D103  D(29,27,30,32)       -179.9369                                         !
 ! D104  D(29,27,30,40)          1.7727                                         !
 ! D105  D(26,28,31,32)         -1.0134                                         !
 ! D106  D(26,28,31,41)        178.9719                                         !
 ! D107  D(39,28,31,32)        178.329                                          !
 ! D108  D(39,28,31,41)         -1.6858                                         !
 ! D109  D(27,30,32,31)          1.2814                                         !
 ! D110  D(27,30,32,42)       -178.4675                                         !
 ! D111  D(40,30,32,31)        179.5756                                         !
 ! D112  D(40,30,32,42)         -0.1733                                         !
 ! D113  D(28,31,32,30)         -0.5027                                         !
 ! D114  D(28,31,32,42)        179.2458                                         !
 ! D115  D(41,31,32,30)        179.5121                                         !
 ! D116  D(41,31,32,42)         -0.7394                                         !
 ! D117  D(21,43,44,45)        -60.5012                                         !
 ! D118  D(21,43,44,47)        172.6427                                         !
 ! D119  D(21,43,44,52)         58.6966                                         !
 ! D120  D(51,43,44,45)         96.1744                                         !
 ! D121  D(51,43,44,47)        -30.6818                                         !
 ! D122  D(51,43,44,52)       -144.6279                                         !
 ! D123  D(43,44,45,46)        -16.4859                                         !
 ! D124  D(43,44,45,57)        164.301                                          !
 ! D125  D(47,44,45,46)        105.8863                                         !
 ! D126  D(47,44,45,57)        -73.3268                                         !
 ! D127  D(52,44,45,46)       -137.1269                                         !
 ! D128  D(52,44,45,57)         43.66                                           !
 ! D129  D(43,44,47,48)        139.0361                                         !
 ! D130  D(43,44,47,49)        -91.9863                                         !
 ! D131  D(43,44,47,53)         21.0475                                         !
 ! D132  D(45,44,47,48)         15.6168                                         !
 ! D133  D(45,44,47,49)        144.5944                                         !
 ! D134  D(45,44,47,53)       -102.3718                                         !
 ! D135  D(52,44,47,48)       -103.2476                                         !
 ! D136  D(52,44,47,49)         25.73                                           !
 ! D137  D(52,44,47,53)        138.7638                                         !
 ! D138  D(44,45,57,58)        -31.5307                                         !
 ! D139  D(44,45,57,69)        175.2932                                         !
 ! D140  D(46,45,57,58)        149.2345                                         !
 ! D141  D(46,45,57,69)         -3.9417                                         !
 ! D142  D(44,47,48,54)       -176.1863                                         !
 ! D143  D(44,47,48,55)         65.244                                          !
 ! D144  D(44,47,48,56)        -57.2985                                         !
 ! D145  D(49,47,48,54)         56.2763                                         !
 ! D146  D(49,47,48,55)        -62.2934                                         !
 ! D147  D(49,47,48,56)        175.1641                                         !
 ! D148  D(53,47,48,54)        -58.5866                                         !
 ! D149  D(53,47,48,55)       -177.1564                                         !
 ! D150  D(53,47,48,56)         60.3011                                         !
 ! D151  D(44,47,49,50)        -67.7053                                         !
 ! D152  D(48,47,49,50)         63.1775                                         !
 ! D153  D(53,47,49,50)        178.8493                                         !
 ! D154  D(45,57,58,59)         59.5939                                         !
 ! D155  D(45,57,58,61)        -68.0001                                         !
 ! D156  D(45,57,58,70)        176.9814                                         !
 ! D157  D(69,57,58,59)       -147.8315                                         !
 ! D158  D(69,57,58,61)         84.5745                                         !
 ! D159  D(69,57,58,70)        -30.444                                          !
 ! D160  D(57,58,59,60)        114.6405                                         !
 ! D161  D(57,58,59,68)        -69.4819                                         !
 ! D162  D(61,58,59,60)       -117.2253                                         !
 ! D163  D(61,58,59,68)         58.6522                                         !
 ! D164  D(70,58,59,60)          0.3364                                         !
 ! D165  D(70,58,59,68)        176.2139                                         !
 ! D166  D(57,58,61,62)       -162.9132                                         !
 ! D167  D(57,58,61,71)         75.1321                                         !
 ! D168  D(57,58,61,72)        -40.6368                                         !
 ! D169  D(59,58,61,62)         64.8182                                         !
 ! D170  D(59,58,61,71)        -57.1364                                         !
 ! D171  D(59,58,61,72)       -172.9054                                         !
 ! D172  D(70,58,61,62)        -52.1525                                         !
 ! D173  D(70,58,61,71)       -174.1071                                         !
 ! D174  D(70,58,61,72)         70.124                                          !
 ! D175  D(58,61,62,63)         18.177                                          !
 ! D176  D(58,61,62,73)        142.1553                                         !
 ! D177  D(58,61,62,74)       -102.4603                                         !
 ! D178  D(71,61,62,63)        139.0199                                         !
 ! D179  D(71,61,62,73)        -97.0019                                         !
 ! D180  D(71,61,62,74)         18.3825                                         !
 ! D181  D(72,61,62,63)       -102.4028                                         !
 ! D182  D(72,61,62,73)         21.5754                                         !
 ! D183  D(72,61,62,74)        136.9599                                         !
 ! D184  D(61,62,63,64)         56.6824                                         !
 ! D185  D(61,62,63,75)        177.2068                                         !
 ! D186  D(61,62,63,76)        -65.4631                                         !
 ! D187  D(73,62,63,64)        -67.4939                                         !
 ! D188  D(73,62,63,75)         53.0305                                         !
 ! D189  D(73,62,63,76)        170.3607                                         !
 ! D190  D(74,62,63,64)        179.292                                          !
 ! D191  D(74,62,63,75)        -60.1836                                         !
 ! D192  D(74,62,63,76)         57.1465                                         !
 ! D193  D(62,63,64,65)       -133.1119                                         !
 ! D194  D(62,63,64,77)         39.9864                                         !
 ! D195  D(75,63,64,65)        106.1384                                         !
 ! D196  D(75,63,64,77)        -80.7633                                         !
 ! D197  D(76,63,64,65)        -10.2623                                         !
 ! D198  D(76,63,64,77)        162.836                                          !
 ! D199  D(63,64,65,66)         17.4769                                         !
 ! D200  D(63,64,65,67)       -163.8673                                         !
 ! D201  D(77,64,65,66)       -155.623                                          !
 ! D202  D(77,64,65,67)         23.0328                                         !
 ! D203  D(64,65,66,78)       -168.3286                                         !
 ! D204  D(64,65,66,79)         24.0857                                         !
 ! D205  D(67,65,66,78)         13.0604                                         !
 ! D206  D(67,65,66,79)       -154.5252                                         !
 ! D207  D(64,65,67,80)         24.9175                                         !
 ! D208  D(64,65,67,81)       -168.8765                                         !
 ! D209  D(66,65,67,80)       -156.4105                                         !
 ! D210  D(66,65,67,81)          9.7955                                         !
 --------------------------------------------------------------------------------
 Symmetry turned off by external request.
 Stoichiometry    C26H39N8O8(1+)
 Framework group  C1[X(C26H39N8O8)]
 Deg. of freedom   237
 Full point group                 C1      NOp   1
                          Input orientation:                          
 ---------------------------------------------------------------------
 Center     Atomic      Atomic             Coordinates (Angstroms)
 Number     Number       Type             X           Y           Z
 ---------------------------------------------------------------------
      1          7           0        9.140345   29.841567   13.928994
      2          6           0        9.394951   28.481976   13.291841
      3          6           0       10.827977   27.942527   13.576141
      4          8           0       10.890135   26.922935   14.251393
      5          6           0        9.031645   28.418264   11.795793
      6          6           0        7.536275   28.177197   11.449901
      7          6           0        6.629561   29.325531   11.843908
      8          8           0        6.271110   30.216840   11.115391
      9          8           0        6.311366   29.398364   13.185990
     10          1           0        6.360446   28.515317   13.594248
     11          1           0        9.678877   30.600413   13.495123
     12          1           0        8.767640   27.795156   13.864374
     13          1           0        9.411576   29.281257   11.246294
     14          1           0        9.582738   27.566900   11.384997
     15          1           0        7.198326   27.244815   11.920905
     16          1           0        7.453865   28.052760   10.368053
     17          1           0        8.142125   30.086924   13.866164
     18          1           0        9.424397   29.849195   14.926290
     19          7           0       11.900966   28.498853   12.968439
     20          6           0       12.141810   29.817710   12.406551
     21          6           0       13.143353   29.631091   11.247879
     22          8           0       13.937972   28.699992   11.307037
     23          6           0       12.820430   30.762113   13.447779
     24          6           0       11.945541   31.047308   14.625617
     25          6           0       11.653334   30.198370   15.662327
     26          6           0       11.149143   32.243038   14.824324
     27          6           0       10.377280   32.044776   15.998468
     28          6           0       11.055482   33.466461   14.134317
     29          7           0       10.636145   30.748150   16.454499
     30          6           0        9.531949   33.030923   16.515034
     31          6           0       10.228932   34.455520   14.654662
     32          6           0        9.480780   34.242764   15.832394
     33          1           0       12.750248   27.936502   13.015577
     34          1           0       11.205570   30.252960   12.054965
     35          1           0       13.095995   31.693329   12.941646
     36          1           0       13.755514   30.278840   13.750610
     37          1           0       12.044518   29.215631   15.887022
     38          1           0       10.499018   30.475396   17.420122
     39          1           0       11.599702   33.644719   13.212464
     40          1           0        8.960981   32.870490   17.425201
     41          1           0       10.161232   35.409684   14.140785
     42          1           0        8.854521   35.041971   16.217656
     43          7           0       13.177723   30.597254   10.300699
     44          6           0       12.131605   31.566621    9.987383
     45          6           0       10.857899   30.835241    9.551074
     46          8           0       10.879295   29.652879    9.210955
     47          6           0       12.722359   32.598522    8.939973
     48          6           0       11.783552   33.019236    7.805297
     49          8           0       13.274733   33.699126    9.620332
     50          1           0       12.524958   34.176319   10.033699
     51          1           0       13.844454   30.391833    9.564642
     52          1           0       11.893199   32.168457   10.865781
     53          1           0       13.575158   32.093092    8.469306
     54          1           0       12.349755   33.671652    7.134465
     55          1           0       10.916031   33.580177    8.158944
     56          1           0       11.430384   32.153675    7.233696
     57          7           0        9.658765   31.512112    9.520075
     58          6           0        9.045239   32.617901   10.281341
     59          6           0        9.768177   33.998231   10.293360
     60          8           0        9.148040   34.946872    9.731423
     61          6           0        8.744094   32.182088   11.725558
     62          6           0        7.751146   33.043970   12.546148
     63          6           0        6.820396   33.994612   11.782622
     64          7           0        5.987029   33.325023   10.771665
     65          6           0        5.804151   33.743018    9.506752
     66          7           0        6.619863   34.618709    8.932865
     67          7           0        4.763616   33.213506    8.820682
     68          8           0       10.848288   34.063160   10.920420
     69          1           0        8.954107   30.890816    9.135010
     70          1           0        8.103738   32.748428    9.759965
     71          1           0        9.707603   32.163701   12.251028
     72          1           0        8.361047   31.165820   11.655587
     73          1           0        7.134168   32.378833   13.167383
     74          1           0        8.308216   33.675826   13.242606
     75          1           0        6.155526   34.485946   12.503059
     76          1           0        7.404090   34.772052   11.293344
     77          1           0        5.597659   32.421021   11.019536
     78          1           0        6.345034   35.035653    8.053491
     79          1           0        7.635711   34.766146    9.247229
     80          1           0        3.959448   32.846779    9.308648
     81          1           0        4.674727   33.359014    7.825736
 ---------------------------------------------------------------------
 Rotational constants (GHZ):           0.0982183           0.0771546           0.0694275
 Standard basis: 6-31G(d) (6D, 7F)
   708 basis functions,  1332 primitive gaussians,   708 cartesian basis functions
   157 alpha electrons      157 beta electrons
       nuclear repulsion energy      5861.5270625399 Hartrees.
 NAtoms=   81 NActive=   81 NUniq=   81 SFac= 1.00D+00 NAtFMM=   60 NAOKFM=T Big=T
 Integral buffers will be    131072 words long.
 Raffenetti 2 integral format.
 Two-electron integral symmetry is turned off.
 Nuclear repulsion after empirical dispersion term =     5861.3865106746 Hartrees.
 One-electron integrals computed using PRISM.
 NBasis=   708 RedAO= T EigKep=  3.65D-04  NBF=   708
 NBsUse=   708 1.00D-06 EigRej= -1.00D+00 NBFU=   708
 Initial guess from the checkpoint file:  "conf-62.chk"
 B after Tr=     0.000000    0.000000    0.000000
         Rot=    1.000000    0.000000    0.000000    0.000000 Ang=   0.00 deg.
 Requested convergence on RMS density matrix=1.00D-08 within 128 cycles.
 Requested convergence on MAX density matrix=1.00D-06.
 Requested convergence on             energy=1.00D-06.
 No special actions if energy rises.
 SCF Done:  E(RB3LYP) =  -2054.00234301     A.U. after    3 cycles
            NFock=  3  Conv=0.63D-09     -V/T= 2.0092

 **********************************************************************

            Population analysis using the SCF Density.

 **********************************************************************

 Alpha  occ. eigenvalues --  -19.35552 -19.29825 -19.23278 -19.20571 -19.20162
 Alpha  occ. eigenvalues --  -19.18762 -19.18610 -19.17990 -14.59676 -14.50467
 Alpha  occ. eigenvalues --  -14.49981 -14.49915 -14.47768 -14.47250 -14.45170
 Alpha  occ. eigenvalues --  -14.44106 -10.47716 -10.46051 -10.41696 -10.40394
 Alpha  occ. eigenvalues --  -10.37721 -10.37622 -10.36414 -10.35229 -10.35055
 Alpha  occ. eigenvalues --  -10.34820 -10.34079 -10.33379 -10.33270 -10.32458
 Alpha  occ. eigenvalues --  -10.31292 -10.31050 -10.30533 -10.30270 -10.30111
 Alpha  occ. eigenvalues --  -10.30058 -10.29762 -10.29747 -10.29090 -10.28706
 Alpha  occ. eigenvalues --  -10.28282 -10.23654  -1.25532  -1.17723  -1.16074
 Alpha  occ. eigenvalues --   -1.14381  -1.14074  -1.12908  -1.12100  -1.11549
 Alpha  occ. eigenvalues --   -1.09247  -1.07132  -1.04008  -1.03872  -1.03225
 Alpha  occ. eigenvalues --   -1.01707  -1.00998  -1.00631  -0.95560  -0.94731
 Alpha  occ. eigenvalues --   -0.91740  -0.91004  -0.88376  -0.86759  -0.85148
 Alpha  occ. eigenvalues --   -0.84220  -0.83720  -0.82759  -0.79492  -0.79091
 Alpha  occ. eigenvalues --   -0.77986  -0.77545  -0.76684  -0.75998  -0.75049
 Alpha  occ. eigenvalues --   -0.72844  -0.72571  -0.71756  -0.71259  -0.70780
 Alpha  occ. eigenvalues --   -0.69992  -0.69578  -0.68390  -0.67492  -0.66761
 Alpha  occ. eigenvalues --   -0.66370  -0.66303  -0.65519  -0.64327  -0.63872
 Alpha  occ. eigenvalues --   -0.63037  -0.62539  -0.61681  -0.61376  -0.60394
 Alpha  occ. eigenvalues --   -0.60052  -0.59480  -0.58695  -0.58528  -0.57918
 Alpha  occ. eigenvalues --   -0.57782  -0.57273  -0.56801  -0.56663  -0.56440
 Alpha  occ. eigenvalues --   -0.55482  -0.55424  -0.54986  -0.54701  -0.53813
 Alpha  occ. eigenvalues --   -0.53562  -0.52870  -0.52801  -0.52645  -0.52426
 Alpha  occ. eigenvalues --   -0.51916  -0.51772  -0.51309  -0.50727  -0.50633
 Alpha  occ. eigenvalues --   -0.50366  -0.50079  -0.49964  -0.49824  -0.48844
 Alpha  occ. eigenvalues --   -0.48683  -0.48212  -0.47990  -0.47738  -0.47066
 Alpha  occ. eigenvalues --   -0.46797  -0.46565  -0.45536  -0.45292  -0.45071
 Alpha  occ. eigenvalues --   -0.44605  -0.44203  -0.43701  -0.43434  -0.42882
 Alpha  occ. eigenvalues --   -0.42188  -0.40900  -0.38995  -0.38521  -0.38322
 Alpha  occ. eigenvalues --   -0.37370  -0.36597  -0.35619  -0.34937  -0.34279
 Alpha  occ. eigenvalues --   -0.34004  -0.33719  -0.33626  -0.32392  -0.31918
 Alpha  occ. eigenvalues --   -0.31798  -0.31483
 Alpha virt. eigenvalues --   -0.15825  -0.12637  -0.12215  -0.10808  -0.10305
 Alpha virt. eigenvalues --   -0.09473  -0.08130  -0.07257  -0.06520  -0.06371
 Alpha virt. eigenvalues --   -0.05807  -0.04716  -0.04233  -0.03457  -0.02957
 Alpha virt. eigenvalues --   -0.01890  -0.01594  -0.01371  -0.01076  -0.00674
 Alpha virt. eigenvalues --    0.00159   0.00516   0.01187   0.01389   0.01687
 Alpha virt. eigenvalues --    0.01751   0.02058   0.02148   0.03233   0.03827
 Alpha virt. eigenvalues --    0.04344   0.04580   0.04730   0.05434   0.05738
 Alpha virt. eigenvalues --    0.06245   0.06302   0.06876   0.07144   0.07616
 Alpha virt. eigenvalues --    0.07908   0.08411   0.08433   0.08566   0.08795
 Alpha virt. eigenvalues --    0.09318   0.09551   0.09795   0.10971   0.11087
 Alpha virt. eigenvalues --    0.11361   0.11577   0.12047   0.12685   0.12947
 Alpha virt. eigenvalues --    0.13442   0.13759   0.14106   0.14427   0.14607
 Alpha virt. eigenvalues --    0.14761   0.15821   0.16113   0.16470   0.16965
 Alpha virt. eigenvalues --    0.17468   0.18062   0.18348   0.19127   0.19760
 Alpha virt. eigenvalues --    0.20196   0.20744   0.21174   0.21726   0.22179
 Alpha virt. eigenvalues --    0.23694   0.24051   0.24883   0.25711   0.26095
 Alpha virt. eigenvalues --    0.26819   0.27799   0.28644   0.29119   0.29830
 Alpha virt. eigenvalues --    0.31477   0.32399   0.32575   0.33802   0.34858
 Alpha virt. eigenvalues --    0.36126   0.36370   0.37744   0.38522   0.38898
 Alpha virt. eigenvalues --    0.39412   0.39551   0.40404   0.41212   0.41451
 Alpha virt. eigenvalues --    0.41937   0.42549   0.43079   0.43449   0.43705
 Alpha virt. eigenvalues --    0.44008   0.45012   0.45263   0.45621   0.46031
 Alpha virt. eigenvalues --    0.46203   0.47137   0.47421   0.47432   0.48020
 Alpha virt. eigenvalues --    0.48166   0.48619   0.49090   0.49265   0.49598
 Alpha virt. eigenvalues --    0.50672   0.50713   0.50874   0.51290   0.51776
 Alpha virt. eigenvalues --    0.52012   0.52420   0.52862   0.53434   0.53751
 Alpha virt. eigenvalues --    0.54103   0.54579   0.54887   0.55423   0.55624
 Alpha virt. eigenvalues --    0.56357   0.56622   0.56851   0.56972   0.57835
 Alpha virt. eigenvalues --    0.57945   0.58243   0.58954   0.59492   0.59842
 Alpha virt. eigenvalues --    0.60385   0.60576   0.61476   0.61987   0.62708
 Alpha virt. eigenvalues --    0.62814   0.63318   0.63630   0.64301   0.64956
 Alpha virt. eigenvalues --    0.65590   0.65882   0.66455   0.67039   0.67740
 Alpha virt. eigenvalues --    0.68361   0.69532   0.69762   0.69987   0.70471
 Alpha virt. eigenvalues --    0.70899   0.71487   0.72137   0.72426   0.72511
 Alpha virt. eigenvalues --    0.72937   0.73004   0.73298   0.73911   0.74211
 Alpha virt. eigenvalues --    0.74449   0.74733   0.74899   0.75110   0.75350
 Alpha virt. eigenvalues --    0.75535   0.76103   0.76427   0.76812   0.77158
 Alpha virt. eigenvalues --    0.77593   0.78020   0.78520   0.78614   0.79115
 Alpha virt. eigenvalues --    0.79631   0.80370   0.80581   0.81048   0.81404
 Alpha virt. eigenvalues --    0.81811   0.82009   0.82605   0.82994   0.83329
 Alpha virt. eigenvalues --    0.83473   0.83971   0.84214   0.84789   0.84853
 Alpha virt. eigenvalues --    0.86035   0.86380   0.86966   0.87225   0.87617
 Alpha virt. eigenvalues --    0.87857   0.88048   0.88578   0.89344   0.89981
 Alpha virt. eigenvalues --    0.90147   0.90400   0.91613   0.92338   0.93010
 Alpha virt. eigenvalues --    0.93820   0.94367   0.94983   0.95794   0.96290
 Alpha virt. eigenvalues --    0.96709   0.97131   0.97953   0.98405   0.99073
 Alpha virt. eigenvalues --    0.99312   1.01083   1.01486   1.02003   1.02866
 Alpha virt. eigenvalues --    1.03171   1.03571   1.03793   1.04153   1.04715
 Alpha virt. eigenvalues --    1.05279   1.05921   1.06936   1.07553   1.07630
 Alpha virt. eigenvalues --    1.08822   1.09389   1.09852   1.10056   1.11061
 Alpha virt. eigenvalues --    1.12048   1.12804   1.13245   1.13914   1.14191
 Alpha virt. eigenvalues --    1.15287   1.15483   1.15807   1.16589   1.17115
 Alpha virt. eigenvalues --    1.18331   1.19698   1.20549   1.21399   1.21526
 Alpha virt. eigenvalues --    1.22062   1.22896   1.23430   1.24341   1.25336
 Alpha virt. eigenvalues --    1.25879   1.26425   1.27889   1.28560   1.29238
 Alpha virt. eigenvalues --    1.29542   1.29606   1.30069   1.30571   1.31013
 Alpha virt. eigenvalues --    1.31970   1.32649   1.33046   1.33719   1.34795
 Alpha virt. eigenvalues --    1.35489   1.36190   1.36614   1.37773   1.38699
 Alpha virt. eigenvalues --    1.39266   1.40098   1.40353   1.40685   1.41295
 Alpha virt. eigenvalues --    1.42494   1.43539   1.44174   1.44355   1.45124
 Alpha virt. eigenvalues --    1.45554   1.46414   1.47551   1.48293   1.49091
 Alpha virt. eigenvalues --    1.50555   1.51487   1.52438   1.52864   1.53200
 Alpha virt. eigenvalues --    1.53647   1.54834   1.55235   1.56055   1.56761
 Alpha virt. eigenvalues --    1.57517   1.57996   1.58542   1.59500   1.59950
 Alpha virt. eigenvalues --    1.61512   1.61712   1.62196   1.62975   1.64261
 Alpha virt. eigenvalues --    1.64456   1.65165   1.65919   1.66261   1.67118
 Alpha virt. eigenvalues --    1.67624   1.67814   1.68111   1.69280   1.69885
 Alpha virt. eigenvalues --    1.70118   1.70788   1.71341   1.71676   1.72444
 Alpha virt. eigenvalues --    1.73011   1.73601   1.74185   1.74339   1.75292
 Alpha virt. eigenvalues --    1.75914   1.76439   1.77040   1.77227   1.77384
 Alpha virt. eigenvalues --    1.77776   1.77995   1.78896   1.78949   1.79413
 Alpha virt. eigenvalues --    1.80156   1.80278   1.80890   1.81615   1.81852
 Alpha virt. eigenvalues --    1.82437   1.82996   1.83271   1.84025   1.84351
 Alpha virt. eigenvalues --    1.85188   1.85368   1.85895   1.86598   1.87463
 Alpha virt. eigenvalues --    1.88119   1.88506   1.89447   1.89948   1.90447
 Alpha virt. eigenvalues --    1.91005   1.91716   1.92197   1.92891   1.92996
 Alpha virt. eigenvalues --    1.94069   1.94313   1.94429   1.95833   1.96147
 Alpha virt. eigenvalues --    1.96477   1.96929   1.97765   1.98369   1.98779
 Alpha virt. eigenvalues --    1.99932   2.00990   2.01294   2.02488   2.03195
 Alpha virt. eigenvalues --    2.03618   2.04594   2.05310   2.05904   2.07089
 Alpha virt. eigenvalues --    2.07671   2.08336   2.09991   2.10016   2.10311
 Alpha virt. eigenvalues --    2.11660   2.13068   2.13850   2.14212   2.14977
 Alpha virt. eigenvalues --    2.15865   2.16079   2.16197   2.16884   2.17375
 Alpha virt. eigenvalues --    2.18070   2.18299   2.18863   2.19345   2.19658
 Alpha virt. eigenvalues --    2.21161   2.22317   2.23307   2.23781   2.25491
 Alpha virt. eigenvalues --    2.26100   2.26502   2.26850   2.27814   2.28720
 Alpha virt. eigenvalues --    2.29466   2.29764   2.30667   2.31377   2.31878
 Alpha virt. eigenvalues --    2.32466   2.33714   2.34566   2.36740   2.36778
 Alpha virt. eigenvalues --    2.37584   2.38898   2.40777   2.40905   2.41647
 Alpha virt. eigenvalues --    2.43416   2.44043   2.44557   2.45265   2.45719
 Alpha virt. eigenvalues --    2.46397   2.46982   2.47186   2.48802   2.49020
 Alpha virt. eigenvalues --    2.50167   2.50806   2.51054   2.52037   2.52767
 Alpha virt. eigenvalues --    2.52993   2.53361   2.53889   2.54897   2.55550
 Alpha virt. eigenvalues --    2.57063   2.57551   2.58270   2.58875   2.59828
 Alpha virt. eigenvalues --    2.60573   2.61035   2.61124   2.62129   2.62550
 Alpha virt. eigenvalues --    2.63945   2.64977   2.66217   2.67693   2.68185
 Alpha virt. eigenvalues --    2.68641   2.70220   2.71770   2.72956   2.74214
 Alpha virt. eigenvalues --    2.76371   2.79600   2.82165   2.83688   2.86861
 Alpha virt. eigenvalues --    2.87518   2.88097   2.89149   2.89564   2.90105
 Alpha virt. eigenvalues --    2.90496   2.92361   2.93487   2.95425   2.97927
 Alpha virt. eigenvalues --    2.97984   2.99145   3.00119   3.02031   3.06153
 Alpha virt. eigenvalues --    3.07213   3.12282   3.14711   3.33377   3.67126
 Alpha virt. eigenvalues --    3.73298   3.79649   3.80290   3.81884   3.84006
 Alpha virt. eigenvalues --    3.86869   3.88253   3.94082   3.96889   3.98664
 Alpha virt. eigenvalues --    4.00463   4.01619   4.04137   4.05324   4.06473
 Alpha virt. eigenvalues --    4.07490   4.10922   4.12754   4.14170   4.16565
 Alpha virt. eigenvalues --    4.18807   4.21287   4.23453   4.24324   4.28636
 Alpha virt. eigenvalues --    4.28703   4.32063   4.32360   4.34872   4.38521
 Alpha virt. eigenvalues --    4.40647   4.42653   4.43045   4.46813   4.49519
 Alpha virt. eigenvalues --    4.53117   4.56506   4.64749   4.66451   4.70666
 Alpha virt. eigenvalues --    4.75078
          Condensed to atoms (all electrons):
 Mulliken charges:
               1
     1  N   -0.810666
     2  C   -0.122008
     3  C    0.580849
     4  O   -0.478485
     5  C   -0.322699
     6  C   -0.382439
     7  C    0.590862
     8  O   -0.426786
     9  O   -0.581108
    10  H    0.431896
    11  H    0.429345
    12  H    0.199398
    13  H    0.221598
    14  H    0.240687
    15  H    0.183858
    16  H    0.226034
    17  H    0.417976
    18  H    0.436525
    19  N   -0.563648
    20  C   -0.087517
    21  C    0.647319
    22  O   -0.512497
    23  C   -0.360645
    24  C    0.073509
    25  C   -0.075506
    26  C    0.039632
    27  C    0.261756
    28  C   -0.210179
    29  N   -0.700240
    30  C   -0.174220
    31  C   -0.165511
    32  C   -0.145573
    33  H    0.376603
    34  H    0.120079
    35  H    0.203358
    36  H    0.193914
    37  H    0.198089
    38  H    0.357173
    39  H    0.202803
    40  H    0.149170
    41  H    0.167939
    42  H    0.155508
    43  N   -0.593126
    44  C   -0.084214
    45  C    0.562281
    46  O   -0.524402
    47  C    0.138799
    48  C   -0.489510
    49  O   -0.640739
    50  H    0.428787
    51  H    0.353410
    52  H    0.194144
    53  H    0.141919
    54  H    0.176164
    55  H    0.169092
    56  H    0.145509
    57  N   -0.603643
    58  C   -0.033769
    59  C    0.637724
    60  O   -0.595415
    61  C   -0.323964
    62  C   -0.310246
    63  C   -0.165103
    64  N   -0.607883
    65  C    0.772055
    66  N   -0.777666
    67  N   -0.764132
    68  O   -0.568476
    69  H    0.326150
    70  H    0.129924
    71  H    0.168572
    72  H    0.109599
    73  H    0.128597
    74  H    0.197873
    75  H    0.180545
    76  H    0.218051
    77  H    0.368718
    78  H    0.357305
    79  H    0.446407
    80  H    0.372127
    81  H    0.372384
 Sum of Mulliken charges =   1.00000
 Mulliken charges with hydrogens summed into heavy atoms:
               1
     1  N    0.473181
     2  C    0.077390
     3  C    0.580849
     4  O   -0.478485
     5  C    0.139586
     6  C    0.027453
     7  C    0.590862
     8  O   -0.426786
     9  O   -0.149212
    19  N   -0.187045
    20  C    0.032562
    21  C    0.647319
    22  O   -0.512497
    23  C    0.036627
    24  C    0.073509
    25  C    0.122583
    26  C    0.039632
    27  C    0.261756
    28  C   -0.007376
    29  N   -0.343067
    30  C   -0.025050
    31  C    0.002428
    32  C    0.009935
    43  N   -0.239717
    44  C    0.109929
    45  C    0.562281
    46  O   -0.524402
    47  C    0.280719
    48  C    0.001255
    49  O   -0.211952
    57  N   -0.277493
    58  C    0.096155
    59  C    0.637724
    60  O   -0.595415
    61  C   -0.045793
    62  C    0.016224
    63  C    0.233492
    64  N   -0.239166
    65  C    0.772055
    66  N    0.026046
    67  N   -0.019621
    68  O   -0.568476
 Electronic spatial extent (au):  <R**2>=        1396445.1020
 Charge=              1.0000 electrons
 Dipole moment (field-independent basis, Debye):
    X=             28.3185    Y=            148.4827    Z=             61.3973  Tot=            163.1523
 Quadrupole moment (field-independent basis, Debye-Ang):
   XX=            -92.3482   YY=           4349.6557   ZZ=            602.7584
   XY=            858.5998   XZ=            409.9178   YZ=           1882.1960
 Traceless Quadrupole moment (field-independent basis, Debye-Ang):
   XX=          -1712.3702   YY=           2729.6337   ZZ=          -1017.2636
   XY=            858.5998   XZ=            409.9178   YZ=           1882.1960
 Octapole moment (field-independent basis, Debye-Ang**2):
  XXX=          -6770.2514  YYY=         119209.6960  ZZZ=           3532.7492  XYY=          23438.4716
  XXY=          -3221.5555  XXZ=           -247.4923  XZZ=           3842.0207  YZZ=          18211.3115
  YYZ=          54800.7934  XYZ=          12420.2609
 Hexadecapole moment (field-independent basis, Debye-Ang**3):
 XXXX=        -156814.7853 YYYY=        2952147.9457 ZZZZ=         -33182.7040 XXXY=        -215052.4140
 XXXZ=         -72092.9818 YYYX=         545600.3870 YYYZ=        1496333.6523 ZZZX=          10737.9573
 ZZZY=         101190.4150 XXYY=        -140811.4520 XXZZ=         -15005.3918 YYZZ=         512601.9082
 XXYZ=         -11759.6207 YYXZ=         345189.0173 ZZXY=         114518.4536
 N-N= 5.861386510675D+03 E-N=-1.647757852926D+04  KE= 2.035209816096D+03
 Unable to Open any file for archive entry.
 1\1\GINC-LAC-308\SP\RB3LYP\6-31G(d)\C26H39N8O8(1+)\KENGMITH\27-May-202
 2\0\\# B3LYP/6-31G* empiricaldispersion=gd3 guess=read geom=check nosy
 mm integral(ultrafinegrid)\\Candidate Structure: Conf:62 Charge calc i
 n gas phase\\1,1\N,0,9.1403453762,29.8415667642,13.9289942368\C,0,9.39
 49512893,28.4819759235,13.2918412318\C,0,10.8279768736,27.9425266294,1
 3.5761406064\O,0,10.8901346753,26.9229349628,14.251393329\C,0,9.031644
 646,28.4182641954,11.7957933139\C,0,7.5362745368,28.1771974999,11.4499
 013494\C,0,6.6295608264,29.3255313619,11.8439076597\O,0,6.2711101207,3
 0.2168397356,11.1153910335\O,0,6.3113655424,29.3983639245,13.185989917
 9\H,0,6.3604460039,28.5153173107,13.594247694\H,0,9.6788769903,30.6004
 125628,13.49512345\H,0,8.7676402466,27.7951556251,13.8643737909\H,0,9.
 411576424,29.2812572171,11.24629366\H,0,9.5827379424,27.5669004775,11.
 3849973477\H,0,7.1983256193,27.244814894,11.9209054547\H,0,7.453865480
 5,28.0527599934,10.3680529851\H,0,8.1421251946,30.0869237765,13.866163
 5805\H,0,9.4243974504,29.8491951974,14.926290368\N,0,11.9009658701,28.
 4988534403,12.9684388507\C,0,12.1418101374,29.8177102836,12.4065512166
 \C,0,13.1433528113,29.6310907661,11.2478793865\O,0,13.9379721196,28.69
 99924503,11.3070370689\C,0,12.8204296274,30.7621131754,13.4477790197\C
 ,0,11.9455405286,31.0473083259,14.625616518\C,0,11.6533336942,30.19837
 03135,15.6623268707\C,0,11.1491427012,32.2430380127,14.8243239071\C,0,
 10.3772797282,32.0447764278,15.9984676498\C,0,11.0554822912,33.4664610
 765,14.134317135\N,0,10.6361448689,30.7481501592,16.4544988276\C,0,9.5
 319493252,33.0309233303,16.5150344475\C,0,10.2289317219,34.4555204534,
 14.6546617763\C,0,9.4807801623,34.2427642534,15.8323944963\H,0,12.7502
 482205,27.9365016425,13.0155770723\H,0,11.2055695277,30.2529598386,12.
 0549652037\H,0,13.095995382,31.6933288791,12.9416458887\H,0,13.7555141
 782,30.2788396282,13.7506096439\H,0,12.0445179074,29.2156308227,15.887
 02221\H,0,10.4990181953,30.4753958812,17.4201223781\H,0,11.5997019305,
 33.6447185638,13.2124641844\H,0,8.9609807145,32.8704901893,17.42520081
 98\H,0,10.1612324993,35.4096840545,14.1407845414\H,0,8.8545214296,35.0
 419713455,16.2176564887\N,0,13.1777228603,30.597254073,10.3006993543\C
 ,0,12.1316053178,31.5666208077,9.9873832943\C,0,10.8578985163,30.83524
 05796,9.5510737511\O,0,10.8792948738,29.6528786049,9.2109554311\C,0,12
 .7223585938,32.5985222435,8.9399726414\C,0,11.7835518611,33.0192355531
 ,7.805296693\O,0,13.2747329593,33.699126299,9.6203315641\H,0,12.524957
 5999,34.1763190346,10.0336986456\H,0,13.8444540499,30.3918329602,9.564
 6421762\H,0,11.8931986223,32.1684570001,10.8657809842\H,0,13.575157877
 4,32.0930917097,8.4693064719\H,0,12.3497554129,33.6716524996,7.1344649
 849\H,0,10.9160313314,33.5801765518,8.1589443864\H,0,11.430383897,32.1
 536746581,7.2336959224\N,0,9.658765128,31.5121120374,9.5200747502\C,0,
 9.0452394496,32.6179011207,10.2813405945\C,0,9.7681771629,33.998231108
 1,10.2933603452\O,0,9.1480404312,34.9468720188,9.7314225763\C,0,8.7440
 939497,32.1820879436,11.7255584245\C,0,7.7511460052,33.0439701651,12.5
 461480545\C,0,6.8203962712,33.994612374,11.7826220384\N,0,5.9870294557
 ,33.3250226908,10.7716649068\C,0,5.8041512242,33.7430183232,9.50675155
 51\N,0,6.6198632353,34.6187085875,8.9328646573\N,0,4.7636158287,33.213
 5060025,8.8206820448\O,0,10.8482879203,34.0631600581,10.9204197695\H,0
 ,8.954106982,30.8908164393,9.1350100773\H,0,8.1037380032,32.748428317,
 9.7599647572\H,0,9.707602811,32.1637013322,12.2510280364\H,0,8.3610470
 311,31.1658199911,11.6555867368\H,0,7.1341679092,32.3788333589,13.1673
 832634\H,0,8.3082156695,33.6758258925,13.242606239\H,0,6.1555255331,34
 .4859458405,12.5030585249\H,0,7.4040896747,34.772051594,11.2933440009\
 H,0,5.5976586049,32.4210205326,11.0195358949\H,0,6.3450340664,35.03565
 33961,8.0534905923\H,0,7.6357114074,34.7661460321,9.2472285898\H,0,3.9
 594475381,32.8467787815,9.3086475052\H,0,4.6747269533,33.3590142824,7.
 8257361829\\Version=ES64L-G16RevC.01\HF=-2054.002343\RMSD=6.283e-10\Di
 pole=-7.4425344,-1.0179348,1.600976\Quadrupole=-1273.1052522,2029.4157
 713,-756.310519,638.3478786,304.7638461,1399.3665886\PG=C01 [X(C26H39N
 8O8)]\\@
 The archive entry for this job was punched.


 When I told the people of Northern Ireland that I was
 an atheist, a woman in the audience stood up and said,
 "Yes, but is it the God of the Catholics or the God
 of the Protestants in whom you don't believe?"
                               -- Quentin Crisp
 Job cpu time:       0 days  0 hours  7 minutes 23.2 seconds.
 Elapsed time:       0 days  0 hours  1 minutes 51.8 seconds.
 File lengths (MBytes):  RWF=    376 Int=      0 D2E=      0 Chk=     56 Scr=     16
 Normal termination of Gaussian 16 at Fri May 27 05:11:56 2022.
