 Entering Gaussian System, Link 0=/opt/software/Gaussian/g16-AVX2-C.01/g16/g16
 Input=charge-conf-669.com
 Output=charge-conf-669.log
 Initial command:
 /opt/software/Gaussian/g16-AVX2-C.01/g16/l1.exe "/mnt/gs18/scratch/users/kengmith/Gau-25016.inp" -scrdir="/mnt/gs18/scratch/users/kengmith/"
 Entering Link 1 = /opt/software/Gaussian/g16-AVX2-C.01/g16/l1.exe PID=     25027.
  
 Copyright (c) 1988-2019, Gaussian, Inc.  All Rights Reserved.
  
 This is part of the Gaussian(R) 16 program.  It is based on
 the Gaussian(R) 09 system (copyright 2009, Gaussian, Inc.),
 the Gaussian(R) 03 system (copyright 2003, Gaussian, Inc.),
 the Gaussian(R) 98 system (copyright 1998, Gaussian, Inc.),
 the Gaussian(R) 94 system (copyright 1995, Gaussian, Inc.),
 the Gaussian 92(TM) system (copyright 1992, Gaussian, Inc.),
 the Gaussian 90(TM) system (copyright 1990, Gaussian, Inc.),
 the Gaussian 88(TM) system (copyright 1988, Gaussian, Inc.),
 the Gaussian 86(TM) system (copyright 1986, Carnegie Mellon
 University), and the Gaussian 82(TM) system (copyright 1983,
 Carnegie Mellon University). Gaussian is a federally registered
 trademark of Gaussian, Inc.
  
 This software contains proprietary and confidential information,
 including trade secrets, belonging to Gaussian, Inc.
  
 This software is provided under written license and may be
 used, copied, transmitted, or stored only in accord with that
 written license.
  
 The following legend is applicable only to US Government
 contracts under FAR:
  
                    RESTRICTED RIGHTS LEGEND
  
 Use, reproduction and disclosure by the US Government is
 subject to restrictions as set forth in subparagraphs (a)
 and (c) of the Commercial Computer Software - Restricted
 Rights clause in FAR 52.227-19.
  
 Gaussian, Inc.
 340 Quinnipiac St., Bldg. 40, Wallingford CT 06492
  
  
 ---------------------------------------------------------------
 Warning -- This program may not be used in any manner that
 competes with the business of Gaussian, Inc. or will provide
 assistance to any competitor of Gaussian, Inc.  The licensee
 of this program is prohibited from giving any competitor of
 Gaussian, Inc. access to this program.  By using this program,
 the user acknowledges that Gaussian, Inc. is engaged in the
 business of creating and licensing software in the field of
 computational chemistry and represents and warrants to the
 licensee that it is not a competitor of Gaussian, Inc. and that
 it will not use this program in any manner prohibited above.
 ---------------------------------------------------------------
  

 Cite this work as:
 Gaussian 16, Revision C.01,
 M. J. Frisch, G. W. Trucks, H. B. Schlegel, G. E. Scuseria, 
 M. A. Robb, J. R. Cheeseman, G. Scalmani, V. Barone, 
 G. A. Petersson, H. Nakatsuji, X. Li, M. Caricato, A. V. Marenich, 
 J. Bloino, B. G. Janesko, R. Gomperts, B. Mennucci, H. P. Hratchian, 
 J. V. Ortiz, A. F. Izmaylov, J. L. Sonnenberg, D. Williams-Young, 
 F. Ding, F. Lipparini, F. Egidi, J. Goings, B. Peng, A. Petrone, 
 T. Henderson, D. Ranasinghe, V. G. Zakrzewski, J. Gao, N. Rega, 
 G. Zheng, W. Liang, M. Hada, M. Ehara, K. Toyota, R. Fukuda, 
 J. Hasegawa, M. Ishida, T. Nakajima, Y. Honda, O. Kitao, H. Nakai, 
 T. Vreven, K. Throssell, J. A. Montgomery, Jr., J. E. Peralta, 
 F. Ogliaro, M. J. Bearpark, J. J. Heyd, E. N. Brothers, K. N. Kudin, 
 V. N. Staroverov, T. A. Keith, R. Kobayashi, J. Normand, 
 K. Raghavachari, A. P. Rendell, J. C. Burant, S. S. Iyengar, 
 J. Tomasi, M. Cossi, J. M. Millam, M. Klene, C. Adamo, R. Cammi, 
 J. W. Ochterski, R. L. Martin, K. Morokuma, O. Farkas, 
 J. B. Foresman, and D. J. Fox, Gaussian, Inc., Wallingford CT, 2019.
 
 ******************************************
 Gaussian 16:  ES64L-G16RevC.01  3-Jul-2019
                27-May-2022 
 ******************************************
 %mem=8gb
 %nproc=4
 Will use up to    4 processors via shared memory.
 %chk=conf-669.chk
 ----------------------------------------------------------------------
 # B3LYP/6-31G* empiricaldispersion=gd3 guess=read geom=check nosymm in
 tegral(ultrafinegrid)
 ----------------------------------------------------------------------
 1/29=2,38=1,172=1/1;
 2/12=2,15=1,40=1/2;
 3/5=1,6=6,7=1,11=2,14=-4,25=1,30=1,74=-5,75=-5,116=-2,124=31/1,2,3;
 4/5=1/1;
 5/5=2,38=6/2;
 6/7=2,8=2,9=2,10=2,28=1/1;
 99/5=1,9=1/99;
 ------------------------------------------------------
 Candidate Structure: Conf:669 Charge calc in gas phase
 ------------------------------------------------------
 Structure from the checkpoint file:  "conf-669.chk"
 Charge =  1 Multiplicity = 1
 Redundant internal coordinates found in file.  (old form).
 N,0,8.5655660678,32.8237566994,13.7223919188
 C,0,8.2002152481,34.1083797379,12.9918354086
 C,0,6.7943019836,34.05455792,12.3268486553
 O,0,5.9776976944,34.8662425991,12.7438858657
 C,0,9.2805536913,34.5952493516,12.008134157
 C,0,10.4828869481,35.370485196,12.6151724751
 C,0,11.347170421,34.5325335839,13.5345696038
 O,0,12.3496409871,33.9451936282,13.2130010425
 O,0,10.8482548166,34.3407731031,14.8081810914
 H,0,10.2497437592,35.0695200263,15.052190047
 H,0,8.727221246,32.0304475562,13.0919573353
 H,0,8.0568719642,34.839823858,13.7902777249
 H,0,9.6322097508,33.7960612822,11.3517450433
 H,0,8.776857659,35.296575676,11.3354757093
 H,0,10.1138352948,36.2582239745,13.1454231761
 H,0,11.1155752489,35.7113792542,11.792906176
 H,0,9.4188661181,32.9593000397,14.2826874859
 H,0,7.8005065888,32.519002455,14.3526385487
 N,0,6.5691916143,33.2654408491,11.2505717553
 C,0,7.2089289406,32.0604148448,10.7482687392
 C,0,7.0501237428,32.0870858244,9.2138673499
 O,0,6.0900552731,32.6788703131,8.7344653207
 C,0,6.4831406667,30.7784116299,11.2649140228
 C,0,6.5716901631,30.6171914911,12.7485863269
 C,0,5.884393032,31.3286286639,13.698514972
 C,0,7.4935309422,29.750126737,13.4572806183
 C,0,7.3265321621,30.0014582994,14.843630126
 C,0,8.408335596,28.7656022597,13.0392728832
 N,0,6.3937925515,31.0361596347,14.9711195266
 C,0,8.0263715485,29.2915163457,15.823542987
 C,0,9.0957831643,28.0473596802,14.010793795
 C,0,8.9026217619,28.3024599216,15.3855167331
 H,0,5.7126792295,33.4871160729,10.7434845265
 H,0,8.2613482697,32.044093517,11.0316995912
 H,0,6.9198224431,29.9083861633,10.7637805139
 H,0,5.44208796,30.8472560324,10.9313161777
 H,0,5.1014981396,32.0656567568,13.583792415
 H,0,5.8501989089,31.1758907261,15.8140398081
 H,0,8.5982807547,28.5684991658,11.9894322882
 H,0,7.8739595008,29.4831740687,16.8819375997
 H,0,9.7973989862,27.2797138596,13.6987587552
 H,0,9.4466628433,27.7141218005,16.1185170996
 N,0,7.9030216264,31.3297625692,8.4818131042
 C,0,9.2085607876,30.8088400986,8.8734110426
 C,0,10.1423600676,31.9352802631,9.3145489463
 O,0,9.8693211494,33.1135700795,9.0743867614
 C,0,9.7938882887,30.0282649383,7.6330873241
 C,0,10.2091513178,30.949902748,6.4889849177
 O,0,10.9211322633,29.2667194459,7.9661001334
 H,0,10.7078726613,28.7165737036,8.7463547592
 H,0,7.7362710263,31.434635089,7.4869718624
 H,0,9.1160025651,30.0755170857,9.679475032
 H,0,8.9605155515,29.3834049484,7.3025885872
 H,0,11.05818501,31.5670641205,6.797864976
 H,0,9.4025770433,31.6124085298,6.1579353151
 H,0,10.5231663446,30.3378281398,5.6395005597
 N,0,11.3561263043,31.6293777545,9.8935852999
 C,0,11.729168614,30.7575967291,11.030867402
 C,0,11.6301674397,29.2131105411,10.8847416987
 O,0,12.6860654677,28.574938805,11.1640372933
 C,0,10.9460178548,31.1963621901,12.2871999772
 C,0,11.4183551508,30.7160275855,13.6829916108
 C,0,12.8668672372,30.2380377671,13.8352090198
 N,0,13.8650426384,31.2184373604,13.3852316115
 C,0,14.889345231,30.9618387048,12.5533604748
 N,0,14.9240937877,29.8656186762,11.8069409246
 N,0,15.8790223981,31.8846775269,12.4804584387
 O,0,10.5080649882,28.7256348599,10.6155957121
 H,0,11.8729657154,32.50295893,9.9584985472
 H,0,12.7763783173,31.0050226676,11.1676131657
 H,0,9.917606036,30.842852838,12.1278132208
 H,0,10.9452712868,32.2860630936,12.2666270788
 H,0,11.2512959498,31.5253610581,14.4082931518
 H,0,10.7990150178,29.8778261314,14.0116513646
 H,0,13.0535700699,30.0197793959,14.8935418014
 H,0,13.0049574201,29.3150136095,13.2766380389
 H,0,13.7092566046,32.186256698,13.6487580455
 H,0,15.7789117902,29.6341208958,11.3189129907
 H,0,14.0363368066,29.3227773374,11.5344990396
 H,0,16.0601917775,32.5034113776,13.2574658743
 H,0,16.5950971308,31.8136720279,11.7725008102
 Recover connectivity data from disk.
                           ----------------------------
                           !    Current Parameters    !
                           ! (Angstroms and Degrees)  !
 --------------------------                            --------------------------
 ! Name  Definition              Value                                          !
 --------------------------------------------------------------------------------
 ! R1    R(1,2)                  1.5223                                         !
 ! R2    R(1,11)                 1.0261                                         !
 ! R3    R(1,17)                 1.0298                                         !
 ! R4    R(1,18)                 1.037                                          !
 ! R5    R(2,3)                  1.5562                                         !
 ! R6    R(2,5)                  1.5401                                         !
 ! R7    R(2,12)                 1.0923                                         !
 ! R8    R(3,4)                  1.2246                                         !
 ! R9    R(3,19)                 1.3534                                         !
 ! R10   R(5,6)                  1.5541                                         !
 ! R11   R(5,13)                 1.0923                                         !
 ! R12   R(5,14)                 1.0945                                         !
 ! R13   R(6,7)                  1.5147                                         !
 ! R14   R(6,15)                 1.0979                                         !
 ! R15   R(6,16)                 1.0921                                         !
 ! R16   R(7,8)                  1.2055                                         !
 ! R17   R(7,9)                  1.3812                                         !
 ! R18   R(9,10)                 0.9741                                         !
 ! R19   R(19,20)                1.4538                                         !
 ! R20   R(19,33)                1.0198                                         !
 ! R21   R(20,21)                1.5428                                         !
 ! R22   R(20,23)                1.5612                                         !
 ! R23   R(20,34)                1.09                                           !
 ! R24   R(21,22)                1.2255                                         !
 ! R25   R(21,43)                1.3553                                         !
 ! R26   R(23,24)                1.495                                          !
 ! R27   R(23,35)                1.0949                                         !
 ! R28   R(23,36)                1.0954                                         !
 ! R29   R(24,25)                1.3715                                         !
 ! R30   R(24,26)                1.4505                                         !
 ! R31   R(25,29)                1.4016                                         !
 ! R32   R(25,37)                1.0813                                         !
 ! R33   R(26,27)                1.4188                                         !
 ! R34   R(26,28)                1.4074                                         !
 ! R35   R(27,29)                1.3989                                         !
 ! R36   R(27,30)                1.3979                                         !
 ! R37   R(28,31)                1.3901                                         !
 ! R38   R(28,39)                1.0849                                         !
 ! R39   R(29,38)                1.0127                                         !
 ! R40   R(30,32)                1.3921                                         !
 ! R41   R(30,40)                1.0864                                         !
 ! R42   R(31,32)                1.4115                                         !
 ! R43   R(31,41)                1.0858                                         !
 ! R44   R(32,42)                1.086                                          !
 ! R45   R(43,44)                1.4592                                         !
 ! R46   R(43,51)                1.0142                                         !
 ! R47   R(44,45)                1.5282                                         !
 ! R48   R(44,47)                1.5781                                         !
 ! R49   R(44,52)                1.0936                                         !
 ! R50   R(45,46)                1.2331                                         !
 ! R51   R(45,57)                1.3792                                         !
 ! R52   R(47,48)                1.5267                                         !
 ! R53   R(47,49)                1.4005                                         !
 ! R54   R(47,53)                1.1043                                         !
 ! R55   R(48,54)                1.0941                                         !
 ! R56   R(48,55)                1.095                                          !
 ! R57   R(48,56)                1.0931                                         !
 ! R58   R(49,50)                0.9782                                         !
 ! R59   R(57,58)                1.4807                                         !
 ! R60   R(57,69)                1.0171                                         !
 ! R61   R(58,59)                1.5545                                         !
 ! R62   R(58,61)                1.5441                                         !
 ! R63   R(58,70)                1.0847                                         !
 ! R64   R(59,60)                1.265                                          !
 ! R65   R(59,68)                1.2527                                         !
 ! R66   R(61,62)                1.5499                                         !
 ! R67   R(61,71)                1.0991                                         !
 ! R68   R(61,72)                1.0899                                         !
 ! R69   R(62,63)                1.5329                                         !
 ! R70   R(62,73)                1.0995                                         !
 ! R71   R(62,74)                1.0928                                         !
 ! R72   R(63,64)                1.4697                                         !
 ! R73   R(63,75)                1.0966                                         !
 ! R74   R(63,76)                1.0877                                         !
 ! R75   R(64,65)                1.3443                                         !
 ! R76   R(64,77)                1.0151                                         !
 ! R77   R(65,66)                1.3267                                         !
 ! R78   R(65,67)                1.3551                                         !
 ! R79   R(66,78)                1.0112                                         !
 ! R80   R(66,79)                1.0756                                         !
 ! R81   R(67,80)                1.0097                                         !
 ! R82   R(67,81)                1.0095                                         !
 ! A1    A(2,1,11)             113.2889                                         !
 ! A2    A(2,1,17)             110.4205                                         !
 ! A3    A(2,1,18)             111.2594                                         !
 ! A4    A(11,1,17)            107.7886                                         !
 ! A5    A(11,1,18)            105.2137                                         !
 ! A6    A(17,1,18)            108.6224                                         !
 ! A7    A(1,2,3)              113.123                                          !
 ! A8    A(1,2,5)              113.8877                                         !
 ! A9    A(1,2,12)             104.2284                                         !
 ! A10   A(3,2,5)              111.8227                                         !
 ! A11   A(3,2,12)             102.5309                                         !
 ! A12   A(5,2,12)             110.3203                                         !
 ! A13   A(2,3,4)              115.7219                                         !
 ! A14   A(2,3,19)             120.6803                                         !
 ! A15   A(4,3,19)             123.1182                                         !
 ! A16   A(2,5,6)              116.8028                                         !
 ! A17   A(2,5,13)             112.2316                                         !
 ! A18   A(2,5,14)             105.8002                                         !
 ! A19   A(6,5,13)             110.5255                                         !
 ! A20   A(6,5,14)             106.0487                                         !
 ! A21   A(13,5,14)            104.3384                                         !
 ! A22   A(5,6,7)              113.7392                                         !
 ! A23   A(5,6,15)             109.3864                                         !
 ! A24   A(5,6,16)             108.0491                                         !
 ! A25   A(7,6,15)             110.2396                                         !
 ! A26   A(7,6,16)             107.4052                                         !
 ! A27   A(15,6,16)            107.8172                                         !
 ! A28   A(6,7,8)              125.5973                                         !
 ! A29   A(6,7,9)              115.4916                                         !
 ! A30   A(8,7,9)              118.5998                                         !
 ! A31   A(7,9,10)             110.4299                                         !
 ! A32   A(3,19,20)            133.2221                                         !
 ! A33   A(3,19,33)            114.1041                                         !
 ! A34   A(20,19,33)           112.2077                                         !
 ! A35   A(19,20,21)           106.4986                                         !
 ! A36   A(19,20,23)           111.2067                                         !
 ! A37   A(19,20,34)           110.3295                                         !
 ! A38   A(21,20,23)           107.1858                                         !
 ! A39   A(21,20,34)           110.9919                                         !
 ! A40   A(23,20,34)           110.5187                                         !
 ! A41   A(20,21,22)           118.5582                                         !
 ! A42   A(20,21,43)           117.5648                                         !
 ! A43   A(22,21,43)           123.4734                                         !
 ! A44   A(20,23,24)           112.9197                                         !
 ! A45   A(20,23,35)           108.3998                                         !
 ! A46   A(20,23,36)           106.8251                                         !
 ! A47   A(24,23,35)           110.1765                                         !
 ! A48   A(24,23,36)           111.4267                                         !
 ! A49   A(35,23,36)           106.8346                                         !
 ! A50   A(23,24,25)           126.996                                          !
 ! A51   A(23,24,26)           125.944                                          !
 ! A52   A(25,24,26)           106.8685                                         !
 ! A53   A(24,25,29)           109.786                                          !
 ! A54   A(24,25,37)           130.0098                                         !
 ! A55   A(29,25,37)           120.1112                                         !
 ! A56   A(24,26,27)           107.2608                                         !
 ! A57   A(24,26,28)           133.3253                                         !
 ! A58   A(27,26,28)           119.3815                                         !
 ! A59   A(26,27,29)           107.3711                                         !
 ! A60   A(26,27,30)           122.4168                                         !
 ! A61   A(29,27,30)           130.2101                                         !
 ! A62   A(26,28,31)           118.3791                                         !
 ! A63   A(26,28,39)           121.8884                                         !
 ! A64   A(31,28,39)           119.725                                          !
 ! A65   A(25,29,27)           108.2959                                         !
 ! A66   A(25,29,38)           122.1315                                         !
 ! A67   A(27,29,38)           122.4004                                         !
 ! A68   A(27,30,32)           117.0905                                         !
 ! A69   A(27,30,40)           121.5422                                         !
 ! A70   A(32,30,40)           121.3464                                         !
 ! A71   A(28,31,32)           121.3081                                         !
 ! A72   A(28,31,41)           118.9481                                         !
 ! A73   A(32,31,41)           119.7431                                         !
 ! A74   A(30,32,31)           121.4001                                         !
 ! A75   A(30,32,42)           119.1994                                         !
 ! A76   A(31,32,42)           119.4004                                         !
 ! A77   A(21,43,44)           128.1393                                         !
 ! A78   A(21,43,51)           111.629                                          !
 ! A79   A(44,43,51)           116.57                                           !
 ! A80   A(43,44,45)           111.1637                                         !
 ! A81   A(43,44,47)           107.3085                                         !
 ! A82   A(43,44,52)           111.1898                                         !
 ! A83   A(45,44,47)           111.3973                                         !
 ! A84   A(45,44,52)           109.4632                                         !
 ! A85   A(47,44,52)           106.2015                                         !
 ! A86   A(44,45,46)           120.8506                                         !
 ! A87   A(44,45,57)           119.7003                                         !
 ! A88   A(46,45,57)           119.247                                          !
 ! A89   A(44,47,48)           113.0348                                         !
 ! A90   A(44,47,49)           112.3714                                         !
 ! A91   A(44,47,53)           104.1317                                         !
 ! A92   A(48,47,49)           106.7091                                         !
 ! A93   A(48,47,53)           109.4809                                         !
 ! A94   A(49,47,53)           111.1628                                         !
 ! A95   A(47,48,54)           109.8781                                         !
 ! A96   A(47,48,55)           113.0443                                         !
 ! A97   A(47,48,56)           108.8136                                         !
 ! A98   A(54,48,55)           108.4004                                         !
 ! A99   A(54,48,56)           108.1986                                         !
 ! A100  A(55,48,56)           108.3867                                         !
 ! A101  A(47,49,50)           108.6621                                         !
 ! A102  A(45,57,58)           132.4362                                         !
 ! A103  A(45,57,69)           106.4693                                         !
 ! A104  A(58,57,69)           109.1861                                         !
 ! A105  A(57,58,59)           119.782                                          !
 ! A106  A(57,58,61)           109.2593                                         !
 ! A107  A(57,58,70)           101.8736                                         !
 ! A108  A(59,58,61)           109.0566                                         !
 ! A109  A(59,58,70)           107.4555                                         !
 ! A110  A(61,58,70)           108.8004                                         !
 ! A111  A(58,59,60)           115.2972                                         !
 ! A112  A(58,59,68)           117.6375                                         !
 ! A113  A(60,59,68)           126.7857                                         !
 ! A114  A(58,61,62)           119.3484                                         !
 ! A115  A(58,61,71)           105.3782                                         !
 ! A116  A(58,61,72)           105.6105                                         !
 ! A117  A(62,61,71)           108.4261                                         !
 ! A118  A(62,61,72)           109.0913                                         !
 ! A119  A(71,61,72)           108.5542                                         !
 ! A120  A(61,62,63)           118.2974                                         !
 ! A121  A(61,62,73)           108.6412                                         !
 ! A122  A(61,62,74)           109.6244                                         !
 ! A123  A(63,62,73)           107.9138                                         !
 ! A124  A(63,62,74)           105.4566                                         !
 ! A125  A(73,62,74)           106.2653                                         !
 ! A126  A(62,63,64)           113.7888                                         !
 ! A127  A(62,63,75)           108.5887                                         !
 ! A128  A(62,63,76)           109.4867                                         !
 ! A129  A(64,63,75)           108.2171                                         !
 ! A130  A(64,63,76)           108.8223                                         !
 ! A131  A(75,63,76)           107.7643                                         !
 ! A132  A(63,64,65)           125.4257                                         !
 ! A133  A(63,64,77)           116.8912                                         !
 ! A134  A(65,64,77)           117.3609                                         !
 ! A135  A(64,65,66)           121.7258                                         !
 ! A136  A(64,65,67)           117.3732                                         !
 ! A137  A(66,65,67)           120.8841                                         !
 ! A138  A(65,66,78)           118.8722                                         !
 ! A139  A(65,66,79)           122.5401                                         !
 ! A140  A(78,66,79)           117.3822                                         !
 ! A141  A(65,67,80)           120.4622                                         !
 ! A142  A(65,67,81)           120.5231                                         !
 ! A143  A(80,67,81)           117.0999                                         !
 ! D1    D(11,1,2,3)            69.0371                                         !
 ! D2    D(11,1,2,5)           -60.1011                                         !
 ! D3    D(11,1,2,12)          179.6259                                         !
 ! D4    D(17,1,2,3)          -169.9546                                         !
 ! D5    D(17,1,2,5)            60.9073                                         !
 ! D6    D(17,1,2,12)          -59.3657                                         !
 ! D7    D(18,1,2,3)           -49.259                                          !
 ! D8    D(18,1,2,5)          -178.3972                                         !
 ! D9    D(18,1,2,12)           61.3298                                         !
 ! D10   D(1,2,3,4)            117.7288                                         !
 ! D11   D(1,2,3,19)           -69.9744                                         !
 ! D12   D(5,2,3,4)           -112.0832                                         !
 ! D13   D(5,2,3,19)            60.2136                                         !
 ! D14   D(12,2,3,4)             6.0941                                         !
 ! D15   D(12,2,3,19)          178.3909                                         !
 ! D16   D(1,2,5,6)            -80.4943                                         !
 ! D17   D(1,2,5,13)            48.6198                                         !
 ! D18   D(1,2,5,14)           161.805                                          !
 ! D19   D(3,2,5,6)            149.7142                                         !
 ! D20   D(3,2,5,13)           -81.1716                                         !
 ! D21   D(3,2,5,14)            32.0136                                         !
 ! D22   D(12,2,5,6)            36.2916                                         !
 ! D23   D(12,2,5,13)          165.4058                                         !
 ! D24   D(12,2,5,14)          -81.409                                          !
 ! D25   D(2,3,19,20)           24.4139                                         !
 ! D26   D(2,3,19,33)         -164.2088                                         !
 ! D27   D(4,3,19,20)         -163.8761                                         !
 ! D28   D(4,3,19,33)            7.5012                                         !
 ! D29   D(2,5,6,7)             65.1118                                         !
 ! D30   D(2,5,6,15)           -58.6262                                         !
 ! D31   D(2,5,6,16)          -175.7445                                         !
 ! D32   D(13,5,6,7)           -64.812                                          !
 ! D33   D(13,5,6,15)          171.45                                           !
 ! D34   D(13,5,6,16)           54.3316                                         !
 ! D35   D(14,5,6,7)          -177.3229                                         !
 ! D36   D(14,5,6,15)           58.9391                                         !
 ! D37   D(14,5,6,16)          -58.1793                                         !
 ! D38   D(5,6,7,8)             94.7617                                         !
 ! D39   D(5,6,7,9)            -78.7078                                         !
 ! D40   D(15,6,7,8)          -141.9647                                         !
 ! D41   D(15,6,7,9)            44.5659                                         !
 ! D42   D(16,6,7,8)           -24.7483                                         !
 ! D43   D(16,6,7,9)           161.7822                                         !
 ! D44   D(6,7,9,10)           -25.6306                                         !
 ! D45   D(8,7,9,10)           160.4157                                         !
 ! D46   D(3,19,20,21)        -149.7297                                         !
 ! D47   D(3,19,20,23)          93.8171                                         !
 ! D48   D(3,19,20,34)         -29.1874                                         !
 ! D49   D(33,19,20,21)         38.7709                                         !
 ! D50   D(33,19,20,23)        -77.6824                                         !
 ! D51   D(33,19,20,34)        159.3132                                         !
 ! D52   D(19,20,21,22)        -27.7079                                         !
 ! D53   D(19,20,21,43)        159.3273                                         !
 ! D54   D(23,20,21,22)         91.4031                                         !
 ! D55   D(23,20,21,43)        -81.5617                                         !
 ! D56   D(34,20,21,22)       -147.8233                                         !
 ! D57   D(34,20,21,43)         39.2119                                         !
 ! D58   D(19,20,23,24)        -64.6009                                         !
 ! D59   D(19,20,23,35)        173.0344                                         !
 ! D60   D(19,20,23,36)         58.2341                                         !
 ! D61   D(21,20,23,24)        179.3679                                         !
 ! D62   D(21,20,23,35)         57.0032                                         !
 ! D63   D(21,20,23,36)        -57.7971                                         !
 ! D64   D(34,20,23,24)         58.2949                                         !
 ! D65   D(34,20,23,35)        -64.0698                                         !
 ! D66   D(34,20,23,36)       -178.8701                                         !
 ! D67   D(20,21,43,44)        -20.9923                                         !
 ! D68   D(20,21,43,51)       -178.3792                                         !
 ! D69   D(22,21,43,44)        166.4177                                         !
 ! D70   D(22,21,43,51)          9.0307                                         !
 ! D71   D(20,23,24,25)         74.3751                                         !
 ! D72   D(20,23,24,26)        -99.9247                                         !
 ! D73   D(35,23,24,25)       -164.2607                                         !
 ! D74   D(35,23,24,26)         21.4396                                         !
 ! D75   D(36,23,24,25)        -45.8584                                         !
 ! D76   D(36,23,24,26)        139.8418                                         !
 ! D77   D(23,24,25,29)       -170.5741                                         !
 ! D78   D(23,24,25,37)          5.8482                                         !
 ! D79   D(26,24,25,29)          4.6057                                         !
 ! D80   D(26,24,25,37)       -178.9719                                         !
 ! D81   D(23,24,26,27)        174.4072                                         !
 ! D82   D(23,24,26,28)         -7.7525                                         !
 ! D83   D(25,24,26,27)         -0.8378                                         !
 ! D84   D(25,24,26,28)        177.0025                                         !
 ! D85   D(24,25,29,27)         -6.7292                                         !
 ! D86   D(24,25,29,38)       -157.6683                                         !
 ! D87   D(37,25,29,27)        176.4381                                         !
 ! D88   D(37,25,29,38)         25.499                                          !
 ! D89   D(24,26,27,29)         -3.1982                                         !
 ! D90   D(24,26,27,30)        177.2672                                         !
 ! D91   D(28,26,27,29)        178.6047                                         !
 ! D92   D(28,26,27,30)         -0.9299                                         !
 ! D93   D(24,26,28,31)       -176.0623                                         !
 ! D94   D(24,26,28,39)          4.9363                                         !
 ! D95   D(27,26,28,31)          1.5707                                         !
 ! D96   D(27,26,28,39)       -177.4307                                         !
 ! D97   D(26,27,29,25)          6.0114                                         !
 ! D98   D(26,27,29,38)        156.856                                          !
 ! D99   D(30,27,29,25)       -174.5031                                         !
 ! D100  D(30,27,29,38)        -23.6585                                         !
 ! D101  D(26,27,30,32)         -0.5001                                         !
 ! D102  D(26,27,30,40)       -178.8574                                         !
 ! D103  D(29,27,30,32)       -179.9184                                         !
 ! D104  D(29,27,30,40)          1.7243                                         !
 ! D105  D(26,28,31,32)         -0.8313                                         !
 ! D106  D(26,28,31,41)        179.4766                                         !
 ! D107  D(39,28,31,32)        178.1924                                         !
 ! D108  D(39,28,31,41)         -1.4997                                         !
 ! D109  D(27,30,32,31)          1.2737                                         !
 ! D110  D(27,30,32,42)       -178.5888                                         !
 ! D111  D(40,30,32,31)        179.6345                                         !
 ! D112  D(40,30,32,42)         -0.228                                          !
 ! D113  D(28,31,32,30)         -0.6302                                         !
 ! D114  D(28,31,32,42)        179.2321                                         !
 ! D115  D(41,31,32,30)        179.0595                                         !
 ! D116  D(41,31,32,42)         -1.0783                                         !
 ! D117  D(21,43,44,45)        -56.3684                                         !
 ! D118  D(21,43,44,47)       -178.4023                                         !
 ! D119  D(21,43,44,52)         65.8599                                         !
 ! D120  D(51,43,44,45)        100.076                                          !
 ! D121  D(51,43,44,47)        -21.9579                                         !
 ! D122  D(51,43,44,52)       -137.6957                                         !
 ! D123  D(43,44,45,46)        -14.053                                          !
 ! D124  D(43,44,45,57)        171.1518                                         !
 ! D125  D(47,44,45,46)        105.5741                                         !
 ! D126  D(47,44,45,57)        -69.2211                                         !
 ! D127  D(52,44,45,46)       -137.2766                                         !
 ! D128  D(52,44,45,57)         47.9282                                         !
 ! D129  D(43,44,47,48)         70.7488                                         !
 ! D130  D(43,44,47,49)       -168.3971                                         !
 ! D131  D(43,44,47,53)        -47.9853                                         !
 ! D132  D(45,44,47,48)        -51.1393                                         !
 ! D133  D(45,44,47,49)         69.7148                                         !
 ! D134  D(45,44,47,53)       -169.8734                                         !
 ! D135  D(52,44,47,48)       -170.2514                                         !
 ! D136  D(52,44,47,49)        -49.3973                                         !
 ! D137  D(52,44,47,53)         71.0145                                         !
 ! D138  D(44,45,57,58)        -52.2315                                         !
 ! D139  D(44,45,57,69)        170.4922                                         !
 ! D140  D(46,45,57,58)        132.8895                                         !
 ! D141  D(46,45,57,69)         -4.3867                                         !
 ! D142  D(44,47,48,54)         66.4263                                         !
 ! D143  D(44,47,48,55)        -54.8098                                         !
 ! D144  D(44,47,48,56)       -175.2778                                         !
 ! D145  D(49,47,48,54)        -57.5918                                         !
 ! D146  D(49,47,48,55)       -178.8279                                         !
 ! D147  D(49,47,48,56)         60.7041                                         !
 ! D148  D(53,47,48,54)       -177.9904                                         !
 ! D149  D(53,47,48,55)         60.7735                                         !
 ! D150  D(53,47,48,56)        -59.6945                                         !
 ! D151  D(44,47,49,50)         50.9982                                         !
 ! D152  D(48,47,49,50)        175.4244                                         !
 ! D153  D(53,47,49,50)        -65.2623                                         !
 ! D154  D(45,57,58,59)         70.8335                                         !
 ! D155  D(45,57,58,61)        -55.9251                                         !
 ! D156  D(45,57,58,70)       -170.9051                                         !
 ! D157  D(69,57,58,59)       -152.709                                          !
 ! D158  D(69,57,58,61)         80.5324                                         !
 ! D159  D(69,57,58,70)        -34.4476                                         !
 ! D160  D(57,58,59,60)        126.3082                                         !
 ! D161  D(57,58,59,68)        -59.3487                                         !
 ! D162  D(61,58,59,60)       -106.8391                                         !
 ! D163  D(61,58,59,68)         67.504                                          !
 ! D164  D(70,58,59,60)         10.9382                                         !
 ! D165  D(70,58,59,68)       -174.7187                                         !
 ! D166  D(57,58,61,62)       -163.5733                                         !
 ! D167  D(57,58,61,71)         74.3715                                         !
 ! D168  D(57,58,61,72)        -40.4317                                         !
 ! D169  D(59,58,61,62)         63.7901                                         !
 ! D170  D(59,58,61,71)        -58.2651                                         !
 ! D171  D(59,58,61,72)       -173.0683                                         !
 ! D172  D(70,58,61,62)        -53.136                                          !
 ! D173  D(70,58,61,71)       -175.1912                                         !
 ! D174  D(70,58,61,72)         70.0055                                         !
 ! D175  D(58,61,62,63)         20.3867                                         !
 ! D176  D(58,61,62,73)        143.7737                                         !
 ! D177  D(58,61,62,74)       -100.4981                                         !
 ! D178  D(71,61,62,63)        140.918                                          !
 ! D179  D(71,61,62,73)        -95.6951                                         !
 ! D180  D(71,61,62,74)         20.0332                                         !
 ! D181  D(72,61,62,63)       -101.0328                                         !
 ! D182  D(72,61,62,73)         22.3541                                         !
 ! D183  D(72,61,62,74)        138.0824                                         !
 ! D184  D(61,62,63,64)         54.6014                                         !
 ! D185  D(61,62,63,75)        175.1789                                         !
 ! D186  D(61,62,63,76)        -67.4041                                         !
 ! D187  D(73,62,63,64)        -69.1476                                         !
 ! D188  D(73,62,63,75)         51.4299                                         !
 ! D189  D(73,62,63,76)        168.8469                                         !
 ! D190  D(74,62,63,64)        177.5998                                         !
 ! D191  D(74,62,63,75)        -61.8226                                         !
 ! D192  D(74,62,63,76)         55.5943                                         !
 ! D193  D(62,63,64,65)       -130.5035                                         !
 ! D194  D(62,63,64,77)         42.7803                                         !
 ! D195  D(75,63,64,65)        108.7106                                         !
 ! D196  D(75,63,64,77)        -78.0057                                         !
 ! D197  D(76,63,64,65)         -8.1313                                         !
 ! D198  D(76,63,64,77)        165.1524                                         !
 ! D199  D(63,64,65,66)         16.0877                                         !
 ! D200  D(63,64,65,67)       -165.3924                                         !
 ! D201  D(77,64,65,66)       -157.1676                                         !
 ! D202  D(77,64,65,67)         21.3523                                         !
 ! D203  D(64,65,66,78)       -169.6005                                         !
 ! D204  D(64,65,66,79)         23.2814                                         !
 ! D205  D(67,65,66,78)         11.9311                                         !
 ! D206  D(67,65,66,79)       -155.187                                          !
 ! D207  D(64,65,67,80)         25.7249                                         !
 ! D208  D(64,65,67,81)       -170.4772                                         !
 ! D209  D(66,65,67,80)       -155.7421                                         !
 ! D210  D(66,65,67,81)          8.0558                                         !
 --------------------------------------------------------------------------------
 Symmetry turned off by external request.
 Stoichiometry    C26H39N8O8(1+)
 Framework group  C1[X(C26H39N8O8)]
 Deg. of freedom   237
 Full point group                 C1      NOp   1
                          Input orientation:                          
 ---------------------------------------------------------------------
 Center     Atomic      Atomic             Coordinates (Angstroms)
 Number     Number       Type             X           Y           Z
 ---------------------------------------------------------------------
      1          7           0        8.565566   32.823757   13.722392
      2          6           0        8.200215   34.108380   12.991835
      3          6           0        6.794302   34.054558   12.326849
      4          8           0        5.977698   34.866243   12.743886
      5          6           0        9.280554   34.595249   12.008134
      6          6           0       10.482887   35.370485   12.615172
      7          6           0       11.347170   34.532534   13.534570
      8          8           0       12.349641   33.945194   13.213001
      9          8           0       10.848255   34.340773   14.808181
     10          1           0       10.249744   35.069520   15.052190
     11          1           0        8.727221   32.030448   13.091957
     12          1           0        8.056872   34.839824   13.790278
     13          1           0        9.632210   33.796061   11.351745
     14          1           0        8.776858   35.296576   11.335476
     15          1           0       10.113835   36.258224   13.145423
     16          1           0       11.115575   35.711379   11.792906
     17          1           0        9.418866   32.959300   14.282687
     18          1           0        7.800507   32.519002   14.352639
     19          7           0        6.569192   33.265441   11.250572
     20          6           0        7.208929   32.060415   10.748269
     21          6           0        7.050124   32.087086    9.213867
     22          8           0        6.090055   32.678870    8.734465
     23          6           0        6.483141   30.778412   11.264914
     24          6           0        6.571690   30.617191   12.748586
     25          6           0        5.884393   31.328629   13.698515
     26          6           0        7.493531   29.750127   13.457281
     27          6           0        7.326532   30.001458   14.843630
     28          6           0        8.408336   28.765602   13.039273
     29          7           0        6.393793   31.036160   14.971120
     30          6           0        8.026372   29.291516   15.823543
     31          6           0        9.095783   28.047360   14.010794
     32          6           0        8.902622   28.302460   15.385517
     33          1           0        5.712679   33.487116   10.743485
     34          1           0        8.261348   32.044094   11.031700
     35          1           0        6.919822   29.908386   10.763781
     36          1           0        5.442088   30.847256   10.931316
     37          1           0        5.101498   32.065657   13.583792
     38          1           0        5.850199   31.175891   15.814040
     39          1           0        8.598281   28.568499   11.989432
     40          1           0        7.873960   29.483174   16.881938
     41          1           0        9.797399   27.279714   13.698759
     42          1           0        9.446663   27.714122   16.118517
     43          7           0        7.903022   31.329763    8.481813
     44          6           0        9.208561   30.808840    8.873411
     45          6           0       10.142360   31.935280    9.314549
     46          8           0        9.869321   33.113570    9.074387
     47          6           0        9.793888   30.028265    7.633087
     48          6           0       10.209151   30.949903    6.488985
     49          8           0       10.921132   29.266719    7.966100
     50          1           0       10.707873   28.716574    8.746355
     51          1           0        7.736271   31.434635    7.486972
     52          1           0        9.116003   30.075517    9.679475
     53          1           0        8.960516   29.383405    7.302589
     54          1           0       11.058185   31.567064    6.797865
     55          1           0        9.402577   31.612409    6.157935
     56          1           0       10.523166   30.337828    5.639501
     57          7           0       11.356126   31.629378    9.893585
     58          6           0       11.729169   30.757597   11.030867
     59          6           0       11.630167   29.213111   10.884742
     60          8           0       12.686065   28.574939   11.164037
     61          6           0       10.946018   31.196362   12.287200
     62          6           0       11.418355   30.716028   13.682992
     63          6           0       12.866867   30.238038   13.835209
     64          7           0       13.865043   31.218437   13.385232
     65          6           0       14.889345   30.961839   12.553360
     66          7           0       14.924094   29.865619   11.806941
     67          7           0       15.879022   31.884678   12.480458
     68          8           0       10.508065   28.725635   10.615596
     69          1           0       11.872966   32.502959    9.958499
     70          1           0       12.776378   31.005023   11.167613
     71          1           0        9.917606   30.842853   12.127813
     72          1           0       10.945271   32.286063   12.266627
     73          1           0       11.251296   31.525361   14.408293
     74          1           0       10.799015   29.877826   14.011651
     75          1           0       13.053570   30.019779   14.893542
     76          1           0       13.004957   29.315014   13.276638
     77          1           0       13.709257   32.186257   13.648758
     78          1           0       15.778912   29.634121   11.318913
     79          1           0       14.036337   29.322777   11.534499
     80          1           0       16.060192   32.503411   13.257466
     81          1           0       16.595097   31.813672   11.772501
 ---------------------------------------------------------------------
 Rotational constants (GHZ):           0.0960280           0.0785859           0.0687926
 Standard basis: 6-31G(d) (6D, 7F)
   708 basis functions,  1332 primitive gaussians,   708 cartesian basis functions
   157 alpha electrons      157 beta electrons
       nuclear repulsion energy      5856.9576076002 Hartrees.
 NAtoms=   81 NActive=   81 NUniq=   81 SFac= 1.00D+00 NAtFMM=   60 NAOKFM=T Big=T
 Integral buffers will be    131072 words long.
 Raffenetti 2 integral format.
 Two-electron integral symmetry is turned off.
 Nuclear repulsion after empirical dispersion term =     5856.8177524886 Hartrees.
 One-electron integrals computed using PRISM.
 NBasis=   708 RedAO= T EigKep=  3.64D-04  NBF=   708
 NBsUse=   708 1.00D-06 EigRej= -1.00D+00 NBFU=   708
 Initial guess from the checkpoint file:  "conf-669.chk"
 B after Tr=     0.000000    0.000000    0.000000
         Rot=    1.000000    0.000000    0.000000    0.000000 Ang=   0.00 deg.
 Requested convergence on RMS density matrix=1.00D-08 within 128 cycles.
 Requested convergence on MAX density matrix=1.00D-06.
 Requested convergence on             energy=1.00D-06.
 No special actions if energy rises.
 SCF Done:  E(RB3LYP) =  -2054.00529510     A.U. after    1 cycles
            NFock=  1  Conv=0.82D-08     -V/T= 2.0092

 **********************************************************************

            Population analysis using the SCF Density.

 **********************************************************************

 Alpha  occ. eigenvalues --  -19.35418 -19.29678 -19.23172 -19.20878 -19.20445
 Alpha  occ. eigenvalues --  -19.19538 -19.18215 -19.17429 -14.59461 -14.50119
 Alpha  occ. eigenvalues --  -14.49929 -14.49553 -14.47341 -14.47190 -14.44545
 Alpha  occ. eigenvalues --  -14.44458 -10.47570 -10.45673 -10.41619 -10.40230
 Alpha  occ. eigenvalues --  -10.37953 -10.37656 -10.36049 -10.35118 -10.35043
 Alpha  occ. eigenvalues --  -10.34539 -10.33671 -10.33276 -10.33245 -10.32185
 Alpha  occ. eigenvalues --  -10.31578 -10.31191 -10.30416 -10.30326 -10.30232
 Alpha  occ. eigenvalues --  -10.30093 -10.29651 -10.29627 -10.28944 -10.28465
 Alpha  occ. eigenvalues --  -10.28071 -10.24004  -1.25413  -1.17590  -1.15966
 Alpha  occ. eigenvalues --   -1.14033  -1.13956  -1.13061  -1.12290  -1.11164
 Alpha  occ. eigenvalues --   -1.09187  -1.07894  -1.03807  -1.03675  -1.02747
 Alpha  occ. eigenvalues --   -1.01311  -1.01103  -1.00547  -0.95362  -0.94602
 Alpha  occ. eigenvalues --   -0.91727  -0.90746  -0.88257  -0.86809  -0.84985
 Alpha  occ. eigenvalues --   -0.84081  -0.83934  -0.82670  -0.79373  -0.79065
 Alpha  occ. eigenvalues --   -0.78114  -0.77613  -0.76520  -0.75657  -0.74910
 Alpha  occ. eigenvalues --   -0.72707  -0.72377  -0.71531  -0.70886  -0.70575
 Alpha  occ. eigenvalues --   -0.69884  -0.69205  -0.68019  -0.67561  -0.66578
 Alpha  occ. eigenvalues --   -0.66174  -0.65944  -0.65416  -0.64243  -0.63508
 Alpha  occ. eigenvalues --   -0.62836  -0.62348  -0.61396  -0.61059  -0.60305
 Alpha  occ. eigenvalues --   -0.59983  -0.59304  -0.58879  -0.58314  -0.57923
 Alpha  occ. eigenvalues --   -0.57712  -0.57324  -0.56814  -0.56673  -0.56381
 Alpha  occ. eigenvalues --   -0.55426  -0.55208  -0.55123  -0.54889  -0.54342
 Alpha  occ. eigenvalues --   -0.53573  -0.53364  -0.52791  -0.52557  -0.52208
 Alpha  occ. eigenvalues --   -0.52000  -0.51747  -0.51492  -0.51040  -0.50527
 Alpha  occ. eigenvalues --   -0.50211  -0.49922  -0.49786  -0.48692  -0.48486
 Alpha  occ. eigenvalues --   -0.48368  -0.48075  -0.47669  -0.47163  -0.46815
 Alpha  occ. eigenvalues --   -0.46585  -0.46369  -0.45349  -0.45277  -0.45146
 Alpha  occ. eigenvalues --   -0.44434  -0.44017  -0.43764  -0.43475  -0.42884
 Alpha  occ. eigenvalues --   -0.42601  -0.40554  -0.38972  -0.38874  -0.38202
 Alpha  occ. eigenvalues --   -0.37263  -0.36622  -0.36418  -0.34767  -0.34383
 Alpha  occ. eigenvalues --   -0.33972  -0.33570  -0.33319  -0.32430  -0.31946
 Alpha  occ. eigenvalues --   -0.31667  -0.31196
 Alpha virt. eigenvalues --   -0.15675  -0.12534  -0.11956  -0.10373  -0.10172
 Alpha virt. eigenvalues --   -0.09318  -0.08728  -0.07270  -0.06354  -0.06041
 Alpha virt. eigenvalues --   -0.05560  -0.04503  -0.03770  -0.03233  -0.02794
 Alpha virt. eigenvalues --   -0.01576  -0.01300  -0.01221  -0.00756  -0.00376
 Alpha virt. eigenvalues --    0.00200   0.00716   0.01130   0.01302   0.01754
 Alpha virt. eigenvalues --    0.02151   0.02194   0.02537   0.03503   0.04096
 Alpha virt. eigenvalues --    0.04470   0.04696   0.04813   0.05661   0.05993
 Alpha virt. eigenvalues --    0.06272   0.06608   0.07000   0.07303   0.08006
 Alpha virt. eigenvalues --    0.08312   0.08398   0.08587   0.08731   0.09173
 Alpha virt. eigenvalues --    0.09501   0.09978   0.10047   0.10896   0.11306
 Alpha virt. eigenvalues --    0.11466   0.11691   0.12242   0.12794   0.13067
 Alpha virt. eigenvalues --    0.13588   0.13934   0.14203   0.14726   0.14866
 Alpha virt. eigenvalues --    0.15267   0.15520   0.15931   0.16116   0.16334
 Alpha virt. eigenvalues --    0.17043   0.17672   0.18550   0.18967   0.19117
 Alpha virt. eigenvalues --    0.20027   0.20476   0.21818   0.22065   0.22580
 Alpha virt. eigenvalues --    0.22863   0.24093   0.24354   0.25792   0.26443
 Alpha virt. eigenvalues --    0.27353   0.27622   0.28709   0.29521   0.30248
 Alpha virt. eigenvalues --    0.31866   0.32624   0.32763   0.33397   0.34807
 Alpha virt. eigenvalues --    0.35795   0.36168   0.37583   0.38661   0.39291
 Alpha virt. eigenvalues --    0.39524   0.39918   0.40326   0.40937   0.41188
 Alpha virt. eigenvalues --    0.41927   0.42725   0.43123   0.43411   0.43962
 Alpha virt. eigenvalues --    0.44669   0.44981   0.45550   0.45657   0.45938
 Alpha virt. eigenvalues --    0.46485   0.47263   0.47469   0.47890   0.48049
 Alpha virt. eigenvalues --    0.48576   0.48703   0.48966   0.49557   0.49604
 Alpha virt. eigenvalues --    0.50531   0.50747   0.51031   0.51353   0.51901
 Alpha virt. eigenvalues --    0.52037   0.52102   0.52681   0.53450   0.53587
 Alpha virt. eigenvalues --    0.54148   0.54399   0.54654   0.54841   0.55701
 Alpha virt. eigenvalues --    0.56223   0.56440   0.56873   0.57310   0.57723
 Alpha virt. eigenvalues --    0.58017   0.58508   0.59221   0.59418   0.60037
 Alpha virt. eigenvalues --    0.60278   0.61272   0.61446   0.61794   0.61972
 Alpha virt. eigenvalues --    0.62428   0.63417   0.63738   0.64150   0.64681
 Alpha virt. eigenvalues --    0.65526   0.65855   0.66477   0.66890   0.67751
 Alpha virt. eigenvalues --    0.68019   0.68694   0.69320   0.69753   0.70409
 Alpha virt. eigenvalues --    0.70701   0.71249   0.71574   0.71886   0.72236
 Alpha virt. eigenvalues --    0.72846   0.73053   0.73277   0.73512   0.74064
 Alpha virt. eigenvalues --    0.74528   0.74895   0.75084   0.75351   0.75412
 Alpha virt. eigenvalues --    0.75605   0.75917   0.76400   0.77016   0.77294
 Alpha virt. eigenvalues --    0.78164   0.78515   0.78668   0.78875   0.79333
 Alpha virt. eigenvalues --    0.79832   0.80401   0.80911   0.81214   0.81903
 Alpha virt. eigenvalues --    0.82056   0.82212   0.82476   0.82627   0.83437
 Alpha virt. eigenvalues --    0.83740   0.84348   0.84540   0.84831   0.85473
 Alpha virt. eigenvalues --    0.85937   0.86326   0.86379   0.87412   0.87858
 Alpha virt. eigenvalues --    0.88280   0.88518   0.88644   0.89029   0.89350
 Alpha virt. eigenvalues --    0.90239   0.90510   0.91017   0.92109   0.92957
 Alpha virt. eigenvalues --    0.93302   0.94101   0.94828   0.95703   0.96003
 Alpha virt. eigenvalues --    0.96242   0.96927   0.97154   0.97763   0.97950
 Alpha virt. eigenvalues --    0.99182   0.99387   1.00756   1.00960   1.02101
 Alpha virt. eigenvalues --    1.03284   1.03781   1.04261   1.04555   1.04795
 Alpha virt. eigenvalues --    1.05164   1.05596   1.06848   1.07784   1.08163
 Alpha virt. eigenvalues --    1.09493   1.09593   1.10014   1.10918   1.11165
 Alpha virt. eigenvalues --    1.12543   1.12984   1.13823   1.14291   1.14634
 Alpha virt. eigenvalues --    1.15516   1.15874   1.16392   1.16544   1.17466
 Alpha virt. eigenvalues --    1.18168   1.19793   1.20239   1.20348   1.22015
 Alpha virt. eigenvalues --    1.22243   1.22504   1.23377   1.24391   1.25066
 Alpha virt. eigenvalues --    1.25831   1.26470   1.27266   1.28567   1.29053
 Alpha virt. eigenvalues --    1.29210   1.30135   1.30786   1.30857   1.31557
 Alpha virt. eigenvalues --    1.31799   1.33396   1.33942   1.34737   1.35553
 Alpha virt. eigenvalues --    1.35912   1.36436   1.37052   1.37441   1.38433
 Alpha virt. eigenvalues --    1.39369   1.40083   1.40266   1.40876   1.42100
 Alpha virt. eigenvalues --    1.42300   1.42931   1.43883   1.44278   1.45056
 Alpha virt. eigenvalues --    1.45503   1.47220   1.47923   1.48887   1.49914
 Alpha virt. eigenvalues --    1.50777   1.51590   1.51899   1.52479   1.53112
 Alpha virt. eigenvalues --    1.53554   1.53948   1.55504   1.56238   1.56909
 Alpha virt. eigenvalues --    1.57306   1.57409   1.58408   1.59350   1.60055
 Alpha virt. eigenvalues --    1.60238   1.61636   1.62701   1.63320   1.64216
 Alpha virt. eigenvalues --    1.64715   1.65274   1.66023   1.66613   1.67103
 Alpha virt. eigenvalues --    1.67699   1.68199   1.68417   1.69525   1.70163
 Alpha virt. eigenvalues --    1.70602   1.70953   1.71418   1.71806   1.72323
 Alpha virt. eigenvalues --    1.72837   1.73812   1.74223   1.75168   1.76025
 Alpha virt. eigenvalues --    1.76237   1.76520   1.77007   1.77272   1.77727
 Alpha virt. eigenvalues --    1.78001   1.78422   1.78981   1.79317   1.80088
 Alpha virt. eigenvalues --    1.80412   1.80892   1.81113   1.81228   1.82088
 Alpha virt. eigenvalues --    1.82301   1.83360   1.83443   1.84311   1.84553
 Alpha virt. eigenvalues --    1.84680   1.85026   1.85959   1.86485   1.86727
 Alpha virt. eigenvalues --    1.87892   1.88156   1.89351   1.89472   1.89933
 Alpha virt. eigenvalues --    1.90534   1.91135   1.91713   1.91972   1.92714
 Alpha virt. eigenvalues --    1.93531   1.93990   1.94965   1.95267   1.96034
 Alpha virt. eigenvalues --    1.96663   1.97284   1.98246   1.98619   1.98730
 Alpha virt. eigenvalues --    1.98983   2.00504   2.01074   2.01892   2.02996
 Alpha virt. eigenvalues --    2.04059   2.04376   2.05158   2.05845   2.06792
 Alpha virt. eigenvalues --    2.07291   2.08381   2.09557   2.10065   2.10452
 Alpha virt. eigenvalues --    2.10761   2.11349   2.12141   2.13128   2.14186
 Alpha virt. eigenvalues --    2.14899   2.15873   2.16361   2.16759   2.16969
 Alpha virt. eigenvalues --    2.17817   2.18319   2.18815   2.19562   2.20206
 Alpha virt. eigenvalues --    2.21440   2.22302   2.23595   2.24249   2.25460
 Alpha virt. eigenvalues --    2.25929   2.26447   2.26828   2.27775   2.28957
 Alpha virt. eigenvalues --    2.29227   2.30262   2.30981   2.32327   2.32922
 Alpha virt. eigenvalues --    2.33302   2.33761   2.35187   2.35213   2.36250
 Alpha virt. eigenvalues --    2.36958   2.37553   2.39273   2.40482   2.40822
 Alpha virt. eigenvalues --    2.41995   2.42719   2.44169   2.44379   2.45328
 Alpha virt. eigenvalues --    2.45953   2.46842   2.47098   2.47681   2.49440
 Alpha virt. eigenvalues --    2.49842   2.51001   2.51716   2.52084   2.52280
 Alpha virt. eigenvalues --    2.52884   2.53566   2.54829   2.55273   2.55868
 Alpha virt. eigenvalues --    2.56980   2.57302   2.58534   2.58735   2.60044
 Alpha virt. eigenvalues --    2.60310   2.60793   2.61467   2.62055   2.64059
 Alpha virt. eigenvalues --    2.64730   2.65755   2.66348   2.68008   2.68253
 Alpha virt. eigenvalues --    2.69223   2.70322   2.72358   2.73293   2.74066
 Alpha virt. eigenvalues --    2.76546   2.80699   2.82232   2.85964   2.87083
 Alpha virt. eigenvalues --    2.87678   2.88306   2.89288   2.90220   2.90651
 Alpha virt. eigenvalues --    2.91549   2.92075   2.92432   2.95272   2.97928
 Alpha virt. eigenvalues --    2.98120   2.99080   2.99616   3.01874   3.04921
 Alpha virt. eigenvalues --    3.07272   3.11923   3.14692   3.33503   3.67430
 Alpha virt. eigenvalues --    3.72803   3.77152   3.80094   3.81469   3.85807
 Alpha virt. eigenvalues --    3.87888   3.90252   3.94226   3.97072   3.99163
 Alpha virt. eigenvalues --    4.00585   4.01961   4.03947   4.04398   4.06913
 Alpha virt. eigenvalues --    4.07590   4.10477   4.12996   4.13808   4.16731
 Alpha virt. eigenvalues --    4.19259   4.22802   4.23216   4.24616   4.27958
 Alpha virt. eigenvalues --    4.28553   4.31828   4.32226   4.33915   4.36631
 Alpha virt. eigenvalues --    4.40713   4.42111   4.44844   4.47258   4.48103
 Alpha virt. eigenvalues --    4.51229   4.56615   4.60363   4.64944   4.70542
 Alpha virt. eigenvalues --    4.71038
          Condensed to atoms (all electrons):
 Mulliken charges:
               1
     1  N   -0.814477
     2  C   -0.121769
     3  C    0.580626
     4  O   -0.478932
     5  C   -0.326727
     6  C   -0.381566
     7  C    0.588855
     8  O   -0.424887
     9  O   -0.581389
    10  H    0.432051
    11  H    0.427727
    12  H    0.198508
    13  H    0.231820
    14  H    0.236723
    15  H    0.182442
    16  H    0.227091
    17  H    0.420902
    18  H    0.437606
    19  N   -0.565007
    20  C   -0.085454
    21  C    0.649564
    22  O   -0.512968
    23  C   -0.357894
    24  C    0.072941
    25  C   -0.078689
    26  C    0.044192
    27  C    0.261132
    28  C   -0.212794
    29  N   -0.699875
    30  C   -0.173985
    31  C   -0.167704
    32  C   -0.146751
    33  H    0.376441
    34  H    0.123267
    35  H    0.194054
    36  H    0.192336
    37  H    0.197620
    38  H    0.356791
    39  H    0.203556
    40  H    0.148603
    41  H    0.172189
    42  H    0.155591
    43  N   -0.602619
    44  C   -0.099911
    45  C    0.566027
    46  O   -0.525182
    47  C    0.126089
    48  C   -0.463754
    49  O   -0.636785
    50  H    0.431146
    51  H    0.351804
    52  H    0.199078
    53  H    0.137285
    54  H    0.168676
    55  H    0.145348
    56  H    0.180424
    57  N   -0.568640
    58  C   -0.058769
    59  C    0.645911
    60  O   -0.581073
    61  C   -0.333816
    62  C   -0.315136
    63  C   -0.165586
    64  N   -0.608593
    65  C    0.770529
    66  N   -0.776218
    67  N   -0.764744
    68  O   -0.584296
    69  H    0.321840
    70  H    0.134397
    71  H    0.161139
    72  H    0.123831
    73  H    0.124292
    74  H    0.198632
    75  H    0.176854
    76  H    0.223085
    77  H    0.369881
    78  H    0.356702
    79  H    0.447342
    80  H    0.371020
    81  H    0.372031
 Sum of Mulliken charges =   1.00000
 Mulliken charges with hydrogens summed into heavy atoms:
               1
     1  N    0.471757
     2  C    0.076739
     3  C    0.580626
     4  O   -0.478932
     5  C    0.141817
     6  C    0.027967
     7  C    0.588855
     8  O   -0.424887
     9  O   -0.149338
    19  N   -0.188567
    20  C    0.037813
    21  C    0.649564
    22  O   -0.512968
    23  C    0.028496
    24  C    0.072941
    25  C    0.118930
    26  C    0.044192
    27  C    0.261132
    28  C   -0.009238
    29  N   -0.343084
    30  C   -0.025382
    31  C    0.004485
    32  C    0.008839
    43  N   -0.250814
    44  C    0.099167
    45  C    0.566027
    46  O   -0.525182
    47  C    0.263374
    48  C    0.030694
    49  O   -0.205638
    57  N   -0.246800
    58  C    0.075628
    59  C    0.645911
    60  O   -0.581073
    61  C   -0.048846
    62  C    0.007787
    63  C    0.234354
    64  N   -0.238712
    65  C    0.770529
    66  N    0.027826
    67  N   -0.021693
    68  O   -0.584296
 Electronic spatial extent (au):  <R**2>=        1390918.3822
 Charge=              1.0000 electrons
 Dipole moment (field-independent basis, Debye):
    X=             55.6127    Y=            158.3855    Z=             70.1173  Tot=            181.9208
 Quadrupole moment (field-independent basis, Debye-Ang):
   XX=            472.2437   YY=           4977.4951   ZZ=            778.5870
   XY=           1840.4594   XZ=            781.3398   YZ=           2303.8560
 Traceless Quadrupole moment (field-independent basis, Debye-Ang):
   XX=          -1603.8649   YY=           2901.3865   ZZ=          -1297.5216
   XY=           1840.4594   XZ=            781.3398   YZ=           2303.8560
 Octapole moment (field-independent basis, Debye-Ang**2):
  XXX=           3020.3744  YYY=         149223.2533  ZZZ=           6244.9013  XYY=          58533.5881
  XXY=          15913.2072  XXZ=           6824.7870  XZZ=           8629.1147  YZZ=          25802.6281
  YYZ=          72882.4002  XYZ=          25749.4048
 Hexadecapole moment (field-independent basis, Debye-Ang**3):
 XXXX=           5050.3304 YYYY=        4235934.6640 ZZZZ=           4921.3146 XXXY=         107512.1015
 XXXZ=          48940.3024 YYYX=        1793773.6168 YYYZ=        2223320.4526 ZZZX=          71077.5482
 ZZZY=         213827.4319 XXYY=         509812.9444 XXZZ=          71885.5909 YYZZ=         820145.5578
 XXYZ=         227952.3839 YYXZ=         821547.0107 ZZXY=         286779.6171
 N-N= 5.856817752489D+03 E-N=-1.646872343921D+04  KE= 2.035199397881D+03
 Unable to Open any file for archive entry.
 1\1\GINC-SKL-133\SP\RB3LYP\6-31G(d)\C26H39N8O8(1+)\KENGMITH\27-May-202
 2\0\\# B3LYP/6-31G* empiricaldispersion=gd3 guess=read geom=check nosy
 mm integral(ultrafinegrid)\\Candidate Structure: Conf:669 Charge calc 
 in gas phase\\1,1\N,0,8.5655660678,32.8237566994,13.7223919188\C,0,8.2
 002152481,34.1083797379,12.9918354086\C,0,6.7943019836,34.05455792,12.
 3268486553\O,0,5.9776976944,34.8662425991,12.7438858657\C,0,9.28055369
 13,34.5952493516,12.008134157\C,0,10.4828869481,35.370485196,12.615172
 4751\C,0,11.347170421,34.5325335839,13.5345696038\O,0,12.3496409871,33
 .9451936282,13.2130010425\O,0,10.8482548166,34.3407731031,14.808181091
 4\H,0,10.2497437592,35.0695200263,15.052190047\H,0,8.727221246,32.0304
 475562,13.0919573353\H,0,8.0568719642,34.839823858,13.7902777249\H,0,9
 .6322097508,33.7960612822,11.3517450433\H,0,8.776857659,35.296575676,1
 1.3354757093\H,0,10.1138352948,36.2582239745,13.1454231761\H,0,11.1155
 752489,35.7113792542,11.792906176\H,0,9.4188661181,32.9593000397,14.28
 26874859\H,0,7.8005065888,32.519002455,14.3526385487\N,0,6.5691916143,
 33.2654408491,11.2505717553\C,0,7.2089289406,32.0604148448,10.74826873
 92\C,0,7.0501237428,32.0870858244,9.2138673499\O,0,6.0900552731,32.678
 8703131,8.7344653207\C,0,6.4831406667,30.7784116299,11.2649140228\C,0,
 6.5716901631,30.6171914911,12.7485863269\C,0,5.884393032,31.3286286639
 ,13.698514972\C,0,7.4935309422,29.750126737,13.4572806183\C,0,7.326532
 1621,30.0014582994,14.843630126\C,0,8.408335596,28.7656022597,13.03927
 28832\N,0,6.3937925515,31.0361596347,14.9711195266\C,0,8.0263715485,29
 .2915163457,15.823542987\C,0,9.0957831643,28.0473596802,14.010793795\C
 ,0,8.9026217619,28.3024599216,15.3855167331\H,0,5.7126792295,33.487116
 0729,10.7434845265\H,0,8.2613482697,32.044093517,11.0316995912\H,0,6.9
 198224431,29.9083861633,10.7637805139\H,0,5.44208796,30.8472560324,10.
 9313161777\H,0,5.1014981396,32.0656567568,13.583792415\H,0,5.850198908
 9,31.1758907261,15.8140398081\H,0,8.5982807547,28.5684991658,11.989432
 2882\H,0,7.8739595008,29.4831740687,16.8819375997\H,0,9.7973989862,27.
 2797138596,13.6987587552\H,0,9.4466628433,27.7141218005,16.1185170996\
 N,0,7.9030216264,31.3297625692,8.4818131042\C,0,9.2085607876,30.808840
 0986,8.8734110426\C,0,10.1423600676,31.9352802631,9.3145489463\O,0,9.8
 693211494,33.1135700795,9.0743867614\C,0,9.7938882887,30.0282649383,7.
 6330873241\C,0,10.2091513178,30.949902748,6.4889849177\O,0,10.92113226
 33,29.2667194459,7.9661001334\H,0,10.7078726613,28.7165737036,8.746354
 7592\H,0,7.7362710263,31.434635089,7.4869718624\H,0,9.1160025651,30.07
 55170857,9.679475032\H,0,8.9605155515,29.3834049484,7.3025885872\H,0,1
 1.05818501,31.5670641205,6.797864976\H,0,9.4025770433,31.6124085298,6.
 1579353151\H,0,10.5231663446,30.3378281398,5.6395005597\N,0,11.3561263
 043,31.6293777545,9.8935852999\C,0,11.729168614,30.7575967291,11.03086
 7402\C,0,11.6301674397,29.2131105411,10.8847416987\O,0,12.6860654677,2
 8.574938805,11.1640372933\C,0,10.9460178548,31.1963621901,12.287199977
 2\C,0,11.4183551508,30.7160275855,13.6829916108\C,0,12.8668672372,30.2
 380377671,13.8352090198\N,0,13.8650426384,31.2184373604,13.3852316115\
 C,0,14.889345231,30.9618387048,12.5533604748\N,0,14.9240937877,29.8656
 186762,11.8069409246\N,0,15.8790223981,31.8846775269,12.4804584387\O,0
 ,10.5080649882,28.7256348599,10.6155957121\H,0,11.8729657154,32.502958
 93,9.9584985472\H,0,12.7763783173,31.0050226676,11.1676131657\H,0,9.91
 7606036,30.842852838,12.1278132208\H,0,10.9452712868,32.2860630936,12.
 2666270788\H,0,11.2512959498,31.5253610581,14.4082931518\H,0,10.799015
 0178,29.8778261314,14.0116513646\H,0,13.0535700699,30.0197793959,14.89
 35418014\H,0,13.0049574201,29.3150136095,13.2766380389\H,0,13.70925660
 46,32.186256698,13.6487580455\H,0,15.7789117902,29.6341208958,11.31891
 29907\H,0,14.0363368066,29.3227773374,11.5344990396\H,0,16.0601917775,
 32.5034113776,13.2574658743\H,0,16.5950971308,31.8136720279,11.7725008
 102\\Version=ES64L-G16RevC.01\HF=-2054.0052951\RMSD=8.219e-09\Dipole=3
 .4339824,2.8894687,5.212641\Quadrupole=-1192.4342677,2157.1097745,-964
 .6755069,1368.3364599,580.9069637,1712.8604811\PG=C01 [X(C26H39N8O8)]\
 \@
 The archive entry for this job was punched.


 ... I FELL INTO A REVERIE ... THE ATOMS WERE GAMBOLING BEFORE MY EYES
 ... I SAW HOW TWO SMALL ONES UNITED TO FORM A PAIR;
 HOW THE LARGER ONES SEIZED TWO OF THE SMALLER ONES;
 HOW STILL LARGER ONES KEPT HOLD OF THREE OR FOUR
 SMALLER ONES ... I SAW HOW THE LARGER ONES FORMED A CHAIN ...
 THIS WAS THE ORIGIN OF THE STRUCTURE THEORY.

                                   -- C.F.KEKULE VON STRADONITZ
 Job cpu time:       0 days  0 hours  2 minutes 42.1 seconds.
 Elapsed time:       0 days  0 hours  0 minutes 41.6 seconds.
 File lengths (MBytes):  RWF=    376 Int=      0 D2E=      0 Chk=     56 Scr=     16
 Normal termination of Gaussian 16 at Fri May 27 05:10:45 2022.
