 Entering Gaussian System, Link 0=/opt/software/Gaussian/g16-AVX2-C.01/g16/g16
 Input=charge-conf-291.com
 Output=charge-conf-291.log
 Initial command:
 /opt/software/Gaussian/g16-AVX2-C.01/g16/l1.exe "/mnt/gs18/scratch/users/kengmith/Gau-17531.inp" -scrdir="/mnt/gs18/scratch/users/kengmith/"
 Entering Link 1 = /opt/software/Gaussian/g16-AVX2-C.01/g16/l1.exe PID=     17541.
  
 Copyright (c) 1988-2019, Gaussian, Inc.  All Rights Reserved.
  
 This is part of the Gaussian(R) 16 program.  It is based on
 the Gaussian(R) 09 system (copyright 2009, Gaussian, Inc.),
 the Gaussian(R) 03 system (copyright 2003, Gaussian, Inc.),
 the Gaussian(R) 98 system (copyright 1998, Gaussian, Inc.),
 the Gaussian(R) 94 system (copyright 1995, Gaussian, Inc.),
 the Gaussian 92(TM) system (copyright 1992, Gaussian, Inc.),
 the Gaussian 90(TM) system (copyright 1990, Gaussian, Inc.),
 the Gaussian 88(TM) system (copyright 1988, Gaussian, Inc.),
 the Gaussian 86(TM) system (copyright 1986, Carnegie Mellon
 University), and the Gaussian 82(TM) system (copyright 1983,
 Carnegie Mellon University). Gaussian is a federally registered
 trademark of Gaussian, Inc.
  
 This software contains proprietary and confidential information,
 including trade secrets, belonging to Gaussian, Inc.
  
 This software is provided under written license and may be
 used, copied, transmitted, or stored only in accord with that
 written license.
  
 The following legend is applicable only to US Government
 contracts under FAR:
  
                    RESTRICTED RIGHTS LEGEND
  
 Use, reproduction and disclosure by the US Government is
 subject to restrictions as set forth in subparagraphs (a)
 and (c) of the Commercial Computer Software - Restricted
 Rights clause in FAR 52.227-19.
  
 Gaussian, Inc.
 340 Quinnipiac St., Bldg. 40, Wallingford CT 06492
  
  
 ---------------------------------------------------------------
 Warning -- This program may not be used in any manner that
 competes with the business of Gaussian, Inc. or will provide
 assistance to any competitor of Gaussian, Inc.  The licensee
 of this program is prohibited from giving any competitor of
 Gaussian, Inc. access to this program.  By using this program,
 the user acknowledges that Gaussian, Inc. is engaged in the
 business of creating and licensing software in the field of
 computational chemistry and represents and warrants to the
 licensee that it is not a competitor of Gaussian, Inc. and that
 it will not use this program in any manner prohibited above.
 ---------------------------------------------------------------
  

 Cite this work as:
 Gaussian 16, Revision C.01,
 M. J. Frisch, G. W. Trucks, H. B. Schlegel, G. E. Scuseria, 
 M. A. Robb, J. R. Cheeseman, G. Scalmani, V. Barone, 
 G. A. Petersson, H. Nakatsuji, X. Li, M. Caricato, A. V. Marenich, 
 J. Bloino, B. G. Janesko, R. Gomperts, B. Mennucci, H. P. Hratchian, 
 J. V. Ortiz, A. F. Izmaylov, J. L. Sonnenberg, D. Williams-Young, 
 F. Ding, F. Lipparini, F. Egidi, J. Goings, B. Peng, A. Petrone, 
 T. Henderson, D. Ranasinghe, V. G. Zakrzewski, J. Gao, N. Rega, 
 G. Zheng, W. Liang, M. Hada, M. Ehara, K. Toyota, R. Fukuda, 
 J. Hasegawa, M. Ishida, T. Nakajima, Y. Honda, O. Kitao, H. Nakai, 
 T. Vreven, K. Throssell, J. A. Montgomery, Jr., J. E. Peralta, 
 F. Ogliaro, M. J. Bearpark, J. J. Heyd, E. N. Brothers, K. N. Kudin, 
 V. N. Staroverov, T. A. Keith, R. Kobayashi, J. Normand, 
 K. Raghavachari, A. P. Rendell, J. C. Burant, S. S. Iyengar, 
 J. Tomasi, M. Cossi, J. M. Millam, M. Klene, C. Adamo, R. Cammi, 
 J. W. Ochterski, R. L. Martin, K. Morokuma, O. Farkas, 
 J. B. Foresman, and D. J. Fox, Gaussian, Inc., Wallingford CT, 2019.
 
 ******************************************
 Gaussian 16:  ES64L-G16RevC.01  3-Jul-2019
                27-May-2022 
 ******************************************
 %mem=8gb
 %nproc=4
 Will use up to    4 processors via shared memory.
 %chk=conf-291.chk
 ----------------------------------------------------------------------
 # B3LYP/6-31G* empiricaldispersion=gd3 guess=read geom=check nosymm in
 tegral(ultrafinegrid)
 ----------------------------------------------------------------------
 1/29=2,38=1,172=1/1;
 2/12=2,15=1,40=1/2;
 3/5=1,6=6,7=1,11=2,14=-4,25=1,30=1,74=-5,75=-5,116=-2,124=31/1,2,3;
 4/5=1/1;
 5/5=2,38=6/2;
 6/7=2,8=2,9=2,10=2,28=1/1;
 99/5=1,9=1/99;
 ------------------------------------------------------
 Candidate Structure: Conf:291 Charge calc in gas phase
 ------------------------------------------------------
 Structure from the checkpoint file:  "conf-291.chk"
 Charge =  1 Multiplicity = 1
 Redundant internal coordinates found in file.  (old form).
 N,0,12.8305871419,30.6835596784,12.4529651665
 C,0,12.9295840669,30.8478897241,10.9499321808
 C,0,13.3233166573,32.3097680017,10.6026343811
 O,0,14.5112064904,32.5346774208,10.4190485921
 C,0,11.6995641186,30.2769105149,10.2201260794
 C,0,11.8372469748,28.8314371088,9.7024872823
 C,0,11.7264956921,27.7318126715,10.7325546524
 O,0,11.0437140035,26.7445931545,10.6405247819
 O,0,12.5257295111,27.9489098868,11.8361593998
 H,0,12.4258571813,27.1638338295,12.4112019845
 H,0,13.6635501756,31.072451286,12.918509977
 H,0,13.8234846686,30.2842560404,10.6768498415
 H,0,10.8020272006,30.3574817263,10.8378984712
 H,0,11.5213214402,30.9160329197,9.3501013872
 H,0,12.7974141888,28.7077351101,9.1840879615
 H,0,11.0520839612,28.6338251289,8.96973322
 H,0,12.0348650881,31.1862726812,12.8789053005
 H,0,12.7466783942,29.6760290098,12.6627810189
 N,0,12.3459116475,33.2312321459,10.4043820117
 C,0,11.0377286869,33.3661645065,11.0344512564
 C,0,10.0899258364,33.8865448114,9.9315513226
 O,0,10.5487302641,34.5412428855,9.0065530698
 C,0,11.137359702,34.3086192042,12.2719546365
 C,0,12.0424203997,33.7303902131,13.3183809034
 C,0,13.4124307225,33.815051121,13.3636304126
 C,0,11.6471085102,32.8313661552,14.3840657497
 C,0,12.836849868,32.4092340618,15.0416151923
 C,0,10.4072740041,32.3362719379,14.8356553182
 N,0,13.9071939147,32.9843787326,14.3622539063
 C,0,12.8211120076,31.5210812918,16.1215249625
 C,0,10.3858311846,31.4495071102,15.9064118434
 C,0,11.5803586104,31.0496731894,16.5407677281
 H,0,12.669100808,34.082720782,9.9522321048
 H,0,10.6897875124,32.3872348862,11.3687540395
 H,0,10.1355017751,34.4696069161,12.6858259195
 H,0,11.4965525349,35.2836429897,11.924513392
 H,0,14.0917503157,34.3661673491,12.728424663
 H,0,14.8391807785,33.0702861829,14.746018097
 H,0,9.4741661789,32.67458759,14.3946877933
 H,0,13.7381874045,31.221008885,16.6209095393
 H,0,9.4304066803,31.0693515364,16.2495119266
 H,0,11.5299444353,30.3660386218,17.3827905898
 N,0,8.7843882341,33.4838141943,9.966177151
 C,0,7.9131258015,33.2694243499,11.1147185569
 C,0,6.8451578506,32.2426378923,10.6867107298
 O,0,6.3704850265,32.34507353,9.5599032949
 C,0,7.2210537792,34.610047886,11.5287581993
 C,0,6.6821848082,35.4329686462,10.362898858
 O,0,6.1504495572,34.2268575576,12.402638516
 H,0,5.7057423765,35.0183425886,12.7453452376
 H,0,8.2680673812,33.7370015225,9.1277021388
 H,0,8.4946966309,32.9059155055,11.9634941477
 H,0,7.9647948612,35.2009349448,12.0863576719
 H,0,6.1284941079,36.2946996163,10.7526128076
 H,0,6.0091938731,34.8311661066,9.7468480424
 H,0,7.4938573198,35.8257285241,9.7431125979
 N,0,6.4010136777,31.3088504633,11.5809853618
 C,0,7.1412464223,30.603588373,12.6359519422
 C,0,7.1689797996,31.1996749392,14.052112793
 O,0,7.557470186,30.493641423,14.9609785188
 C,0,8.6003346602,30.2122832345,12.2554067574
 C,0,9.0230136253,28.8088141876,12.7086111324
 C,0,8.2980802961,27.6540672664,11.9734587583
 N,0,8.1559190774,27.8910875852,10.5446174319
 C,0,7.022635317,28.4827493392,9.9907022499
 N,0,5.8566474078,28.6153157265,10.5320069558
 N,0,7.2483600303,29.0005320857,8.7272765582
 O,0,6.8682749394,32.4797947516,14.2541023423
 H,0,6.4775645418,32.9468426003,13.4718025582
 H,0,5.7532174003,30.6618151365,11.1159395264
 H,0,6.5793292112,29.6781075678,12.7582337026
 H,0,9.2999181836,30.9391435181,12.6878264529
 H,0,8.685093422,30.2798526811,11.1660378329
 H,0,10.1041796422,28.7112399925,12.5398272894
 H,0,8.8640699151,28.7164466878,13.7877659853
 H,0,8.8597793574,26.7280483919,12.1172374721
 H,0,7.3171718968,27.4843008022,12.4284858758
 H,0,8.7660878628,27.3738695617,9.9258170044
 H,0,5.7431734758,27.9980527541,11.3355879386
 H,0,8.1232757787,29.4930698548,8.5973489033
 H,0,6.4493240282,29.5078606718,8.3631817393
 Recover connectivity data from disk.
                           ----------------------------
                           !    Current Parameters    !
                           ! (Angstroms and Degrees)  !
 --------------------------                            --------------------------
 ! Name  Definition              Value                                          !
 --------------------------------------------------------------------------------
 ! R1    R(1,2)                  1.5152                                         !
 ! R2    R(1,11)                 1.0304                                         !
 ! R3    R(1,17)                 1.0331                                         !
 ! R4    R(1,18)                 1.0326                                         !
 ! R5    R(2,3)                  1.5533                                         !
 ! R6    R(2,5)                  1.54                                           !
 ! R7    R(2,12)                 1.0915                                         !
 ! R8    R(3,4)                  1.2229                                         !
 ! R9    R(3,19)                 1.3578                                         !
 ! R10   R(5,6)                  1.5415                                         !
 ! R11   R(5,13)                 1.0926                                         !
 ! R12   R(5,14)                 1.0942                                         !
 ! R13   R(6,7)                  1.5108                                         !
 ! R14   R(6,15)                 1.0982                                         !
 ! R15   R(6,16)                 1.092                                          !
 ! R16   R(7,8)                  1.2039                                         !
 ! R17   R(7,9)                  1.3798                                         !
 ! R18   R(9,10)                 0.9783                                         !
 ! R19   R(19,20)                1.4583                                         !
 ! R20   R(19,33)                1.0168                                         !
 ! R21   R(20,21)                1.5445                                         !
 ! R22   R(20,23)                1.5587                                         !
 ! R23   R(20,34)                1.0914                                         !
 ! R24   R(21,22)                1.2226                                         !
 ! R25   R(21,43)                1.3667                                         !
 ! R26   R(23,24)                1.4995                                         !
 ! R27   R(23,35)                1.0959                                         !
 ! R28   R(23,36)                1.0956                                         !
 ! R29   R(24,25)                1.3734                                         !
 ! R30   R(24,26)                1.4492                                         !
 ! R31   R(25,29)                1.39                                           !
 ! R32   R(25,37)                1.0811                                         !
 ! R33   R(26,27)                1.4234                                         !
 ! R34   R(26,28)                1.4093                                         !
 ! R35   R(27,29)                1.3921                                         !
 ! R36   R(27,30)                1.3983                                         !
 ! R37   R(28,31)                1.3904                                         !
 ! R38   R(28,39)                1.0861                                         !
 ! R39   R(29,38)                1.0116                                         !
 ! R40   R(30,32)                1.3919                                         !
 ! R41   R(30,40)                1.0865                                         !
 ! R42   R(31,32)                1.4104                                         !
 ! R43   R(31,41)                1.084                                          !
 ! R44   R(32,42)                1.0858                                         !
 ! R45   R(43,44)                1.4575                                         !
 ! R46   R(43,51)                1.0167                                         !
 ! R47   R(44,45)                1.5421                                         !
 ! R48   R(44,47)                1.5645                                         !
 ! R49   R(44,52)                1.0912                                         !
 ! R50   R(45,46)                1.227                                          !
 ! R51   R(45,57)                1.3671                                         !
 ! R52   R(47,48)                1.5254                                         !
 ! R53   R(47,49)                1.4341                                         !
 ! R54   R(47,53)                1.1015                                         !
 ! R55   R(48,54)                1.0959                                         !
 ! R56   R(48,55)                1.093                                          !
 ! R57   R(48,56)                1.0942                                         !
 ! R58   R(49,50)                0.9704                                         !
 ! R59   R(57,58)                1.4691                                         !
 ! R60   R(57,70)                1.0269                                         !
 ! R61   R(58,59)                1.5367                                         !
 ! R62   R(58,61)                1.5578                                         !
 ! R63   R(58,71)                1.0896                                         !
 ! R64   R(59,60)                1.2147                                         !
 ! R65   R(59,68)                1.3304                                         !
 ! R66   R(61,62)                1.5342                                         !
 ! R67   R(61,72)                1.0976                                         !
 ! R68   R(61,73)                1.0947                                         !
 ! R69   R(62,63)                1.549                                          !
 ! R70   R(62,74)                1.0986                                         !
 ! R71   R(62,75)                1.0947                                         !
 ! R72   R(63,64)                1.4553                                         !
 ! R73   R(63,76)                1.0926                                         !
 ! R74   R(63,77)                1.0946                                         !
 ! R75   R(64,65)                1.3933                                         !
 ! R76   R(64,78)                1.0113                                         !
 ! R77   R(65,66)                1.2923                                         !
 ! R78   R(65,67)                1.3839                                         !
 ! R79   R(66,79)                1.0196                                         !
 ! R80   R(67,80)                1.0124                                         !
 ! R81   R(67,81)                1.0141                                         !
 ! R82   R(68,69)                0.9914                                         !
 ! A1    A(2,1,11)             110.7575                                         !
 ! A2    A(2,1,17)             113.9864                                         !
 ! A3    A(2,1,18)             108.2218                                         !
 ! A4    A(11,1,17)            104.6373                                         !
 ! A5    A(11,1,18)            110.0074                                         !
 ! A6    A(17,1,18)            109.174                                          !
 ! A7    A(1,2,3)              109.9024                                         !
 ! A8    A(1,2,5)              112.1909                                         !
 ! A9    A(1,2,12)             104.2224                                         !
 ! A10   A(3,2,5)              116.452                                          !
 ! A11   A(3,2,12)             102.8539                                         !
 ! A12   A(5,2,12)             110.1272                                         !
 ! A13   A(2,3,4)              116.9298                                         !
 ! A14   A(2,3,19)             119.2663                                         !
 ! A15   A(4,3,19)             123.5394                                         !
 ! A16   A(2,5,6)              115.8146                                         !
 ! A17   A(2,5,13)             111.1517                                         !
 ! A18   A(2,5,14)             106.8798                                         !
 ! A19   A(6,5,13)             109.414                                          !
 ! A20   A(6,5,14)             107.1734                                         !
 ! A21   A(13,5,14)            105.8252                                         !
 ! A22   A(5,6,7)              116.5514                                         !
 ! A23   A(5,6,15)             110.0131                                         !
 ! A24   A(5,6,16)             109.317                                          !
 ! A25   A(7,6,15)             107.6957                                         !
 ! A26   A(7,6,16)             105.8479                                         !
 ! A27   A(15,6,16)            106.9487                                         !
 ! A28   A(6,7,8)              125.8968                                         !
 ! A29   A(6,7,9)              112.8518                                         !
 ! A30   A(8,7,9)              121.2446                                         !
 ! A31   A(7,9,10)             106.5441                                         !
 ! A32   A(3,19,20)            130.1995                                         !
 ! A33   A(3,19,33)            113.8546                                         !
 ! A34   A(20,19,33)           113.5641                                         !
 ! A35   A(19,20,21)           105.8517                                         !
 ! A36   A(19,20,23)           109.9767                                         !
 ! A37   A(19,20,34)           109.5937                                         !
 ! A38   A(21,20,23)           113.7305                                         !
 ! A39   A(21,20,34)           108.9835                                         !
 ! A40   A(23,20,34)           108.6343                                         !
 ! A41   A(20,21,22)           119.3663                                         !
 ! A42   A(20,21,43)           117.9583                                         !
 ! A43   A(22,21,43)           122.3742                                         !
 ! A44   A(20,23,24)           111.0675                                         !
 ! A45   A(20,23,35)           109.2826                                         !
 ! A46   A(20,23,36)           107.8947                                         !
 ! A47   A(24,23,35)           110.1752                                         !
 ! A48   A(24,23,36)           111.5054                                         !
 ! A49   A(35,23,36)           106.783                                          !
 ! A50   A(23,24,25)           126.9646                                         !
 ! A51   A(23,24,26)           125.9973                                         !
 ! A52   A(25,24,26)           106.6261                                         !
 ! A53   A(24,25,29)           109.9933                                         !
 ! A54   A(24,25,37)           129.7108                                         !
 ! A55   A(29,25,37)           120.2071                                         !
 ! A56   A(24,26,27)           107.1984                                         !
 ! A57   A(24,26,28)           133.9099                                         !
 ! A58   A(27,26,28)           118.8888                                         !
 ! A59   A(26,27,29)           107.1389                                         !
 ! A60   A(26,27,30)           122.3934                                         !
 ! A61   A(29,27,30)           130.3878                                         !
 ! A62   A(26,28,31)           118.9707                                         !
 ! A63   A(26,28,39)           121.0834                                         !
 ! A64   A(31,28,39)           119.8726                                         !
 ! A65   A(25,29,27)           108.8948                                         !
 ! A66   A(25,29,38)           123.3504                                         !
 ! A67   A(27,29,38)           123.9404                                         !
 ! A68   A(27,30,32)           117.2425                                         !
 ! A69   A(27,30,40)           121.3923                                         !
 ! A70   A(32,30,40)           121.3608                                         !
 ! A71   A(28,31,32)           120.9376                                         !
 ! A72   A(28,31,41)           118.7501                                         !
 ! A73   A(32,31,41)           120.3122                                         !
 ! A74   A(30,32,31)           121.5664                                         !
 ! A75   A(30,32,42)           119.2228                                         !
 ! A76   A(31,32,42)           119.2076                                         !
 ! A77   A(21,43,44)           129.3725                                         !
 ! A78   A(21,43,51)           113.0063                                         !
 ! A79   A(44,43,51)           112.5157                                         !
 ! A80   A(43,44,45)           107.0509                                         !
 ! A81   A(43,44,47)           110.3004                                         !
 ! A82   A(43,44,52)           110.0815                                         !
 ! A83   A(45,44,47)           109.7343                                         !
 ! A84   A(45,44,52)           111.2951                                         !
 ! A85   A(47,44,52)           108.3825                                         !
 ! A86   A(44,45,46)           117.854                                          !
 ! A87   A(44,45,57)           119.8835                                         !
 ! A88   A(46,45,57)           122.1456                                         !
 ! A89   A(44,47,48)           114.6002                                         !
 ! A90   A(44,47,49)           105.2205                                         !
 ! A91   A(44,47,53)           107.1557                                         !
 ! A92   A(48,47,49)           110.2523                                         !
 ! A93   A(48,47,53)           109.6361                                         !
 ! A94   A(49,47,53)           109.8124                                         !
 ! A95   A(47,48,54)           109.323                                          !
 ! A96   A(47,48,55)           110.5652                                         !
 ! A97   A(47,48,56)           111.3785                                         !
 ! A98   A(54,48,55)           108.8017                                         !
 ! A99   A(54,48,56)           107.0956                                         !
 ! A100  A(55,48,56)           109.5809                                         !
 ! A101  A(47,49,50)           109.8391                                         !
 ! A102  A(45,57,58)           129.3417                                         !
 ! A103  A(45,57,70)           109.8207                                         !
 ! A104  A(58,57,70)           109.9114                                         !
 ! A105  A(57,58,59)           118.9884                                         !
 ! A106  A(57,58,61)           114.6511                                         !
 ! A107  A(57,58,71)           103.2085                                         !
 ! A108  A(59,58,61)           107.7965                                         !
 ! A109  A(59,58,71)           103.6123                                         !
 ! A110  A(61,58,71)           107.2825                                         !
 ! A111  A(58,59,60)           118.0234                                         !
 ! A112  A(58,59,68)           120.6017                                         !
 ! A113  A(60,59,68)           121.1966                                         !
 ! A114  A(58,61,62)           114.5609                                         !
 ! A115  A(58,61,72)           109.5356                                         !
 ! A116  A(58,61,73)           107.4629                                         !
 ! A117  A(62,61,72)           108.2895                                         !
 ! A118  A(62,61,73)           109.213                                          !
 ! A119  A(72,61,73)           107.5664                                         !
 ! A120  A(61,62,63)           114.3821                                         !
 ! A121  A(61,62,74)           107.8783                                         !
 ! A122  A(61,62,75)           109.1712                                         !
 ! A123  A(63,62,74)           108.7504                                         !
 ! A124  A(63,62,75)           109.6945                                         !
 ! A125  A(74,62,75)           106.6694                                         !
 ! A126  A(62,63,64)           112.9709                                         !
 ! A127  A(62,63,76)           109.1948                                         !
 ! A128  A(62,63,77)           109.7388                                         !
 ! A129  A(64,63,76)           108.5095                                         !
 ! A130  A(64,63,77)           110.2351                                         !
 ! A131  A(76,63,77)           105.9362                                         !
 ! A132  A(63,64,65)           122.6118                                         !
 ! A133  A(63,64,78)           117.2914                                         !
 ! A134  A(65,64,78)           117.6897                                         !
 ! A135  A(64,65,66)           127.6556                                         !
 ! A136  A(64,65,67)           112.9019                                         !
 ! A137  A(66,65,67)           119.4171                                         !
 ! A138  A(65,66,79)           111.6182                                         !
 ! A139  A(65,67,80)           116.1124                                         !
 ! A140  A(65,67,81)           112.7322                                         !
 ! A141  A(80,67,81)           113.0455                                         !
 ! A142  A(59,68,69)           114.9983                                         !
 ! D1    D(11,1,2,3)           -48.7492                                         !
 ! D2    D(11,1,2,5)          -179.9971                                         !
 ! D3    D(11,1,2,12)           60.8744                                         !
 ! D4    D(17,1,2,3)            68.9238                                         !
 ! D5    D(17,1,2,5)           -62.3241                                         !
 ! D6    D(17,1,2,12)          178.5474                                         !
 ! D7    D(18,1,2,3)          -169.412                                          !
 ! D8    D(18,1,2,5)            59.3401                                         !
 ! D9    D(18,1,2,12)          -59.7884                                         !
 ! D10   D(1,2,3,4)             95.3497                                         !
 ! D11   D(1,2,3,19)           -90.3479                                         !
 ! D12   D(5,2,3,4)           -135.6899                                         !
 ! D13   D(5,2,3,19)            38.6126                                         !
 ! D14   D(12,2,3,4)           -15.1756                                         !
 ! D15   D(12,2,3,19)          159.1269                                         !
 ! D16   D(1,2,5,6)            -95.0081                                         !
 ! D17   D(1,2,5,13)            30.6588                                         !
 ! D18   D(1,2,5,14)           145.6811                                         !
 ! D19   D(3,2,5,6)            137.1424                                         !
 ! D20   D(3,2,5,13)           -97.1907                                         !
 ! D21   D(3,2,5,14)            17.8316                                         !
 ! D22   D(12,2,5,6)            20.5922                                         !
 ! D23   D(12,2,5,13)          146.2591                                         !
 ! D24   D(12,2,5,14)          -98.7186                                         !
 ! D25   D(2,3,19,20)           33.9905                                         !
 ! D26   D(2,3,19,33)         -164.9312                                         !
 ! D27   D(4,3,19,20)         -152.1053                                         !
 ! D28   D(4,3,19,33)            8.973                                          !
 ! D29   D(2,5,6,7)             76.4003                                         !
 ! D30   D(2,5,6,15)           -46.5316                                         !
 ! D31   D(2,5,6,16)          -163.6887                                         !
 ! D32   D(13,5,6,7)           -50.1471                                         !
 ! D33   D(13,5,6,15)         -173.079                                          !
 ! D34   D(13,5,6,16)           69.7639                                         !
 ! D35   D(14,5,6,7)          -164.4495                                         !
 ! D36   D(14,5,6,15)           72.6185                                         !
 ! D37   D(14,5,6,16)          -44.5386                                         !
 ! D38   D(5,6,7,8)            131.6816                                         !
 ! D39   D(5,6,7,9)            -49.2604                                         !
 ! D40   D(15,6,7,8)          -104.1921                                         !
 ! D41   D(15,6,7,9)            74.866                                          !
 ! D42   D(16,6,7,8)             9.9285                                         !
 ! D43   D(16,6,7,9)          -171.0135                                         !
 ! D44   D(6,7,9,10)          -176.5886                                         !
 ! D45   D(8,7,9,10)             2.5189                                         !
 ! D46   D(3,19,20,21)        -144.5203                                         !
 ! D47   D(3,19,20,23)          92.2262                                         !
 ! D48   D(3,19,20,34)         -27.1323                                         !
 ! D49   D(33,19,20,21)         54.3578                                         !
 ! D50   D(33,19,20,23)        -68.8957                                         !
 ! D51   D(33,19,20,34)        171.7457                                         !
 ! D52   D(19,20,21,22)        -26.8555                                         !
 ! D53   D(19,20,21,43)        146.9938                                         !
 ! D54   D(23,20,21,22)         93.9929                                         !
 ! D55   D(23,20,21,43)        -92.1578                                         !
 ! D56   D(34,20,21,22)       -144.6521                                         !
 ! D57   D(34,20,21,43)         29.1973                                         !
 ! D58   D(19,20,23,24)        -62.9801                                         !
 ! D59   D(19,20,23,35)        175.2619                                         !
 ! D60   D(19,20,23,36)         59.5132                                         !
 ! D61   D(21,20,23,24)        178.5121                                         !
 ! D62   D(21,20,23,35)         56.7541                                         !
 ! D63   D(21,20,23,36)        -58.9946                                         !
 ! D64   D(34,20,23,24)         56.9626                                         !
 ! D65   D(34,20,23,35)        -64.7954                                         !
 ! D66   D(34,20,23,36)        179.4559                                         !
 ! D67   D(20,21,43,44)         37.3436                                         !
 ! D68   D(20,21,43,51)       -170.2068                                         !
 ! D69   D(22,21,43,44)       -149.004                                          !
 ! D70   D(22,21,43,51)          3.4456                                         !
 ! D71   D(20,23,24,25)         83.1474                                         !
 ! D72   D(20,23,24,26)        -88.4835                                         !
 ! D73   D(35,23,24,25)       -155.617                                          !
 ! D74   D(35,23,24,26)         32.7521                                         !
 ! D75   D(36,23,24,25)        -37.2304                                         !
 ! D76   D(36,23,24,26)        151.1387                                         !
 ! D77   D(23,24,25,29)       -170.7357                                         !
 ! D78   D(23,24,25,37)          5.775                                          !
 ! D79   D(26,24,25,29)          2.2051                                         !
 ! D80   D(26,24,25,37)        178.7159                                         !
 ! D81   D(23,24,26,27)        173.2117                                         !
 ! D82   D(23,24,26,28)         -6.1338                                         !
 ! D83   D(25,24,26,27)          0.1828                                         !
 ! D84   D(25,24,26,28)       -179.1626                                         !
 ! D85   D(24,25,29,27)         -3.8421                                         !
 ! D86   D(24,25,29,38)       -162.5485                                         !
 ! D87   D(37,25,29,27)        179.2635                                         !
 ! D88   D(37,25,29,38)         20.5571                                         !
 ! D89   D(24,26,27,29)         -2.4603                                         !
 ! D90   D(24,26,27,30)       -179.5214                                         !
 ! D91   D(28,26,27,29)        177.0012                                         !
 ! D92   D(28,26,27,30)         -0.06                                           !
 ! D93   D(24,26,28,31)        179.142                                          !
 ! D94   D(24,26,28,39)         -3.9753                                         !
 ! D95   D(27,26,28,31)         -0.1438                                         !
 ! D96   D(27,26,28,39)        176.7388                                         !
 ! D97   D(26,27,29,25)          3.839                                          !
 ! D98   D(26,27,29,38)        162.3917                                         !
 ! D99   D(30,27,29,25)       -179.4193                                         !
 ! D100  D(30,27,29,38)        -20.8666                                         !
 ! D101  D(26,27,30,32)          0.159                                          !
 ! D102  D(26,27,30,40)       -179.0866                                         !
 ! D103  D(29,27,30,32)       -176.153                                          !
 ! D104  D(29,27,30,40)          4.6013                                         !
 ! D105  D(26,28,31,32)          0.2452                                         !
 ! D106  D(26,28,31,41)       -179.8758                                         !
 ! D107  D(39,28,31,32)       -176.676                                          !
 ! D108  D(39,28,31,41)          3.203                                          !
 ! D109  D(27,30,32,31)         -0.0574                                         !
 ! D110  D(27,30,32,42)       -179.4044                                         !
 ! D111  D(40,30,32,31)        179.1885                                         !
 ! D112  D(40,30,32,42)         -0.1585                                         !
 ! D113  D(28,31,32,30)         -0.1458                                         !
 ! D114  D(28,31,32,42)        179.2014                                         !
 ! D115  D(41,31,32,30)        179.9771                                         !
 ! D116  D(41,31,32,42)         -0.6758                                         !
 ! D117  D(21,43,44,45)       -154.0832                                         !
 ! D118  D(21,43,44,47)         86.5743                                         !
 ! D119  D(21,43,44,52)        -32.9798                                         !
 ! D120  D(51,43,44,45)         53.3601                                         !
 ! D121  D(51,43,44,47)        -65.9824                                         !
 ! D122  D(51,43,44,52)        174.4635                                         !
 ! D123  D(43,44,45,46)        -40.6084                                         !
 ! D124  D(43,44,45,57)        143.2383                                         !
 ! D125  D(47,44,45,46)         79.0983                                         !
 ! D126  D(47,44,45,57)        -97.055                                          !
 ! D127  D(52,44,45,46)       -160.9404                                         !
 ! D128  D(52,44,45,57)         22.9063                                         !
 ! D129  D(43,44,47,48)         43.8565                                         !
 ! D130  D(43,44,47,49)        165.1295                                         !
 ! D131  D(43,44,47,53)        -78.0234                                         !
 ! D132  D(45,44,47,48)        -73.844                                          !
 ! D133  D(45,44,47,49)         47.4291                                         !
 ! D134  D(45,44,47,53)        164.2761                                         !
 ! D135  D(52,44,47,48)        164.4346                                         !
 ! D136  D(52,44,47,49)        -74.2924                                         !
 ! D137  D(52,44,47,53)         42.5547                                         !
 ! D138  D(44,45,57,58)        -35.7109                                         !
 ! D139  D(44,45,57,70)       -175.4881                                         !
 ! D140  D(46,45,57,58)        148.3062                                         !
 ! D141  D(46,45,57,70)          8.529                                          !
 ! D142  D(44,47,48,54)        174.2175                                         !
 ! D143  D(44,47,48,55)         54.4598                                         !
 ! D144  D(44,47,48,56)        -67.6314                                         !
 ! D145  D(49,47,48,54)         55.7477                                         !
 ! D146  D(49,47,48,55)        -64.01                                           !
 ! D147  D(49,47,48,56)        173.8988                                         !
 ! D148  D(53,47,48,54)        -65.2649                                         !
 ! D149  D(53,47,48,55)        174.9773                                         !
 ! D150  D(53,47,48,56)         52.8862                                         !
 ! D151  D(44,47,49,50)        176.5463                                         !
 ! D152  D(48,47,49,50)        -59.3818                                         !
 ! D153  D(53,47,49,50)         61.5255                                         !
 ! D154  D(45,57,58,59)         92.0987                                         !
 ! D155  D(45,57,58,61)        -37.5968                                         !
 ! D156  D(45,57,58,71)       -153.922                                          !
 ! D157  D(70,57,58,59)       -128.1519                                         !
 ! D158  D(70,57,58,61)        102.1526                                         !
 ! D159  D(70,57,58,71)        -14.1726                                         !
 ! D160  D(57,58,59,60)        166.1759                                         !
 ! D161  D(57,58,59,68)        -18.6184                                         !
 ! D162  D(61,58,59,60)        -61.0866                                         !
 ! D163  D(61,58,59,68)        114.119                                          !
 ! D164  D(71,58,59,60)         52.4142                                         !
 ! D165  D(71,58,59,68)       -132.3802                                         !
 ! D166  D(57,58,61,62)       -138.2514                                         !
 ! D167  D(57,58,61,72)         99.8601                                         !
 ! D168  D(57,58,61,73)        -16.7131                                         !
 ! D169  D(59,58,61,62)         86.7299                                         !
 ! D170  D(59,58,61,72)        -35.1586                                         !
 ! D171  D(59,58,61,73)       -151.7317                                         !
 ! D172  D(71,58,61,62)        -24.2928                                         !
 ! D173  D(71,58,61,72)       -146.1813                                         !
 ! D174  D(71,58,61,73)         97.2455                                         !
 ! D175  D(58,59,68,69)         10.6336                                         !
 ! D176  D(60,59,68,69)       -174.3145                                         !
 ! D177  D(58,61,62,63)         68.2672                                         !
 ! D178  D(58,61,62,74)       -170.5994                                         !
 ! D179  D(58,61,62,75)        -55.0525                                         !
 ! D180  D(72,61,62,63)       -169.167                                          !
 ! D181  D(72,61,62,74)        -48.0336                                         !
 ! D182  D(72,61,62,75)         67.5133                                         !
 ! D183  D(73,61,62,63)        -52.3079                                         !
 ! D184  D(73,61,62,74)         68.8256                                         !
 ! D185  D(73,61,62,75)       -175.6276                                         !
 ! D186  D(61,62,63,64)         41.6065                                         !
 ! D187  D(61,62,63,76)        162.4481                                         !
 ! D188  D(61,62,63,77)        -81.8433                                         !
 ! D189  D(74,62,63,64)        -79.0445                                         !
 ! D190  D(74,62,63,76)         41.7971                                         !
 ! D191  D(74,62,63,77)        157.5057                                         !
 ! D192  D(75,62,63,64)        164.6437                                         !
 ! D193  D(75,62,63,76)        -74.5146                                         !
 ! D194  D(75,62,63,77)         41.194                                          !
 ! D195  D(62,63,64,65)        -93.1377                                         !
 ! D196  D(62,63,64,78)        104.8973                                         !
 ! D197  D(76,63,64,65)        145.6318                                         !
 ! D198  D(76,63,64,78)        -16.3332                                         !
 ! D199  D(77,63,64,65)         30.0374                                         !
 ! D200  D(77,63,64,78)       -131.9276                                         !
 ! D201  D(63,64,65,66)        -17.6051                                         !
 ! D202  D(63,64,65,67)        160.5304                                         !
 ! D203  D(78,64,65,66)        144.2923                                         !
 ! D204  D(78,64,65,67)        -37.5722                                         !
 ! D205  D(64,65,66,79)        -16.7029                                         !
 ! D206  D(67,65,66,79)        165.2689                                         !
 ! D207  D(64,65,67,80)        -41.8025                                         !
 ! D208  D(64,65,67,81)       -174.493                                          !
 ! D209  D(66,65,67,80)        136.503                                          !
 ! D210  D(66,65,67,81)          3.8124                                         !
 --------------------------------------------------------------------------------
 Symmetry turned off by external request.
 Stoichiometry    C26H39N8O8(1+)
 Framework group  C1[X(C26H39N8O8)]
 Deg. of freedom   237
 Full point group                 C1      NOp   1
                          Input orientation:                          
 ---------------------------------------------------------------------
 Center     Atomic      Atomic             Coordinates (Angstroms)
 Number     Number       Type             X           Y           Z
 ---------------------------------------------------------------------
      1          7           0       12.830587   30.683560   12.452965
      2          6           0       12.929584   30.847890   10.949932
      3          6           0       13.323317   32.309768   10.602634
      4          8           0       14.511206   32.534677   10.419049
      5          6           0       11.699564   30.276911   10.220126
      6          6           0       11.837247   28.831437    9.702487
      7          6           0       11.726496   27.731813   10.732555
      8          8           0       11.043714   26.744593   10.640525
      9          8           0       12.525730   27.948910   11.836159
     10          1           0       12.425857   27.163834   12.411202
     11          1           0       13.663550   31.072451   12.918510
     12          1           0       13.823485   30.284256   10.676850
     13          1           0       10.802027   30.357482   10.837898
     14          1           0       11.521321   30.916033    9.350101
     15          1           0       12.797414   28.707735    9.184088
     16          1           0       11.052084   28.633825    8.969733
     17          1           0       12.034865   31.186273   12.878905
     18          1           0       12.746678   29.676029   12.662781
     19          7           0       12.345912   33.231232   10.404382
     20          6           0       11.037729   33.366165   11.034451
     21          6           0       10.089926   33.886545    9.931551
     22          8           0       10.548730   34.541243    9.006553
     23          6           0       11.137360   34.308619   12.271955
     24          6           0       12.042420   33.730390   13.318381
     25          6           0       13.412431   33.815051   13.363630
     26          6           0       11.647109   32.831366   14.384066
     27          6           0       12.836850   32.409234   15.041615
     28          6           0       10.407274   32.336272   14.835655
     29          7           0       13.907194   32.984379   14.362254
     30          6           0       12.821112   31.521081   16.121525
     31          6           0       10.385831   31.449507   15.906412
     32          6           0       11.580359   31.049673   16.540768
     33          1           0       12.669101   34.082721    9.952232
     34          1           0       10.689788   32.387235   11.368754
     35          1           0       10.135502   34.469607   12.685826
     36          1           0       11.496553   35.283643   11.924513
     37          1           0       14.091750   34.366167   12.728425
     38          1           0       14.839181   33.070286   14.746018
     39          1           0        9.474166   32.674588   14.394688
     40          1           0       13.738187   31.221009   16.620910
     41          1           0        9.430407   31.069352   16.249512
     42          1           0       11.529944   30.366039   17.382791
     43          7           0        8.784388   33.483814    9.966177
     44          6           0        7.913126   33.269424   11.114719
     45          6           0        6.845158   32.242638   10.686711
     46          8           0        6.370485   32.345074    9.559903
     47          6           0        7.221054   34.610048   11.528758
     48          6           0        6.682185   35.432969   10.362899
     49          8           0        6.150450   34.226858   12.402639
     50          1           0        5.705742   35.018343   12.745345
     51          1           0        8.268067   33.737002    9.127702
     52          1           0        8.494697   32.905916   11.963494
     53          1           0        7.964795   35.200935   12.086358
     54          1           0        6.128494   36.294700   10.752613
     55          1           0        6.009194   34.831166    9.746848
     56          1           0        7.493857   35.825729    9.743113
     57          7           0        6.401014   31.308850   11.580985
     58          6           0        7.141246   30.603588   12.635952
     59          6           0        7.168980   31.199675   14.052113
     60          8           0        7.557470   30.493641   14.960979
     61          6           0        8.600335   30.212283   12.255407
     62          6           0        9.023014   28.808814   12.708611
     63          6           0        8.298080   27.654067   11.973459
     64          7           0        8.155919   27.891088   10.544617
     65          6           0        7.022635   28.482749    9.990702
     66          7           0        5.856647   28.615316   10.532007
     67          7           0        7.248360   29.000532    8.727277
     68          8           0        6.868275   32.479795   14.254102
     69          1           0        6.477565   32.946843   13.471803
     70          1           0        5.753217   30.661815   11.115940
     71          1           0        6.579329   29.678108   12.758234
     72          1           0        9.299918   30.939144   12.687826
     73          1           0        8.685093   30.279853   11.166038
     74          1           0       10.104180   28.711240   12.539827
     75          1           0        8.864070   28.716447   13.787766
     76          1           0        8.859779   26.728048   12.117237
     77          1           0        7.317172   27.484301   12.428486
     78          1           0        8.766088   27.373870    9.925817
     79          1           0        5.743173   27.998053   11.335588
     80          1           0        8.123276   29.493070    8.597349
     81          1           0        6.449324   29.507861    8.363182
 ---------------------------------------------------------------------
 Rotational constants (GHZ):           0.0950858           0.0784426           0.0689093
 Standard basis: 6-31G(d) (6D, 7F)
   708 basis functions,  1332 primitive gaussians,   708 cartesian basis functions
   157 alpha electrons      157 beta electrons
       nuclear repulsion energy      5827.0742741130 Hartrees.
 NAtoms=   81 NActive=   81 NUniq=   81 SFac= 1.00D+00 NAtFMM=   60 NAOKFM=T Big=T
 Integral buffers will be    131072 words long.
 Raffenetti 2 integral format.
 Two-electron integral symmetry is turned off.
 Nuclear repulsion after empirical dispersion term =     5826.9352595972 Hartrees.
 One-electron integrals computed using PRISM.
 NBasis=   708 RedAO= T EigKep=  3.61D-04  NBF=   708
 NBsUse=   708 1.00D-06 EigRej= -1.00D+00 NBFU=   708
 Initial guess from the checkpoint file:  "conf-291.chk"
 B after Tr=     0.000000    0.000000    0.000000
         Rot=    1.000000    0.000000    0.000000    0.000000 Ang=   0.00 deg.
 Requested convergence on RMS density matrix=1.00D-08 within 128 cycles.
 Requested convergence on MAX density matrix=1.00D-06.
 Requested convergence on             energy=1.00D-06.
 No special actions if energy rises.
 SCF Done:  E(RB3LYP) =  -2054.00575915     A.U. after    1 cycles
            NFock=  1  Conv=0.17D-08     -V/T= 2.0093

 **********************************************************************

            Population analysis using the SCF Density.

 **********************************************************************

 Alpha  occ. eigenvalues --  -19.35319 -19.28836 -19.27996 -19.27382 -19.24902
 Alpha  occ. eigenvalues --  -19.23325 -19.22037 -19.21920 -14.60132 -14.50701
 Alpha  occ. eigenvalues --  -14.48882 -14.47358 -14.45178 -14.44169 -14.42773
 Alpha  occ. eigenvalues --  -14.37503 -10.46942 -10.42930 -10.40866 -10.40833
 Alpha  occ. eigenvalues --  -10.40666 -10.39288 -10.37290 -10.37268 -10.36383
 Alpha  occ. eigenvalues --  -10.35712 -10.35539 -10.34899 -10.34345 -10.34305
 Alpha  occ. eigenvalues --  -10.34244 -10.32492 -10.32032 -10.31145 -10.30981
 Alpha  occ. eigenvalues --  -10.30828 -10.30654 -10.30120 -10.29727 -10.29492
 Alpha  occ. eigenvalues --  -10.28804 -10.27569  -1.25295  -1.18653  -1.17500
 Alpha  occ. eigenvalues --   -1.16566  -1.15620  -1.15089  -1.14625  -1.13668
 Alpha  occ. eigenvalues --   -1.10279  -1.10135  -1.06463  -1.05716  -1.04030
 Alpha  occ. eigenvalues --   -1.02106  -0.97767  -0.96176  -0.95669  -0.93086
 Alpha  occ. eigenvalues --   -0.92805  -0.90117  -0.89196  -0.88662  -0.87766
 Alpha  occ. eigenvalues --   -0.85126  -0.83905  -0.83592  -0.82294  -0.80764
 Alpha  occ. eigenvalues --   -0.79355  -0.77911  -0.75971  -0.75324  -0.73786
 Alpha  occ. eigenvalues --   -0.73635  -0.72368  -0.71762  -0.71282  -0.70945
 Alpha  occ. eigenvalues --   -0.70856  -0.69909  -0.68946  -0.68114  -0.67203
 Alpha  occ. eigenvalues --   -0.66805  -0.65545  -0.64540  -0.64195  -0.63623
 Alpha  occ. eigenvalues --   -0.62919  -0.62033  -0.61949  -0.61605  -0.60943
 Alpha  occ. eigenvalues --   -0.60393  -0.60202  -0.59982  -0.59275  -0.58668
 Alpha  occ. eigenvalues --   -0.58415  -0.58251  -0.57738  -0.57152  -0.57085
 Alpha  occ. eigenvalues --   -0.56387  -0.55898  -0.55559  -0.55331  -0.54739
 Alpha  occ. eigenvalues --   -0.54537  -0.53959  -0.53791  -0.53490  -0.53233
 Alpha  occ. eigenvalues --   -0.53140  -0.52851  -0.52522  -0.52263  -0.51971
 Alpha  occ. eigenvalues --   -0.51456  -0.51092  -0.50843  -0.50365  -0.49816
 Alpha  occ. eigenvalues --   -0.49304  -0.48981  -0.48771  -0.48540  -0.48312
 Alpha  occ. eigenvalues --   -0.47803  -0.47156  -0.46961  -0.46271  -0.46167
 Alpha  occ. eigenvalues --   -0.45928  -0.45220  -0.45059  -0.44987  -0.44589
 Alpha  occ. eigenvalues --   -0.43670  -0.42154  -0.40345  -0.40142  -0.39705
 Alpha  occ. eigenvalues --   -0.39292  -0.38470  -0.37486  -0.37139  -0.36804
 Alpha  occ. eigenvalues --   -0.35834  -0.35019  -0.34468  -0.34167  -0.33980
 Alpha  occ. eigenvalues --   -0.32753  -0.31890
 Alpha virt. eigenvalues --   -0.14441  -0.13407  -0.13327  -0.11341  -0.10218
 Alpha virt. eigenvalues --   -0.09632  -0.08960  -0.08274  -0.06995  -0.06602
 Alpha virt. eigenvalues --   -0.05691  -0.05494  -0.04477  -0.04246  -0.03362
 Alpha virt. eigenvalues --   -0.03087  -0.02766  -0.02341  -0.01543  -0.01188
 Alpha virt. eigenvalues --   -0.00850   0.00050   0.00594   0.00717   0.01045
 Alpha virt. eigenvalues --    0.01341   0.01675   0.02008   0.03221   0.03670
 Alpha virt. eigenvalues --    0.04061   0.04425   0.04599   0.05359   0.05461
 Alpha virt. eigenvalues --    0.05652   0.05751   0.06321   0.06569   0.07081
 Alpha virt. eigenvalues --    0.07313   0.07598   0.07748   0.07814   0.08176
 Alpha virt. eigenvalues --    0.08412   0.09004   0.09414   0.09557   0.10118
 Alpha virt. eigenvalues --    0.10316   0.10664   0.10968   0.11334   0.11393
 Alpha virt. eigenvalues --    0.12431   0.12622   0.13064   0.13253   0.13549
 Alpha virt. eigenvalues --    0.13799   0.14544   0.14811   0.15062   0.15290
 Alpha virt. eigenvalues --    0.16033   0.16508   0.16908   0.17578   0.17756
 Alpha virt. eigenvalues --    0.18522   0.19741   0.20363   0.20573   0.21304
 Alpha virt. eigenvalues --    0.22321   0.22939   0.22998   0.23788   0.25037
 Alpha virt. eigenvalues --    0.25827   0.27197   0.27425   0.27807   0.28907
 Alpha virt. eigenvalues --    0.30383   0.30887   0.31639   0.33048   0.33493
 Alpha virt. eigenvalues --    0.34766   0.35956   0.36842   0.37635   0.37865
 Alpha virt. eigenvalues --    0.38555   0.39285   0.39519   0.40602   0.41255
 Alpha virt. eigenvalues --    0.41728   0.41891   0.42601   0.43094   0.43369
 Alpha virt. eigenvalues --    0.44209   0.44502   0.45011   0.45424   0.45796
 Alpha virt. eigenvalues --    0.46013   0.46313   0.46899   0.47191   0.47397
 Alpha virt. eigenvalues --    0.47802   0.48178   0.48377   0.49151   0.49227
 Alpha virt. eigenvalues --    0.49489   0.49985   0.50298   0.50488   0.50788
 Alpha virt. eigenvalues --    0.51477   0.51687   0.52225   0.52490   0.53011
 Alpha virt. eigenvalues --    0.53387   0.53895   0.54344   0.54542   0.54966
 Alpha virt. eigenvalues --    0.55318   0.55587   0.56394   0.56822   0.57037
 Alpha virt. eigenvalues --    0.57266   0.57665   0.58252   0.58486   0.58689
 Alpha virt. eigenvalues --    0.59437   0.59931   0.60205   0.60484   0.60972
 Alpha virt. eigenvalues --    0.61790   0.62334   0.62870   0.63310   0.64443
 Alpha virt. eigenvalues --    0.64561   0.65146   0.65822   0.65923   0.66315
 Alpha virt. eigenvalues --    0.67151   0.67631   0.68591   0.68917   0.69432
 Alpha virt. eigenvalues --    0.69839   0.70358   0.70510   0.71424   0.71569
 Alpha virt. eigenvalues --    0.71807   0.72278   0.72683   0.73119   0.73386
 Alpha virt. eigenvalues --    0.73501   0.73869   0.74312   0.74328   0.74661
 Alpha virt. eigenvalues --    0.75313   0.75496   0.75753   0.76276   0.76450
 Alpha virt. eigenvalues --    0.76810   0.77223   0.77383   0.77690   0.78342
 Alpha virt. eigenvalues --    0.79008   0.79154   0.79406   0.79613   0.79820
 Alpha virt. eigenvalues --    0.80565   0.80981   0.81587   0.82420   0.82587
 Alpha virt. eigenvalues --    0.82846   0.83269   0.83550   0.83726   0.84139
 Alpha virt. eigenvalues --    0.84508   0.85071   0.85675   0.85786   0.85867
 Alpha virt. eigenvalues --    0.86467   0.87021   0.87634   0.88322   0.88526
 Alpha virt. eigenvalues --    0.89342   0.89436   0.90623   0.90935   0.91193
 Alpha virt. eigenvalues --    0.92357   0.92463   0.93012   0.93410   0.94058
 Alpha virt. eigenvalues --    0.94265   0.94677   0.95831   0.96642   0.96902
 Alpha virt. eigenvalues --    0.97928   0.98007   0.98692   0.99517   1.00219
 Alpha virt. eigenvalues --    1.00483   1.01153   1.01863   1.02759   1.02946
 Alpha virt. eigenvalues --    1.03182   1.03474   1.04230   1.04962   1.05966
 Alpha virt. eigenvalues --    1.06263   1.07007   1.07295   1.07512   1.08050
 Alpha virt. eigenvalues --    1.08957   1.09048   1.09955   1.11277   1.11875
 Alpha virt. eigenvalues --    1.13297   1.13997   1.14870   1.15283   1.15571
 Alpha virt. eigenvalues --    1.16371   1.16497   1.18548   1.19240   1.19607
 Alpha virt. eigenvalues --    1.20010   1.21082   1.21515   1.21640   1.22241
 Alpha virt. eigenvalues --    1.25153   1.25877   1.25938   1.26680   1.27561
 Alpha virt. eigenvalues --    1.27691   1.27827   1.28810   1.29095   1.29767
 Alpha virt. eigenvalues --    1.30073   1.31043   1.31254   1.31947   1.32508
 Alpha virt. eigenvalues --    1.34400   1.34899   1.35550   1.35646   1.36146
 Alpha virt. eigenvalues --    1.36605   1.37101   1.37852   1.38444   1.38899
 Alpha virt. eigenvalues --    1.39316   1.39908   1.41142   1.41698   1.42938
 Alpha virt. eigenvalues --    1.44580   1.46185   1.46442   1.46942   1.47764
 Alpha virt. eigenvalues --    1.49048   1.49391   1.50489   1.51743   1.52077
 Alpha virt. eigenvalues --    1.52985   1.53776   1.54457   1.55204   1.55450
 Alpha virt. eigenvalues --    1.56022   1.56878   1.57780   1.58083   1.59009
 Alpha virt. eigenvalues --    1.60126   1.60651   1.62083   1.62613   1.63116
 Alpha virt. eigenvalues --    1.63695   1.65481   1.65748   1.66235   1.66683
 Alpha virt. eigenvalues --    1.67665   1.68412   1.68583   1.68731   1.69035
 Alpha virt. eigenvalues --    1.69423   1.69643   1.69975   1.70548   1.71004
 Alpha virt. eigenvalues --    1.71348   1.71601   1.72635   1.72917   1.73549
 Alpha virt. eigenvalues --    1.73961   1.74374   1.74745   1.75413   1.76071
 Alpha virt. eigenvalues --    1.76626   1.76985   1.77273   1.77882   1.78481
 Alpha virt. eigenvalues --    1.79429   1.79595   1.79739   1.80247   1.81131
 Alpha virt. eigenvalues --    1.81881   1.82344   1.82594   1.83094   1.84266
 Alpha virt. eigenvalues --    1.84454   1.85113   1.85169   1.86015   1.86126
 Alpha virt. eigenvalues --    1.86718   1.87391   1.88125   1.88730   1.89396
 Alpha virt. eigenvalues --    1.90009   1.90307   1.90719   1.91117   1.91684
 Alpha virt. eigenvalues --    1.92136   1.92302   1.93631   1.94239   1.95090
 Alpha virt. eigenvalues --    1.95653   1.96368   1.96635   1.97025   1.98104
 Alpha virt. eigenvalues --    1.98209   1.99065   1.99999   2.01050   2.02123
 Alpha virt. eigenvalues --    2.02405   2.03086   2.03621   2.04681   2.05407
 Alpha virt. eigenvalues --    2.06572   2.07251   2.07895   2.09125   2.09624
 Alpha virt. eigenvalues --    2.10411   2.11228   2.11623   2.11781   2.12636
 Alpha virt. eigenvalues --    2.13186   2.14244   2.14346   2.15728   2.16594
 Alpha virt. eigenvalues --    2.17348   2.18014   2.19287   2.19525   2.20729
 Alpha virt. eigenvalues --    2.20775   2.21697   2.22827   2.23172   2.24548
 Alpha virt. eigenvalues --    2.24811   2.26155   2.26652   2.27026   2.28336
 Alpha virt. eigenvalues --    2.29432   2.30392   2.30781   2.31213   2.32170
 Alpha virt. eigenvalues --    2.32664   2.33288   2.34950   2.35597   2.36138
 Alpha virt. eigenvalues --    2.37155   2.37744   2.37892   2.38670   2.40234
 Alpha virt. eigenvalues --    2.41140   2.41811   2.42625   2.44594   2.45092
 Alpha virt. eigenvalues --    2.45271   2.46020   2.47476   2.48430   2.49170
 Alpha virt. eigenvalues --    2.50529   2.50658   2.50910   2.51424   2.51968
 Alpha virt. eigenvalues --    2.53397   2.53832   2.53926   2.54706   2.55862
 Alpha virt. eigenvalues --    2.56183   2.56736   2.56980   2.57692   2.57865
 Alpha virt. eigenvalues --    2.58931   2.59480   2.60560   2.61122   2.61776
 Alpha virt. eigenvalues --    2.63264   2.63958   2.64854   2.65064   2.67126
 Alpha virt. eigenvalues --    2.67879   2.69102   2.69664   2.71157   2.71960
 Alpha virt. eigenvalues --    2.73471   2.76901   2.81631   2.82012   2.83597
 Alpha virt. eigenvalues --    2.84450   2.85390   2.86483   2.87068   2.88092
 Alpha virt. eigenvalues --    2.89012   2.90814   2.92600   2.93134   2.94903
 Alpha virt. eigenvalues --    2.96501   2.97170   2.98436   2.99032   2.99408
 Alpha virt. eigenvalues --    3.04333   3.07858   3.13314   3.32213   3.72906
 Alpha virt. eigenvalues --    3.73307   3.75208   3.77595   3.85124   3.87794
 Alpha virt. eigenvalues --    3.89988   3.92807   3.94852   3.95181   3.96586
 Alpha virt. eigenvalues --    3.99185   4.00183   4.00566   4.01641   4.06230
 Alpha virt. eigenvalues --    4.07407   4.07983   4.11374   4.12829   4.14161
 Alpha virt. eigenvalues --    4.17016   4.20315   4.20630   4.22533   4.24477
 Alpha virt. eigenvalues --    4.26994   4.28032   4.30541   4.31551   4.32663
 Alpha virt. eigenvalues --    4.37044   4.37702   4.42454   4.45270   4.46514
 Alpha virt. eigenvalues --    4.50307   4.53456   4.60046   4.62181   4.68997
 Alpha virt. eigenvalues --    4.71861
          Condensed to atoms (all electrons):
 Mulliken charges:
               1
     1  N   -0.780905
     2  C   -0.095495
     3  C    0.581930
     4  O   -0.475208
     5  C   -0.345105
     6  C   -0.363423
     7  C    0.611017
     8  O   -0.420560
     9  O   -0.611512
    10  H    0.440889
    11  H    0.425946
    12  H    0.230764
    13  H    0.192505
    14  H    0.221470
    15  H    0.215935
    16  H    0.207964
    17  H    0.420122
    18  H    0.430848
    19  N   -0.563408
    20  C   -0.089833
    21  C    0.606093
    22  O   -0.483881
    23  C   -0.361652
    24  C    0.064969
    25  C   -0.019268
    26  C    0.007046
    27  C    0.267084
    28  C   -0.242152
    29  N   -0.688065
    30  C   -0.180308
    31  C   -0.145616
    32  C   -0.154248
    33  H    0.369651
    34  H    0.135273
    35  H    0.176150
    36  H    0.187786
    37  H    0.196152
    38  H    0.358408
    39  H    0.160887
    40  H    0.154874
    41  H    0.200066
    42  H    0.162741
    43  N   -0.601869
    44  C   -0.105877
    45  C    0.621616
    46  O   -0.513258
    47  C    0.146803
    48  C   -0.494779
    49  O   -0.649113
    50  H    0.430134
    51  H    0.367866
    52  H    0.148927
    53  H    0.146026
    54  H    0.163180
    55  H    0.208574
    56  H    0.173182
    57  N   -0.627672
    58  C   -0.067086
    59  C    0.595655
    60  O   -0.462351
    61  C   -0.302277
    62  C   -0.275553
    63  C   -0.147454
    64  N   -0.631763
    65  C    0.600103
    66  N   -0.673680
    67  N   -0.729561
    68  O   -0.603808
    69  H    0.477394
    70  H    0.385930
    71  H    0.195217
    72  H    0.129791
    73  H    0.159522
    74  H    0.082026
    75  H    0.195755
    76  H    0.176051
    77  H    0.163293
    78  H    0.350432
    79  H    0.289849
    80  H    0.312628
    81  H    0.360212
 Sum of Mulliken charges =   1.00000
 Mulliken charges with hydrogens summed into heavy atoms:
               1
     1  N    0.496011
     2  C    0.135269
     3  C    0.581930
     4  O   -0.475208
     5  C    0.068871
     6  C    0.060475
     7  C    0.611017
     8  O   -0.420560
     9  O   -0.170624
    19  N   -0.193757
    20  C    0.045440
    21  C    0.606093
    22  O   -0.483881
    23  C    0.002284
    24  C    0.064969
    25  C    0.176884
    26  C    0.007046
    27  C    0.267084
    28  C   -0.081264
    29  N   -0.329657
    30  C   -0.025434
    31  C    0.054450
    32  C    0.008493
    43  N   -0.234003
    44  C    0.043049
    45  C    0.621616
    46  O   -0.513258
    47  C    0.292829
    48  C    0.050157
    49  O   -0.218978
    57  N   -0.241743
    58  C    0.128131
    59  C    0.595655
    60  O   -0.462351
    61  C   -0.012964
    62  C    0.002228
    63  C    0.191890
    64  N   -0.281331
    65  C    0.600103
    66  N   -0.383831
    67  N   -0.056720
    68  O   -0.126414
 Electronic spatial extent (au):  <R**2>=        1395338.1689
 Charge=              1.0000 electrons
 Dipole moment (field-independent basis, Debye):
    X=             57.1540    Y=            149.9101    Z=             60.5492  Tot=            171.4813
 Quadrupole moment (field-independent basis, Debye-Ang):
   XX=            456.3982   YY=           4476.8653   ZZ=            519.6420
   XY=           1757.8593   XZ=            732.1839   YZ=           1895.2993
 Traceless Quadrupole moment (field-independent basis, Debye-Ang):
   XX=          -1361.2370   YY=           2659.2301   ZZ=          -1297.9931
   XY=           1757.8593   XZ=            732.1839   YZ=           1895.2993
 Octapole moment (field-independent basis, Debye-Ang**2):
  XXX=           1560.3464  YYY=         127018.0766  ZZZ=            881.7618  XYY=          52032.4052
  XXY=          13734.2114  XXZ=           6261.1676  XZZ=           7051.2206  YZZ=          16242.1565
  YYZ=          56957.5643  XYZ=          22631.2899
 Hexadecapole moment (field-independent basis, Debye-Ang**3):
 XXXX=         -40376.7488 YYYY=        3357237.3985 ZZZZ=         -93842.8199 XXXY=          40676.0514
 XXXZ=          30787.6681 YYYX=        1470850.5292 YYYZ=        1633595.3417 ZZZX=          36116.5115
 ZZZY=          25723.0450 XXYY=         390119.8448 XXZZ=          60330.7009 YYZZ=         477429.0381
 XXYZ=         190570.2588 YYXZ=         675452.8524 ZZXY=         217263.2149
 N-N= 5.826935259597D+03 E-N=-1.640602594621D+04  KE= 2.035170834872D+03
 Unable to Open any file for archive entry.
 1\1\GINC-LAC-256\SP\RB3LYP\6-31G(d)\C26H39N8O8(1+)\KENGMITH\27-May-202
 2\0\\# B3LYP/6-31G* empiricaldispersion=gd3 guess=read geom=check nosy
 mm integral(ultrafinegrid)\\Candidate Structure: Conf:291 Charge calc 
 in gas phase\\1,1\N,0,12.8305871419,30.6835596784,12.4529651665\C,0,12
 .9295840669,30.8478897241,10.9499321808\C,0,13.3233166573,32.309768001
 7,10.6026343811\O,0,14.5112064904,32.5346774208,10.4190485921\C,0,11.6
 995641186,30.2769105149,10.2201260794\C,0,11.8372469748,28.8314371088,
 9.7024872823\C,0,11.7264956921,27.7318126715,10.7325546524\O,0,11.0437
 140035,26.7445931545,10.6405247819\O,0,12.5257295111,27.9489098868,11.
 8361593998\H,0,12.4258571813,27.1638338295,12.4112019845\H,0,13.663550
 1756,31.072451286,12.918509977\H,0,13.8234846686,30.2842560404,10.6768
 498415\H,0,10.8020272006,30.3574817263,10.8378984712\H,0,11.5213214402
 ,30.9160329197,9.3501013872\H,0,12.7974141888,28.7077351101,9.18408796
 15\H,0,11.0520839612,28.6338251289,8.96973322\H,0,12.0348650881,31.186
 2726812,12.8789053005\H,0,12.7466783942,29.6760290098,12.6627810189\N,
 0,12.3459116475,33.2312321459,10.4043820117\C,0,11.0377286869,33.36616
 45065,11.0344512564\C,0,10.0899258364,33.8865448114,9.9315513226\O,0,1
 0.5487302641,34.5412428855,9.0065530698\C,0,11.137359702,34.3086192042
 ,12.2719546365\C,0,12.0424203997,33.7303902131,13.3183809034\C,0,13.41
 24307225,33.815051121,13.3636304126\C,0,11.6471085102,32.8313661552,14
 .3840657497\C,0,12.836849868,32.4092340618,15.0416151923\C,0,10.407274
 0041,32.3362719379,14.8356553182\N,0,13.9071939147,32.9843787326,14.36
 22539063\C,0,12.8211120076,31.5210812918,16.1215249625\C,0,10.38583118
 46,31.4495071102,15.9064118434\C,0,11.5803586104,31.0496731894,16.5407
 677281\H,0,12.669100808,34.082720782,9.9522321048\H,0,10.6897875124,32
 .3872348862,11.3687540395\H,0,10.1355017751,34.4696069161,12.685825919
 5\H,0,11.4965525349,35.2836429897,11.924513392\H,0,14.0917503157,34.36
 61673491,12.728424663\H,0,14.8391807785,33.0702861829,14.746018097\H,0
 ,9.4741661789,32.67458759,14.3946877933\H,0,13.7381874045,31.221008885
 ,16.6209095393\H,0,9.4304066803,31.0693515364,16.2495119266\H,0,11.529
 9444353,30.3660386218,17.3827905898\N,0,8.7843882341,33.4838141943,9.9
 66177151\C,0,7.9131258015,33.2694243499,11.1147185569\C,0,6.8451578506
 ,32.2426378923,10.6867107298\O,0,6.3704850265,32.34507353,9.5599032949
 \C,0,7.2210537792,34.610047886,11.5287581993\C,0,6.6821848082,35.43296
 86462,10.362898858\O,0,6.1504495572,34.2268575576,12.402638516\H,0,5.7
 057423765,35.0183425886,12.7453452376\H,0,8.2680673812,33.7370015225,9
 .1277021388\H,0,8.4946966309,32.9059155055,11.9634941477\H,0,7.9647948
 612,35.2009349448,12.0863576719\H,0,6.1284941079,36.2946996163,10.7526
 128076\H,0,6.0091938731,34.8311661066,9.7468480424\H,0,7.4938573198,35
 .8257285241,9.7431125979\N,0,6.4010136777,31.3088504633,11.5809853618\
 C,0,7.1412464223,30.603588373,12.6359519422\C,0,7.1689797996,31.199674
 9392,14.052112793\O,0,7.557470186,30.493641423,14.9609785188\C,0,8.600
 3346602,30.2122832345,12.2554067574\C,0,9.0230136253,28.8088141876,12.
 7086111324\C,0,8.2980802961,27.6540672664,11.9734587583\N,0,8.15591907
 74,27.8910875852,10.5446174319\C,0,7.022635317,28.4827493392,9.9907022
 499\N,0,5.8566474078,28.6153157265,10.5320069558\N,0,7.2483600303,29.0
 005320857,8.7272765582\O,0,6.8682749394,32.4797947516,14.2541023423\H,
 0,6.4775645418,32.9468426003,13.4718025582\H,0,5.7532174003,30.6618151
 365,11.1159395264\H,0,6.5793292112,29.6781075678,12.7582337026\H,0,9.2
 999181836,30.9391435181,12.6878264529\H,0,8.685093422,30.2798526811,11
 .1660378329\H,0,10.1041796422,28.7112399925,12.5398272894\H,0,8.864069
 9151,28.7164466878,13.7877659853\H,0,8.8597793574,26.7280483919,12.117
 2374721\H,0,7.3171718968,27.4843008022,12.4284858758\H,0,8.7660878628,
 27.3738695617,9.9258170044\H,0,5.7431734758,27.9980527541,11.335587938
 6\H,0,8.1232757787,29.4930698548,8.5973489033\H,0,6.4493240282,29.5078
 606718,8.3631817393\\Version=ES64L-G16RevC.01\HF=-2054.0057591\RMSD=1.
 659e-09\Dipole=3.8747199,-0.4214388,1.2493286\Quadrupole=-1012.0463459
 ,1977.0724332,-965.0260873,1306.9252983,544.3607552,1409.1085638\PG=C0
 1 [X(C26H39N8O8)]\\@
 The archive entry for this job was punched.


 IF YOU'RE NOT PART OF THE SOLUTION,
 THEN YOU'RE PART OF THE PRECIPITATE.
 Job cpu time:       0 days  0 hours  3 minutes 19.4 seconds.
 Elapsed time:       0 days  0 hours  0 minutes 50.6 seconds.
 File lengths (MBytes):  RWF=    376 Int=      0 D2E=      0 Chk=     56 Scr=     16
 Normal termination of Gaussian 16 at Fri May 27 05:13:48 2022.
