 Entering Gaussian System, Link 0=/opt/software/Gaussian/g16-AVX2-C.01/g16/g16
 Input=charge-conf-123.com
 Output=charge-conf-123.log
 Initial command:
 /opt/software/Gaussian/g16-AVX2-C.01/g16/l1.exe "/mnt/gs18/scratch/users/kengmith/Gau-4794.inp" -scrdir="/mnt/gs18/scratch/users/kengmith/"
 Entering Link 1 = /opt/software/Gaussian/g16-AVX2-C.01/g16/l1.exe PID=      4805.
  
 Copyright (c) 1988-2019, Gaussian, Inc.  All Rights Reserved.
  
 This is part of the Gaussian(R) 16 program.  It is based on
 the Gaussian(R) 09 system (copyright 2009, Gaussian, Inc.),
 the Gaussian(R) 03 system (copyright 2003, Gaussian, Inc.),
 the Gaussian(R) 98 system (copyright 1998, Gaussian, Inc.),
 the Gaussian(R) 94 system (copyright 1995, Gaussian, Inc.),
 the Gaussian 92(TM) system (copyright 1992, Gaussian, Inc.),
 the Gaussian 90(TM) system (copyright 1990, Gaussian, Inc.),
 the Gaussian 88(TM) system (copyright 1988, Gaussian, Inc.),
 the Gaussian 86(TM) system (copyright 1986, Carnegie Mellon
 University), and the Gaussian 82(TM) system (copyright 1983,
 Carnegie Mellon University). Gaussian is a federally registered
 trademark of Gaussian, Inc.
  
 This software contains proprietary and confidential information,
 including trade secrets, belonging to Gaussian, Inc.
  
 This software is provided under written license and may be
 used, copied, transmitted, or stored only in accord with that
 written license.
  
 The following legend is applicable only to US Government
 contracts under FAR:
  
                    RESTRICTED RIGHTS LEGEND
  
 Use, reproduction and disclosure by the US Government is
 subject to restrictions as set forth in subparagraphs (a)
 and (c) of the Commercial Computer Software - Restricted
 Rights clause in FAR 52.227-19.
  
 Gaussian, Inc.
 340 Quinnipiac St., Bldg. 40, Wallingford CT 06492
  
  
 ---------------------------------------------------------------
 Warning -- This program may not be used in any manner that
 competes with the business of Gaussian, Inc. or will provide
 assistance to any competitor of Gaussian, Inc.  The licensee
 of this program is prohibited from giving any competitor of
 Gaussian, Inc. access to this program.  By using this program,
 the user acknowledges that Gaussian, Inc. is engaged in the
 business of creating and licensing software in the field of
 computational chemistry and represents and warrants to the
 licensee that it is not a competitor of Gaussian, Inc. and that
 it will not use this program in any manner prohibited above.
 ---------------------------------------------------------------
  

 Cite this work as:
 Gaussian 16, Revision C.01,
 M. J. Frisch, G. W. Trucks, H. B. Schlegel, G. E. Scuseria, 
 M. A. Robb, J. R. Cheeseman, G. Scalmani, V. Barone, 
 G. A. Petersson, H. Nakatsuji, X. Li, M. Caricato, A. V. Marenich, 
 J. Bloino, B. G. Janesko, R. Gomperts, B. Mennucci, H. P. Hratchian, 
 J. V. Ortiz, A. F. Izmaylov, J. L. Sonnenberg, D. Williams-Young, 
 F. Ding, F. Lipparini, F. Egidi, J. Goings, B. Peng, A. Petrone, 
 T. Henderson, D. Ranasinghe, V. G. Zakrzewski, J. Gao, N. Rega, 
 G. Zheng, W. Liang, M. Hada, M. Ehara, K. Toyota, R. Fukuda, 
 J. Hasegawa, M. Ishida, T. Nakajima, Y. Honda, O. Kitao, H. Nakai, 
 T. Vreven, K. Throssell, J. A. Montgomery, Jr., J. E. Peralta, 
 F. Ogliaro, M. J. Bearpark, J. J. Heyd, E. N. Brothers, K. N. Kudin, 
 V. N. Staroverov, T. A. Keith, R. Kobayashi, J. Normand, 
 K. Raghavachari, A. P. Rendell, J. C. Burant, S. S. Iyengar, 
 J. Tomasi, M. Cossi, J. M. Millam, M. Klene, C. Adamo, R. Cammi, 
 J. W. Ochterski, R. L. Martin, K. Morokuma, O. Farkas, 
 J. B. Foresman, and D. J. Fox, Gaussian, Inc., Wallingford CT, 2019.
 
 ******************************************
 Gaussian 16:  ES64L-G16RevC.01  3-Jul-2019
                27-May-2022 
 ******************************************
 %mem=8gb
 %nproc=4
 Will use up to    4 processors via shared memory.
 %chk=conf-123.chk
 ----------------------------------------------------------------------
 # B3LYP/6-31G* empiricaldispersion=gd3 guess=read geom=check nosymm in
 tegral(ultrafinegrid)
 ----------------------------------------------------------------------
 1/29=2,38=1,172=1/1;
 2/12=2,15=1,40=1/2;
 3/5=1,6=6,7=1,11=2,14=-4,25=1,30=1,74=-5,75=-5,116=-2,124=31/1,2,3;
 4/5=1/1;
 5/5=2,38=6/2;
 6/7=2,8=2,9=2,10=2,28=1/1;
 99/5=1,9=1/99;
 ------------------------------------------------------
 Candidate Structure: Conf:123 Charge calc in gas phase
 ------------------------------------------------------
 Structure from the checkpoint file:  "conf-123.chk"
 Charge =  1 Multiplicity = 1
 Redundant internal coordinates found in file.  (old form).
 N,0,10.1366231923,33.8277429702,13.0524924642
 C,0,8.9418485055,34.7141461683,12.736268653
 C,0,7.6975483654,34.4557673037,13.6235738104
 O,0,7.3260297044,35.3681784388,14.3460918203
 C,0,8.5730176159,34.6968527976,11.2419529287
 C,0,9.4672203362,35.5479513354,10.3128893729
 C,0,10.6607506097,34.836738364,9.7088415346
 O,0,10.9889657869,34.9534211115,8.5481932233
 O,0,11.3276297347,34.0553415192,10.5861138988
 H,0,12.0735849065,33.4918781136,10.1082571103
 H,0,9.8924264886,32.8332052003,13.1221686531
 H,0,9.2597001747,35.7178882137,13.0230602471
 H,0,8.4903141587,33.6684935424,10.871450117
 H,0,7.560435345,35.1085366967,11.1909006802
 H,0,9.831663903,36.4380100611,10.8442683464
 H,0,8.8786486454,35.9146141739,9.4692793005
 H,0,10.8359407533,33.9288860821,12.2835926453
 H,0,10.5442820935,34.0518640341,13.9695224074
 N,0,6.9587935906,33.3287752567,13.4203126628
 C,0,7.3696458255,31.9896617557,13.0324027525
 C,0,6.2953746153,31.4249709066,12.0765589608
 O,0,5.1584410801,31.8656744975,12.0994904808
 C,0,7.6089227639,31.1263137204,14.3096718151
 C,0,8.8679633873,31.5451392887,15.0086273634
 C,0,9.0740036111,32.6743701674,15.7656232647
 C,0,10.1515256168,30.8815823002,14.8884418789
 C,0,11.1012401961,31.6807078674,15.5774764979
 C,0,10.5660386617,29.6625715636,14.3156925572
 N,0,10.4304893811,32.8060868029,16.055471697
 C,0,12.4425310571,31.3040904854,15.7057044927
 C,0,11.8943739318,29.2792347138,14.4492397772
 C,0,12.8217877156,30.0935445355,15.135346291
 H,0,6.032266752,33.3714380133,13.8368358383
 H,0,8.2988151547,32.0500460756,12.4614828328
 H,0,7.6754346155,30.067183061,14.0470117127
 H,0,6.7257912123,31.2318827207,14.949071928
 H,0,8.3707693871,33.4249069107,16.0996741856
 H,0,10.7740352939,33.3671969719,16.8245130515
 H,0,9.8618467334,29.009530096,13.8079265703
 H,0,13.1542986775,31.9189154783,16.2492481962
 H,0,12.2250360977,28.3438734428,14.0089288395
 H,0,13.8517447047,29.7625189315,15.2264686641
 N,0,6.7205392932,30.4986008015,11.1617755704
 C,0,7.8382066057,29.5728101086,11.2820200231
 C,0,8.4003706233,29.3150709522,9.8756571192
 O,0,7.5923287184,29.1873006143,8.9635300399
 C,0,7.3487628798,28.2454346938,11.934351405
 C,0,6.4513107679,27.3678977898,11.0718604593
 O,0,8.5443115172,27.5573740616,12.3308629478
 H,0,8.321193944,26.6622362385,12.6350515308
 H,0,6.0233981336,30.2325813038,10.4721111538
 H,0,8.5915738956,29.9878045758,11.9477890095
 H,0,6.7968839606,28.5424933205,12.8375988458
 H,0,6.9706490384,27.021094911,10.1759753892
 H,0,5.5538735662,27.9087643955,10.7589028382
 H,0,6.121706306,26.4997350016,11.6547144272
 N,0,9.7396870664,29.1003460447,9.6512214836
 C,0,11.0201877776,29.5221537993,10.2546415703
 C,0,11.7806182757,28.4251439221,11.0256086054
 O,0,12.9919719698,28.4789964396,11.0835272126
 C,0,10.9928095521,30.855486803,11.0360748173
 C,0,12.3397764801,31.318175945,11.63170742
 C,0,13.5306504767,31.5724385539,10.6965090892
 N,0,13.2389340109,32.492561721,9.5675089604
 C,0,12.9700127997,31.8958301127,8.2568621729
 N,0,13.0307739295,30.6581442959,7.9350928415
 N,0,12.6720038806,32.8639378422,7.3445149252
 O,0,11.1023069329,27.4566586473,11.6348495258
 H,0,10.1249331996,27.5593142147,11.5617303697
 H,0,9.8553413947,28.8313639882,8.6776580788
 H,0,11.6523852832,29.7098573392,9.3871297547
 H,0,10.3084398613,30.7712420295,11.8858068261
 H,0,10.5843468903,31.6131608161,10.357483994
 H,0,12.1453592422,32.2327935633,12.205152619
 H,0,12.6740720949,30.5857020579,12.367011565
 H,0,14.327667229,32.0304808199,11.2893523246
 H,0,13.9207542644,30.6155076297,10.3458538869
 H,0,14.0035605013,33.1560174013,9.4388336442
 H,0,13.4800243306,30.0782007385,8.6415025977
 H,0,12.1690915947,33.6960081779,7.6405619129
 H,0,12.4669567593,32.5182238082,6.4163080284
 Recover connectivity data from disk.
                           ----------------------------
                           !    Current Parameters    !
                           ! (Angstroms and Degrees)  !
 --------------------------                            --------------------------
 ! Name  Definition              Value                                          !
 --------------------------------------------------------------------------------
 ! R1    R(1,2)                  1.5209                                         !
 ! R2    R(1,11)                 1.0264                                         !
 ! R3    R(1,17)                 1.0443                                         !
 ! R4    R(1,18)                 1.0283                                         !
 ! R5    R(2,3)                  1.55                                           !
 ! R6    R(2,5)                  1.5393                                         !
 ! R7    R(2,12)                 1.0912                                         !
 ! R8    R(3,4)                  1.2217                                         !
 ! R9    R(3,19)                 1.3628                                         !
 ! R10   R(5,6)                  1.545                                          !
 ! R11   R(5,13)                 1.0962                                         !
 ! R12   R(5,14)                 1.0943                                         !
 ! R13   R(6,7)                  1.515                                          !
 ! R14   R(6,15)                 1.0988                                         !
 ! R15   R(6,16)                 1.092                                          !
 ! R16   R(7,8)                  1.2118                                         !
 ! R17   R(7,9)                  1.3509                                         !
 ! R18   R(9,10)                 1.0499                                         !
 ! R19   R(19,20)                1.4534                                         !
 ! R20   R(19,33)                1.0167                                         !
 ! R21   R(20,21)                1.5449                                         !
 ! R22   R(20,23)                1.5601                                         !
 ! R23   R(20,34)                1.0922                                         !
 ! R24   R(21,22)                1.2196                                         !
 ! R25   R(21,43)                1.3696                                         !
 ! R26   R(23,24)                1.4997                                         !
 ! R27   R(23,35)                1.0932                                         !
 ! R28   R(23,36)                1.0954                                         !
 ! R29   R(24,25)                1.375                                          !
 ! R30   R(24,26)                1.4499                                         !
 ! R31   R(25,29)                1.3933                                         !
 ! R32   R(25,37)                1.0814                                         !
 ! R33   R(26,27)                1.4196                                         !
 ! R34   R(26,28)                1.4092                                         !
 ! R35   R(27,29)                1.3946                                         !
 ! R36   R(27,30)                1.3991                                         !
 ! R37   R(28,31)                1.389                                          !
 ! R38   R(28,39)                1.0864                                         !
 ! R39   R(29,38)                1.0121                                         !
 ! R40   R(30,32)                1.3909                                         !
 ! R41   R(30,40)                1.0863                                         !
 ! R42   R(31,32)                1.4121                                         !
 ! R43   R(31,41)                1.0854                                         !
 ! R44   R(32,42)                1.0857                                         !
 ! R45   R(43,44)                1.4563                                         !
 ! R46   R(43,51)                1.0161                                         !
 ! R47   R(44,45)                1.5363                                         !
 ! R48   R(44,47)                1.5579                                         !
 ! R49   R(44,52)                1.0877                                         !
 ! R50   R(45,46)                1.2252                                         !
 ! R51   R(45,57)                1.3749                                         !
 ! R52   R(47,48)                1.523                                          !
 ! R53   R(47,49)                1.4353                                         !
 ! R54   R(47,53)                1.0994                                         !
 ! R55   R(48,54)                1.0921                                         !
 ! R56   R(48,55)                1.0936                                         !
 ! R57   R(48,56)                1.0964                                         !
 ! R58   R(49,50)                0.9714                                         !
 ! R59   R(57,58)                1.4771                                         !
 ! R60   R(57,70)                1.0166                                         !
 ! R61   R(58,59)                1.5415                                         !
 ! R62   R(58,61)                1.5457                                         !
 ! R63   R(58,71)                1.0897                                         !
 ! R64   R(59,60)                1.2139                                         !
 ! R65   R(59,68)                1.3301                                         !
 ! R66   R(61,62)                1.5438                                         !
 ! R67   R(61,72)                1.0943                                         !
 ! R68   R(61,73)                1.0961                                         !
 ! R69   R(62,63)                1.5354                                         !
 ! R70   R(62,74)                1.0969                                         !
 ! R71   R(62,75)                1.0904                                         !
 ! R72   R(63,64)                1.4854                                         !
 ! R73   R(63,76)                1.0938                                         !
 ! R74   R(63,77)                1.0913                                         !
 ! R75   R(64,65)                1.465                                          !
 ! R76   R(64,78)                1.0205                                         !
 ! R77   R(65,66)                1.2803                                         !
 ! R78   R(65,67)                1.3632                                         !
 ! R79   R(66,79)                1.0184                                         !
 ! R80   R(67,80)                1.0163                                         !
 ! R81   R(67,81)                1.0115                                         !
 ! R82   R(68,69)                0.9855                                         !
 ! A1    A(2,1,11)             113.0737                                         !
 ! A2    A(2,1,17)             108.4534                                         !
 ! A3    A(2,1,18)             111.705                                          !
 ! A4    A(11,1,17)            107.6467                                         !
 ! A5    A(11,1,18)            104.1796                                         !
 ! A6    A(17,1,18)            111.7185                                         !
 ! A7    A(1,2,3)              114.4857                                         !
 ! A8    A(1,2,5)              112.5526                                         !
 ! A9    A(1,2,12)             104.6327                                         !
 ! A10   A(3,2,5)              111.1937                                         !
 ! A11   A(3,2,12)             103.693                                          !
 ! A12   A(5,2,12)             109.589                                          !
 ! A13   A(2,3,4)              117.2707                                         !
 ! A14   A(2,3,19)             119.1871                                         !
 ! A15   A(4,3,19)             122.7501                                         !
 ! A16   A(2,5,6)              116.0335                                         !
 ! A17   A(2,5,13)             110.9001                                         !
 ! A18   A(2,5,14)             105.236                                          !
 ! A19   A(6,5,13)             110.9282                                         !
 ! A20   A(6,5,14)             107.4731                                         !
 ! A21   A(13,5,14)            105.507                                          !
 ! A22   A(5,6,7)              115.9194                                         !
 ! A23   A(5,6,15)             110.3265                                         !
 ! A24   A(5,6,16)             109.728                                          !
 ! A25   A(7,6,15)             108.1668                                         !
 ! A26   A(7,6,16)             105.9154                                         !
 ! A27   A(15,6,16)            106.2823                                         !
 ! A28   A(6,7,8)              123.3712                                         !
 ! A29   A(6,7,9)              113.6737                                         !
 ! A30   A(8,7,9)              122.9551                                         !
 ! A31   A(7,9,10)             111.4449                                         !
 ! A32   A(3,19,20)            130.4284                                         !
 ! A33   A(3,19,33)            113.4651                                         !
 ! A34   A(20,19,33)           113.928                                          !
 ! A35   A(19,20,21)           107.7787                                         !
 ! A36   A(19,20,23)           109.5544                                         !
 ! A37   A(19,20,34)           109.2109                                         !
 ! A38   A(21,20,23)           114.2626                                         !
 ! A39   A(21,20,34)           106.7602                                         !
 ! A40   A(23,20,34)           109.1511                                         !
 ! A41   A(20,21,22)           120.3011                                         !
 ! A42   A(20,21,43)           116.4                                            !
 ! A43   A(22,21,43)           123.1187                                         !
 ! A44   A(20,23,24)           110.8408                                         !
 ! A45   A(20,23,35)           110.4107                                         !
 ! A46   A(20,23,36)           107.5116                                         !
 ! A47   A(24,23,35)           109.3572                                         !
 ! A48   A(24,23,36)           112.2023                                         !
 ! A49   A(35,23,36)           106.419                                          !
 ! A50   A(23,24,25)           127.715                                          !
 ! A51   A(23,24,26)           125.2227                                         !
 ! A52   A(25,24,26)           106.7877                                         !
 ! A53   A(24,25,29)           109.7576                                         !
 ! A54   A(24,25,37)           129.986                                          !
 ! A55   A(29,25,37)           120.2136                                         !
 ! A56   A(24,26,27)           107.1205                                         !
 ! A57   A(24,26,28)           133.6277                                         !
 ! A58   A(27,26,28)           119.1717                                         !
 ! A59   A(26,27,29)           107.3884                                         !
 ! A60   A(26,27,30)           122.298                                          !
 ! A61   A(29,27,30)           130.3104                                         !
 ! A62   A(26,28,31)           118.7484                                         !
 ! A63   A(26,28,39)           121.2851                                         !
 ! A64   A(31,28,39)           119.9305                                         !
 ! A65   A(25,29,27)           108.7028                                         !
 ! A66   A(25,29,38)           122.7482                                         !
 ! A67   A(27,29,38)           122.9957                                         !
 ! A68   A(27,30,32)           117.266                                          !
 ! A69   A(27,30,40)           121.4442                                         !
 ! A70   A(32,30,40)           121.2729                                         !
 ! A71   A(28,31,32)           121.0419                                         !
 ! A72   A(28,31,41)           119.3519                                         !
 ! A73   A(32,31,41)           119.6027                                         !
 ! A74   A(30,32,31)           121.4711                                         !
 ! A75   A(30,32,42)           119.3163                                         !
 ! A76   A(31,32,42)           119.2105                                         !
 ! A77   A(21,43,44)           127.8141                                         !
 ! A78   A(21,43,51)           114.6739                                         !
 ! A79   A(44,43,51)           114.594                                          !
 ! A80   A(43,44,45)           108.1737                                         !
 ! A81   A(43,44,47)           109.5795                                         !
 ! A82   A(43,44,52)           109.8511                                         !
 ! A83   A(45,44,47)           110.8133                                         !
 ! A84   A(45,44,52)           111.7702                                         !
 ! A85   A(47,44,52)           106.642                                          !
 ! A86   A(44,45,46)           117.2351                                         !
 ! A87   A(44,45,57)           122.1465                                         !
 ! A88   A(46,45,57)           120.3068                                         !
 ! A89   A(44,47,48)           116.0368                                         !
 ! A90   A(44,47,49)           105.2151                                         !
 ! A91   A(44,47,53)           105.754                                          !
 ! A92   A(48,47,49)           111.7827                                         !
 ! A93   A(48,47,53)           108.9758                                         !
 ! A94   A(49,47,53)           108.7054                                         !
 ! A95   A(47,48,54)           111.5517                                         !
 ! A96   A(47,48,55)           111.1423                                         !
 ! A97   A(47,48,56)           109.4116                                         !
 ! A98   A(54,48,55)           108.2138                                         !
 ! A99   A(54,48,56)           109.1243                                         !
 ! A100  A(55,48,56)           107.2814                                         !
 ! A101  A(47,49,50)           109.6913                                         !
 ! A102  A(45,57,58)           137.157                                          !
 ! A103  A(45,57,70)           107.9669                                         !
 ! A104  A(58,57,70)           111.6017                                         !
 ! A105  A(57,58,59)           115.3892                                         !
 ! A106  A(57,58,61)           115.9454                                         !
 ! A107  A(57,58,71)           103.1152                                         !
 ! A108  A(59,58,61)           111.702                                          !
 ! A109  A(59,58,71)           103.5654                                         !
 ! A110  A(61,58,71)           105.317                                          !
 ! A111  A(58,59,60)           118.984                                          !
 ! A112  A(58,59,68)           119.7154                                         !
 ! A113  A(60,59,68)           121.2868                                         !
 ! A114  A(58,61,62)           115.9856                                         !
 ! A115  A(58,61,72)           109.7085                                         !
 ! A116  A(58,61,73)           106.8516                                         !
 ! A117  A(62,61,72)           105.6133                                         !
 ! A118  A(62,61,73)           110.9065                                         !
 ! A119  A(72,61,73)           107.5115                                         !
 ! A120  A(61,62,63)           119.4306                                         !
 ! A121  A(61,62,74)           107.2759                                         !
 ! A122  A(61,62,75)           109.0476                                         !
 ! A123  A(63,62,74)           108.5312                                         !
 ! A124  A(63,62,75)           106.5108                                         !
 ! A125  A(74,62,75)           105.1843                                         !
 ! A126  A(62,63,64)           114.4069                                         !
 ! A127  A(62,63,76)           107.7202                                         !
 ! A128  A(62,63,77)           109.1335                                         !
 ! A129  A(64,63,76)           107.1965                                         !
 ! A130  A(64,63,77)           111.6644                                         !
 ! A131  A(76,63,77)           106.3127                                         !
 ! A132  A(63,64,65)           117.6278                                         !
 ! A133  A(63,64,78)           110.574                                          !
 ! A134  A(65,64,78)           106.8312                                         !
 ! A135  A(64,65,66)           127.5835                                         !
 ! A136  A(64,65,67)           110.4631                                         !
 ! A137  A(66,65,67)           121.9179                                         !
 ! A138  A(65,66,79)           113.3982                                         !
 ! A139  A(65,67,80)           119.6456                                         !
 ! A140  A(65,67,81)           114.5657                                         !
 ! A141  A(80,67,81)           116.5396                                         !
 ! A142  A(59,68,69)           113.3246                                         !
 ! D1    D(11,1,2,3)            48.5896                                         !
 ! D2    D(11,1,2,5)           -79.6736                                         !
 ! D3    D(11,1,2,12)          161.4036                                         !
 ! D4    D(17,1,2,3)           167.8985                                         !
 ! D5    D(17,1,2,5)            39.6352                                         !
 ! D6    D(17,1,2,12)          -79.2876                                         !
 ! D7    D(18,1,2,3)           -68.5492                                         !
 ! D8    D(18,1,2,5)           163.1876                                         !
 ! D9    D(18,1,2,12)           44.2648                                         !
 ! D10   D(1,2,3,4)            116.5275                                         !
 ! D11   D(1,2,3,19)           -73.3814                                         !
 ! D12   D(5,2,3,4)           -114.526                                          !
 ! D13   D(5,2,3,19)            55.5651                                         !
 ! D14   D(12,2,3,4)             3.1574                                         !
 ! D15   D(12,2,3,19)          173.2485                                         !
 ! D16   D(1,2,5,6)            -77.6906                                         !
 ! D17   D(1,2,5,13)            50.0477                                         !
 ! D18   D(1,2,5,14)           163.6646                                         !
 ! D19   D(3,2,5,6)            152.3407                                         !
 ! D20   D(3,2,5,13)           -79.921                                          !
 ! D21   D(3,2,5,14)            33.6959                                         !
 ! D22   D(12,2,5,6)            38.2942                                         !
 ! D23   D(12,2,5,13)          166.0325                                         !
 ! D24   D(12,2,5,14)          -80.3505                                         !
 ! D25   D(2,3,19,20)           35.2999                                         !
 ! D26   D(2,3,19,33)         -162.7737                                         !
 ! D27   D(4,3,19,20)         -155.1784                                         !
 ! D28   D(4,3,19,33)            6.7479                                         !
 ! D29   D(2,5,6,7)             90.8315                                         !
 ! D30   D(2,5,6,15)           -32.5152                                         !
 ! D31   D(2,5,6,16)          -149.2891                                         !
 ! D32   D(13,5,6,7)           -36.8929                                         !
 ! D33   D(13,5,6,15)         -160.2396                                         !
 ! D34   D(13,5,6,16)           82.9865                                         !
 ! D35   D(14,5,6,7)          -151.7571                                         !
 ! D36   D(14,5,6,15)           84.8962                                         !
 ! D37   D(14,5,6,16)          -31.8777                                         !
 ! D38   D(5,6,7,8)            136.5515                                         !
 ! D39   D(5,6,7,9)            -43.3554                                         !
 ! D40   D(15,6,7,8)           -98.9798                                         !
 ! D41   D(15,6,7,9)            81.1133                                         !
 ! D42   D(16,6,7,8)            14.6239                                         !
 ! D43   D(16,6,7,9)          -165.283                                          !
 ! D44   D(6,7,9,10)           173.1503                                         !
 ! D45   D(8,7,9,10)            -6.7571                                         !
 ! D46   D(3,19,20,21)        -142.2988                                         !
 ! D47   D(3,19,20,23)          92.8231                                         !
 ! D48   D(3,19,20,34)         -26.6776                                         !
 ! D49   D(33,19,20,21)         55.8413                                         !
 ! D50   D(33,19,20,23)        -69.0368                                         !
 ! D51   D(33,19,20,34)        171.4625                                         !
 ! D52   D(19,20,21,22)        -23.2247                                         !
 ! D53   D(19,20,21,43)        152.0481                                         !
 ! D54   D(23,20,21,22)         98.7856                                         !
 ! D55   D(23,20,21,43)        -85.9416                                         !
 ! D56   D(34,20,21,22)       -140.4472                                         !
 ! D57   D(34,20,21,43)         34.8257                                         !
 ! D58   D(19,20,23,24)        -72.5932                                         !
 ! D59   D(19,20,23,35)        166.0696                                         !
 ! D60   D(19,20,23,36)         50.3695                                         !
 ! D61   D(21,20,23,24)        166.3746                                         !
 ! D62   D(21,20,23,35)         45.0375                                         !
 ! D63   D(21,20,23,36)        -70.6626                                         !
 ! D64   D(34,20,23,24)         46.9442                                         !
 ! D65   D(34,20,23,35)        -74.393                                          !
 ! D66   D(34,20,23,36)        169.907                                          !
 ! D67   D(20,21,43,44)         27.9606                                         !
 ! D68   D(20,21,43,51)       -172.6052                                         !
 ! D69   D(22,21,43,44)       -156.9128                                         !
 ! D70   D(22,21,43,51)          2.5214                                         !
 ! D71   D(20,23,24,25)         74.4333                                         !
 ! D72   D(20,23,24,26)        -98.7369                                         !
 ! D73   D(35,23,24,25)       -163.6113                                         !
 ! D74   D(35,23,24,26)         23.2185                                         !
 ! D75   D(36,23,24,25)        -45.7732                                         !
 ! D76   D(36,23,24,26)        141.0566                                         !
 ! D77   D(23,24,25,29)       -170.3096                                         !
 ! D78   D(23,24,25,37)          7.2664                                         !
 ! D79   D(26,24,25,29)          3.8665                                         !
 ! D80   D(26,24,25,37)       -178.5575                                         !
 ! D81   D(23,24,26,27)        173.2214                                         !
 ! D82   D(23,24,26,28)        -10.182                                          !
 ! D83   D(25,24,26,27)         -1.1396                                         !
 ! D84   D(25,24,26,28)        175.457                                          !
 ! D85   D(24,25,29,27)         -5.2157                                         !
 ! D86   D(24,25,29,38)       -159.5487                                         !
 ! D87   D(37,25,29,27)        176.9334                                         !
 ! D88   D(37,25,29,38)         22.6004                                         !
 ! D89   D(24,26,27,29)         -1.9697                                         !
 ! D90   D(24,26,27,30)        177.4383                                         !
 ! D91   D(28,26,27,29)       -179.1489                                         !
 ! D92   D(28,26,27,30)          0.2592                                         !
 ! D93   D(24,26,28,31)       -176.0293                                         !
 ! D94   D(24,26,28,39)          1.7867                                         !
 ! D95   D(27,26,28,31)          0.2452                                         !
 ! D96   D(27,26,28,39)        178.0612                                         !
 ! D97   D(26,27,29,25)          4.3523                                         !
 ! D98   D(26,27,29,38)        158.6083                                         !
 ! D99   D(30,27,29,25)       -174.9915                                         !
 ! D100  D(30,27,29,38)        -20.7355                                         !
 ! D101  D(26,27,30,32)         -0.5171                                         !
 ! D102  D(26,27,30,40)       -179.0414                                         !
 ! D103  D(29,27,30,32)        178.7421                                         !
 ! D104  D(29,27,30,40)          0.2178                                         !
 ! D105  D(26,28,31,32)         -0.4759                                         !
 ! D106  D(26,28,31,41)       -179.787                                          !
 ! D107  D(39,28,31,32)       -178.3222                                         !
 ! D108  D(39,28,31,41)          2.3667                                         !
 ! D109  D(27,30,32,31)          0.2831                                         !
 ! D110  D(27,30,32,42)       -179.1896                                         !
 ! D111  D(40,30,32,31)        178.8101                                         !
 ! D112  D(40,30,32,42)         -0.6626                                         !
 ! D113  D(28,31,32,30)          0.2118                                         !
 ! D114  D(28,31,32,42)        179.685                                          !
 ! D115  D(41,31,32,30)        179.5211                                         !
 ! D116  D(41,31,32,42)         -1.0056                                         !
 ! D117  D(21,43,44,45)       -149.5796                                         !
 ! D118  D(21,43,44,47)         89.5103                                         !
 ! D119  D(21,43,44,52)        -27.3349                                         !
 ! D120  D(51,43,44,45)         50.9724                                         !
 ! D121  D(51,43,44,47)        -69.9377                                         !
 ! D122  D(51,43,44,52)        173.2171                                         !
 ! D123  D(43,44,45,46)        -40.3235                                         !
 ! D124  D(43,44,45,57)        146.0729                                         !
 ! D125  D(47,44,45,46)         79.8168                                         !
 ! D126  D(47,44,45,57)        -93.7868                                         !
 ! D127  D(52,44,45,46)       -161.3849                                         !
 ! D128  D(52,44,45,57)         25.0115                                         !
 ! D129  D(43,44,47,48)         70.6988                                         !
 ! D130  D(43,44,47,49)       -165.185                                          !
 ! D131  D(43,44,47,53)        -50.2209                                         !
 ! D132  D(45,44,47,48)        -48.5995                                         !
 ! D133  D(45,44,47,49)         75.5167                                         !
 ! D134  D(45,44,47,53)       -169.5193                                         !
 ! D135  D(52,44,47,48)       -170.453                                          !
 ! D136  D(52,44,47,49)        -46.3368                                         !
 ! D137  D(52,44,47,53)         68.6273                                         !
 ! D138  D(44,45,57,58)        -30.7507                                         !
 ! D139  D(44,45,57,70)        172.4941                                         !
 ! D140  D(46,45,57,58)        155.8377                                         !
 ! D141  D(46,45,57,70)         -0.9175                                         !
 ! D142  D(44,47,48,54)         62.6777                                         !
 ! D143  D(44,47,48,55)        -58.1893                                         !
 ! D144  D(44,47,48,56)       -176.4818                                         !
 ! D145  D(49,47,48,54)        -57.9709                                         !
 ! D146  D(49,47,48,55)       -178.8379                                         !
 ! D147  D(49,47,48,56)         62.8697                                         !
 ! D148  D(53,47,48,54)       -178.1444                                         !
 ! D149  D(53,47,48,55)         60.9886                                         !
 ! D150  D(53,47,48,56)        -57.3039                                         !
 ! D151  D(44,47,49,50)       -172.154                                          !
 ! D152  D(48,47,49,50)        -45.3873                                         !
 ! D153  D(53,47,49,50)         74.9444                                         !
 ! D154  D(45,57,58,59)        108.5752                                         !
 ! D155  D(45,57,58,61)        -24.7478                                         !
 ! D156  D(45,57,58,71)       -139.2668                                         !
 ! D157  D(70,57,58,59)        -95.2391                                         !
 ! D158  D(70,57,58,61)        131.4379                                         !
 ! D159  D(70,57,58,71)         16.9189                                         !
 ! D160  D(57,58,59,60)        150.7457                                         !
 ! D161  D(57,58,59,68)        -30.5872                                         !
 ! D162  D(61,58,59,60)        -74.0095                                         !
 ! D163  D(61,58,59,68)        104.6576                                         !
 ! D164  D(71,58,59,60)         38.8516                                         !
 ! D165  D(71,58,59,68)       -142.4812                                         !
 ! D166  D(57,58,61,62)       -178.2594                                         !
 ! D167  D(57,58,61,72)         62.2259                                         !
 ! D168  D(57,58,61,73)        -54.0355                                         !
 ! D169  D(59,58,61,62)         46.7621                                         !
 ! D170  D(59,58,61,72)        -72.7526                                         !
 ! D171  D(59,58,61,73)        170.986                                          !
 ! D172  D(71,58,61,62)        -64.9998                                         !
 ! D173  D(71,58,61,72)        175.4855                                         !
 ! D174  D(71,58,61,73)         59.2241                                         !
 ! D175  D(58,59,68,69)         -2.4733                                         !
 ! D176  D(60,59,68,69)        176.1624                                         !
 ! D177  D(58,61,62,63)         59.775                                          !
 ! D178  D(58,61,62,74)       -176.3341                                         !
 ! D179  D(58,61,62,75)        -62.9081                                         !
 ! D180  D(72,61,62,63)       -178.5064                                         !
 ! D181  D(72,61,62,74)        -54.6154                                         !
 ! D182  D(72,61,62,75)         58.8105                                         !
 ! D183  D(73,61,62,63)        -62.3263                                         !
 ! D184  D(73,61,62,74)         61.5646                                         !
 ! D185  D(73,61,62,75)        174.9906                                         !
 ! D186  D(61,62,63,64)         52.5747                                         !
 ! D187  D(61,62,63,76)        171.6413                                         !
 ! D188  D(61,62,63,77)        -73.3365                                         !
 ! D189  D(74,62,63,64)        -70.7055                                         !
 ! D190  D(74,62,63,76)         48.3611                                         !
 ! D191  D(74,62,63,77)        163.3833                                         !
 ! D192  D(75,62,63,64)        176.4962                                         !
 ! D193  D(75,62,63,76)        -64.4371                                         !
 ! D194  D(75,62,63,77)         50.585                                          !
 ! D195  D(62,63,64,65)       -100.2435                                         !
 ! D196  D(62,63,64,78)        136.6945                                         !
 ! D197  D(76,63,64,65)        140.3953                                         !
 ! D198  D(76,63,64,78)         17.3333                                         !
 ! D199  D(77,63,64,65)         24.3356                                         !
 ! D200  D(77,63,64,78)        -98.7264                                         !
 ! D201  D(63,64,65,66)         -4.4687                                         !
 ! D202  D(63,64,65,67)        177.6871                                         !
 ! D203  D(78,64,65,66)        120.4722                                         !
 ! D204  D(78,64,65,67)        -57.372                                          !
 ! D205  D(64,65,66,79)        -11.855                                          !
 ! D206  D(67,65,66,79)        165.7653                                         !
 ! D207  D(64,65,67,80)        -33.858                                          !
 ! D208  D(64,65,67,81)       -179.4908                                         !
 ! D209  D(66,65,67,80)        148.1547                                         !
 ! D210  D(66,65,67,81)          2.5219                                         !
 --------------------------------------------------------------------------------
 Symmetry turned off by external request.
 Stoichiometry    C26H39N8O8(1+)
 Framework group  C1[X(C26H39N8O8)]
 Deg. of freedom   237
 Full point group                 C1      NOp   1
                          Input orientation:                          
 ---------------------------------------------------------------------
 Center     Atomic      Atomic             Coordinates (Angstroms)
 Number     Number       Type             X           Y           Z
 ---------------------------------------------------------------------
      1          7           0       10.136623   33.827743   13.052492
      2          6           0        8.941849   34.714146   12.736269
      3          6           0        7.697548   34.455767   13.623574
      4          8           0        7.326030   35.368178   14.346092
      5          6           0        8.573018   34.696853   11.241953
      6          6           0        9.467220   35.547951   10.312889
      7          6           0       10.660751   34.836738    9.708842
      8          8           0       10.988966   34.953421    8.548193
      9          8           0       11.327630   34.055342   10.586114
     10          1           0       12.073585   33.491878   10.108257
     11          1           0        9.892426   32.833205   13.122169
     12          1           0        9.259700   35.717888   13.023060
     13          1           0        8.490314   33.668494   10.871450
     14          1           0        7.560435   35.108537   11.190901
     15          1           0        9.831664   36.438010   10.844268
     16          1           0        8.878649   35.914614    9.469279
     17          1           0       10.835941   33.928886   12.283593
     18          1           0       10.544282   34.051864   13.969522
     19          7           0        6.958794   33.328775   13.420313
     20          6           0        7.369646   31.989662   13.032403
     21          6           0        6.295375   31.424971   12.076559
     22          8           0        5.158441   31.865674   12.099490
     23          6           0        7.608923   31.126314   14.309672
     24          6           0        8.867963   31.545139   15.008627
     25          6           0        9.074004   32.674370   15.765623
     26          6           0       10.151526   30.881582   14.888442
     27          6           0       11.101240   31.680708   15.577476
     28          6           0       10.566039   29.662572   14.315693
     29          7           0       10.430489   32.806087   16.055472
     30          6           0       12.442531   31.304090   15.705704
     31          6           0       11.894374   29.279235   14.449240
     32          6           0       12.821788   30.093545   15.135346
     33          1           0        6.032267   33.371438   13.836836
     34          1           0        8.298815   32.050046   12.461483
     35          1           0        7.675435   30.067183   14.047012
     36          1           0        6.725791   31.231883   14.949072
     37          1           0        8.370769   33.424907   16.099674
     38          1           0       10.774035   33.367197   16.824513
     39          1           0        9.861847   29.009530   13.807927
     40          1           0       13.154299   31.918915   16.249248
     41          1           0       12.225036   28.343873   14.008929
     42          1           0       13.851745   29.762519   15.226469
     43          7           0        6.720539   30.498601   11.161776
     44          6           0        7.838207   29.572810   11.282020
     45          6           0        8.400371   29.315071    9.875657
     46          8           0        7.592329   29.187301    8.963530
     47          6           0        7.348763   28.245435   11.934351
     48          6           0        6.451311   27.367898   11.071860
     49          8           0        8.544312   27.557374   12.330863
     50          1           0        8.321194   26.662236   12.635052
     51          1           0        6.023398   30.232581   10.472111
     52          1           0        8.591574   29.987805   11.947789
     53          1           0        6.796884   28.542493   12.837599
     54          1           0        6.970649   27.021095   10.175975
     55          1           0        5.553874   27.908764   10.758903
     56          1           0        6.121706   26.499735   11.654714
     57          7           0        9.739687   29.100346    9.651221
     58          6           0       11.020188   29.522154   10.254642
     59          6           0       11.780618   28.425144   11.025609
     60          8           0       12.991972   28.478996   11.083527
     61          6           0       10.992810   30.855487   11.036075
     62          6           0       12.339776   31.318176   11.631707
     63          6           0       13.530650   31.572439   10.696509
     64          7           0       13.238934   32.492562    9.567509
     65          6           0       12.970013   31.895830    8.256862
     66          7           0       13.030774   30.658144    7.935093
     67          7           0       12.672004   32.863938    7.344515
     68          8           0       11.102307   27.456659   11.634850
     69          1           0       10.124933   27.559314   11.561730
     70          1           0        9.855341   28.831364    8.677658
     71          1           0       11.652385   29.709857    9.387130
     72          1           0       10.308440   30.771242   11.885807
     73          1           0       10.584347   31.613161   10.357484
     74          1           0       12.145359   32.232794   12.205153
     75          1           0       12.674072   30.585702   12.367012
     76          1           0       14.327667   32.030481   11.289352
     77          1           0       13.920754   30.615508   10.345854
     78          1           0       14.003561   33.156017    9.438834
     79          1           0       13.480024   30.078201    8.641503
     80          1           0       12.169092   33.696008    7.640562
     81          1           0       12.466957   32.518224    6.416308
 ---------------------------------------------------------------------
 Rotational constants (GHZ):           0.0888624           0.0803869           0.0715467
 Standard basis: 6-31G(d) (6D, 7F)
   708 basis functions,  1332 primitive gaussians,   708 cartesian basis functions
   157 alpha electrons      157 beta electrons
       nuclear repulsion energy      5829.2336126521 Hartrees.
 NAtoms=   81 NActive=   81 NUniq=   81 SFac= 1.00D+00 NAtFMM=   60 NAOKFM=T Big=T
 Integral buffers will be    131072 words long.
 Raffenetti 2 integral format.
 Two-electron integral symmetry is turned off.
 Nuclear repulsion after empirical dispersion term =     5829.0940381632 Hartrees.
 One-electron integrals computed using PRISM.
 NBasis=   708 RedAO= T EigKep=  3.51D-04  NBF=   708
 NBsUse=   708 1.00D-06 EigRej= -1.00D+00 NBFU=   708
 Initial guess from the checkpoint file:  "conf-123.chk"
 B after Tr=     0.000000    0.000000    0.000000
         Rot=    1.000000    0.000000    0.000000    0.000000 Ang=   0.00 deg.
 Requested convergence on RMS density matrix=1.00D-08 within 128 cycles.
 Requested convergence on MAX density matrix=1.00D-06.
 Requested convergence on             energy=1.00D-06.
 No special actions if energy rises.
 SCF Done:  E(RB3LYP) =  -2054.01345454     A.U. after    3 cycles
            NFock=  3  Conv=0.89D-09     -V/T= 2.0093

 **********************************************************************

            Population analysis using the SCF Density.

 **********************************************************************

 Alpha  occ. eigenvalues --  -19.31544 -19.29342 -19.27849 -19.26513 -19.24592
 Alpha  occ. eigenvalues --  -19.23342 -19.22863 -19.22496 -14.59389 -14.50782
 Alpha  occ. eigenvalues --  -14.48814 -14.47882 -14.47736 -14.47613 -14.43025
 Alpha  occ. eigenvalues --  -14.38863 -10.44854 -10.42734 -10.41211 -10.40961
 Alpha  occ. eigenvalues --  -10.40683 -10.40247 -10.38579 -10.37644 -10.37137
 Alpha  occ. eigenvalues --  -10.36432 -10.35056 -10.34640 -10.34494 -10.34263
 Alpha  occ. eigenvalues --  -10.33248 -10.33101 -10.32666 -10.32125 -10.31481
 Alpha  occ. eigenvalues --  -10.30934 -10.30631 -10.30548 -10.29961 -10.29739
 Alpha  occ. eigenvalues --  -10.29090 -10.28553  -1.22277  -1.19157  -1.17137
 Alpha  occ. eigenvalues --   -1.16354  -1.15539  -1.14932  -1.14442  -1.13421
 Alpha  occ. eigenvalues --   -1.10649  -1.10249  -1.07742  -1.05667  -1.04507
 Alpha  occ. eigenvalues --   -1.03264  -0.99284  -0.95718  -0.95049  -0.94199
 Alpha  occ. eigenvalues --   -0.93179  -0.91495  -0.89744  -0.88508  -0.87292
 Alpha  occ. eigenvalues --   -0.85204  -0.84943  -0.83896  -0.83162  -0.79908
 Alpha  occ. eigenvalues --   -0.79056  -0.78718  -0.75612  -0.74766  -0.73838
 Alpha  occ. eigenvalues --   -0.73624  -0.72486  -0.72338  -0.71795  -0.71198
 Alpha  occ. eigenvalues --   -0.70984  -0.69576  -0.69174  -0.68239  -0.67759
 Alpha  occ. eigenvalues --   -0.66352  -0.65568  -0.65525  -0.64847  -0.63815
 Alpha  occ. eigenvalues --   -0.63344  -0.62363  -0.61906  -0.61295  -0.61154
 Alpha  occ. eigenvalues --   -0.60595  -0.60029  -0.59967  -0.59441  -0.58990
 Alpha  occ. eigenvalues --   -0.58886  -0.58639  -0.57926  -0.57503  -0.57188
 Alpha  occ. eigenvalues --   -0.56523  -0.55991  -0.55565  -0.55276  -0.54759
 Alpha  occ. eigenvalues --   -0.54568  -0.54374  -0.53958  -0.53664  -0.53444
 Alpha  occ. eigenvalues --   -0.53083  -0.52977  -0.52661  -0.52543  -0.51695
 Alpha  occ. eigenvalues --   -0.51237  -0.51005  -0.50725  -0.50592  -0.49956
 Alpha  occ. eigenvalues --   -0.49707  -0.49599  -0.49322  -0.49071  -0.48696
 Alpha  occ. eigenvalues --   -0.48424  -0.48024  -0.47264  -0.46682  -0.46534
 Alpha  occ. eigenvalues --   -0.46462  -0.45387  -0.45084  -0.44872  -0.44565
 Alpha  occ. eigenvalues --   -0.44263  -0.41341  -0.40355  -0.40166  -0.40047
 Alpha  occ. eigenvalues --   -0.38980  -0.38766  -0.38391  -0.38129  -0.37590
 Alpha  occ. eigenvalues --   -0.36850  -0.36309  -0.35814  -0.34863  -0.34436
 Alpha  occ. eigenvalues --   -0.33085  -0.32852
 Alpha virt. eigenvalues --   -0.13779  -0.13052  -0.11763  -0.11201  -0.10499
 Alpha virt. eigenvalues --   -0.10113  -0.09144  -0.08074  -0.06856  -0.06620
 Alpha virt. eigenvalues --   -0.05784  -0.05191  -0.04260  -0.03567  -0.03161
 Alpha virt. eigenvalues --   -0.02527  -0.01932  -0.01708  -0.00900  -0.00672
 Alpha virt. eigenvalues --   -0.00486  -0.00225   0.00492   0.00754   0.01087
 Alpha virt. eigenvalues --    0.01273   0.01611   0.02050   0.02735   0.03354
 Alpha virt. eigenvalues --    0.03656   0.04623   0.04812   0.05423   0.05676
 Alpha virt. eigenvalues --    0.05903   0.06101   0.06214   0.06361   0.06637
 Alpha virt. eigenvalues --    0.06988   0.07491   0.07777   0.07848   0.08110
 Alpha virt. eigenvalues --    0.08230   0.08606   0.08986   0.09352   0.09591
 Alpha virt. eigenvalues --    0.09757   0.10488   0.10776   0.11247   0.11579
 Alpha virt. eigenvalues --    0.12026   0.12288   0.12630   0.12699   0.13136
 Alpha virt. eigenvalues --    0.13306   0.13503   0.14052   0.14701   0.14889
 Alpha virt. eigenvalues --    0.15307   0.15762   0.16877   0.17132   0.18098
 Alpha virt. eigenvalues --    0.18631   0.19263   0.20034   0.20450   0.20930
 Alpha virt. eigenvalues --    0.22243   0.22635   0.23874   0.24719   0.25336
 Alpha virt. eigenvalues --    0.25700   0.26115   0.27515   0.28249   0.28533
 Alpha virt. eigenvalues --    0.29907   0.30614   0.31532   0.32184   0.33508
 Alpha virt. eigenvalues --    0.34735   0.35349   0.35726   0.36872   0.37637
 Alpha virt. eigenvalues --    0.38112   0.39094   0.39445   0.39974   0.40420
 Alpha virt. eigenvalues --    0.40972   0.41930   0.42313   0.43048   0.43519
 Alpha virt. eigenvalues --    0.43662   0.43831   0.43945   0.44578   0.45087
 Alpha virt. eigenvalues --    0.45543   0.46277   0.46641   0.46911   0.47261
 Alpha virt. eigenvalues --    0.47566   0.47747   0.48372   0.48643   0.49036
 Alpha virt. eigenvalues --    0.49292   0.49878   0.50047   0.50754   0.50804
 Alpha virt. eigenvalues --    0.51061   0.51654   0.51891   0.52325   0.52931
 Alpha virt. eigenvalues --    0.53175   0.53851   0.53872   0.54244   0.54547
 Alpha virt. eigenvalues --    0.55141   0.55696   0.55878   0.56263   0.56352
 Alpha virt. eigenvalues --    0.56884   0.57298   0.57990   0.58257   0.58495
 Alpha virt. eigenvalues --    0.59360   0.60108   0.60343   0.60933   0.61739
 Alpha virt. eigenvalues --    0.62008   0.62347   0.62685   0.63324   0.63960
 Alpha virt. eigenvalues --    0.64125   0.64943   0.65830   0.66144   0.66618
 Alpha virt. eigenvalues --    0.66901   0.67557   0.68424   0.68701   0.69297
 Alpha virt. eigenvalues --    0.69507   0.70183   0.70844   0.71515   0.71918
 Alpha virt. eigenvalues --    0.71985   0.72387   0.72969   0.73165   0.73511
 Alpha virt. eigenvalues --    0.73913   0.74196   0.74283   0.74706   0.75042
 Alpha virt. eigenvalues --    0.75169   0.75421   0.76013   0.76412   0.76640
 Alpha virt. eigenvalues --    0.77104   0.77578   0.77801   0.78093   0.78676
 Alpha virt. eigenvalues --    0.79157   0.79616   0.79860   0.80090   0.80492
 Alpha virt. eigenvalues --    0.81160   0.81396   0.82002   0.82261   0.82290
 Alpha virt. eigenvalues --    0.82636   0.82974   0.83251   0.83664   0.84294
 Alpha virt. eigenvalues --    0.84598   0.84964   0.85307   0.85545   0.86400
 Alpha virt. eigenvalues --    0.87000   0.87520   0.87893   0.87978   0.88489
 Alpha virt. eigenvalues --    0.89004   0.89514   0.90487   0.91524   0.91947
 Alpha virt. eigenvalues --    0.92735   0.92902   0.93512   0.93829   0.94866
 Alpha virt. eigenvalues --    0.95405   0.95994   0.96529   0.97232   0.97693
 Alpha virt. eigenvalues --    0.98450   0.98869   0.98921   0.99327   1.00316
 Alpha virt. eigenvalues --    1.00453   1.00609   1.01396   1.01986   1.02594
 Alpha virt. eigenvalues --    1.03140   1.03723   1.04063   1.04885   1.05063
 Alpha virt. eigenvalues --    1.05644   1.06530   1.07050   1.07650   1.08199
 Alpha virt. eigenvalues --    1.09152   1.09960   1.10321   1.11120   1.11365
 Alpha virt. eigenvalues --    1.12279   1.13483   1.14469   1.14706   1.15462
 Alpha virt. eigenvalues --    1.17798   1.18646   1.19693   1.19821   1.20658
 Alpha virt. eigenvalues --    1.20969   1.21426   1.22625   1.23642   1.24217
 Alpha virt. eigenvalues --    1.25054   1.25839   1.26121   1.26903   1.28202
 Alpha virt. eigenvalues --    1.28789   1.29206   1.29457   1.30851   1.31189
 Alpha virt. eigenvalues --    1.31763   1.31967   1.32408   1.33026   1.34210
 Alpha virt. eigenvalues --    1.34271   1.35085   1.35891   1.36728   1.37135
 Alpha virt. eigenvalues --    1.37861   1.38300   1.38894   1.39770   1.39996
 Alpha virt. eigenvalues --    1.40586   1.41267   1.42085   1.42319   1.42769
 Alpha virt. eigenvalues --    1.44679   1.46269   1.46707   1.47615   1.48433
 Alpha virt. eigenvalues --    1.48955   1.49597   1.50406   1.51506   1.52864
 Alpha virt. eigenvalues --    1.53362   1.53961   1.54560   1.55445   1.56024
 Alpha virt. eigenvalues --    1.56458   1.57014   1.57299   1.57591   1.59018
 Alpha virt. eigenvalues --    1.60483   1.61148   1.61911   1.62474   1.63412
 Alpha virt. eigenvalues --    1.64363   1.65330   1.65735   1.66079   1.66626
 Alpha virt. eigenvalues --    1.67112   1.67646   1.67904   1.68619   1.68902
 Alpha virt. eigenvalues --    1.69209   1.69636   1.69897   1.70297   1.71221
 Alpha virt. eigenvalues --    1.71264   1.72220   1.72875   1.73553   1.73884
 Alpha virt. eigenvalues --    1.74038   1.74283   1.74534   1.75194   1.75255
 Alpha virt. eigenvalues --    1.75765   1.76519   1.76950   1.76994   1.77832
 Alpha virt. eigenvalues --    1.78675   1.78910   1.79622   1.80099   1.80655
 Alpha virt. eigenvalues --    1.81226   1.81697   1.81928   1.82566   1.82887
 Alpha virt. eigenvalues --    1.83499   1.84125   1.84406   1.85148   1.85387
 Alpha virt. eigenvalues --    1.86275   1.87247   1.87567   1.87811   1.88923
 Alpha virt. eigenvalues --    1.89539   1.90193   1.90743   1.91171   1.91278
 Alpha virt. eigenvalues --    1.92175   1.92526   1.93471   1.93549   1.94255
 Alpha virt. eigenvalues --    1.95440   1.95876   1.96041   1.96731   1.97478
 Alpha virt. eigenvalues --    1.98194   1.98806   1.99657   2.00158   2.01548
 Alpha virt. eigenvalues --    2.02032   2.02342   2.04052   2.04420   2.05169
 Alpha virt. eigenvalues --    2.05419   2.05794   2.06663   2.07092   2.08368
 Alpha virt. eigenvalues --    2.09392   2.10023   2.10807   2.11717   2.13117
 Alpha virt. eigenvalues --    2.13695   2.13925   2.14154   2.14810   2.16046
 Alpha virt. eigenvalues --    2.16347   2.17003   2.18491   2.19504   2.20360
 Alpha virt. eigenvalues --    2.20491   2.21310   2.22476   2.23584   2.24408
 Alpha virt. eigenvalues --    2.24869   2.25558   2.26849   2.27849   2.28546
 Alpha virt. eigenvalues --    2.29189   2.29746   2.30124   2.30862   2.31372
 Alpha virt. eigenvalues --    2.31921   2.32865   2.34162   2.34696   2.35418
 Alpha virt. eigenvalues --    2.37121   2.37648   2.38695   2.39697   2.40315
 Alpha virt. eigenvalues --    2.40794   2.41266   2.42033   2.42909   2.43693
 Alpha virt. eigenvalues --    2.44071   2.44701   2.46143   2.47049   2.48537
 Alpha virt. eigenvalues --    2.48745   2.49689   2.51022   2.51288   2.51929
 Alpha virt. eigenvalues --    2.52565   2.53094   2.53782   2.53897   2.54537
 Alpha virt. eigenvalues --    2.55705   2.56394   2.57240   2.57446   2.58008
 Alpha virt. eigenvalues --    2.58744   2.58835   2.60273   2.60738   2.61299
 Alpha virt. eigenvalues --    2.61920   2.63704   2.64116   2.65320   2.65520
 Alpha virt. eigenvalues --    2.66981   2.67888   2.69674   2.71600   2.72529
 Alpha virt. eigenvalues --    2.75126   2.75525   2.80397   2.81327   2.82691
 Alpha virt. eigenvalues --    2.84677   2.85408   2.87085   2.87986   2.88047
 Alpha virt. eigenvalues --    2.89316   2.89518   2.92292   2.92948   2.94064
 Alpha virt. eigenvalues --    2.95458   2.95974   2.96783   2.97477   2.98480
 Alpha virt. eigenvalues --    3.05307   3.07783   3.12009   3.32591   3.77179
 Alpha virt. eigenvalues --    3.77642   3.79946   3.82848   3.87626   3.89724
 Alpha virt. eigenvalues --    3.91650   3.92166   3.94109   3.95802   3.96444
 Alpha virt. eigenvalues --    3.98226   4.00396   4.00915   4.02150   4.05000
 Alpha virt. eigenvalues --    4.08776   4.12044   4.12726   4.15191   4.15916
 Alpha virt. eigenvalues --    4.19141   4.20588   4.21691   4.23502   4.24177
 Alpha virt. eigenvalues --    4.26922   4.28593   4.30214   4.30866   4.32917
 Alpha virt. eigenvalues --    4.35830   4.38782   4.45000   4.46081   4.49070
 Alpha virt. eigenvalues --    4.50197   4.52486   4.59676   4.62256   4.66260
 Alpha virt. eigenvalues --    4.69901
          Condensed to atoms (all electrons):
 Mulliken charges:
               1
     1  N   -0.814554
     2  C   -0.103588
     3  C    0.575673
     4  O   -0.469901
     5  C   -0.314683
     6  C   -0.377261
     7  C    0.614460
     8  O   -0.445313
     9  O   -0.667037
    10  H    0.476887
    11  H    0.423351
    12  H    0.223095
    13  H    0.183047
    14  H    0.225425
    15  H    0.197782
    16  H    0.222346
    17  H    0.454078
    18  H    0.417288
    19  N   -0.555797
    20  C   -0.097119
    21  C    0.610309
    22  O   -0.474107
    23  C   -0.362535
    24  C    0.041487
    25  C   -0.050176
    26  C    0.056102
    27  C    0.269780
    28  C   -0.241506
    29  N   -0.695800
    30  C   -0.166182
    31  C   -0.158766
    32  C   -0.149862
    33  H    0.369494
    34  H    0.122289
    35  H    0.182202
    36  H    0.191377
    37  H    0.203470
    38  H    0.358149
    39  H    0.168471
    40  H    0.153681
    41  H    0.184893
    42  H    0.165046
    43  N   -0.598073
    44  C   -0.095844
    45  C    0.620222
    46  O   -0.495894
    47  C    0.144212
    48  C   -0.481953
    49  O   -0.650673
    50  H    0.431280
    51  H    0.368866
    52  H    0.152284
    53  H    0.153408
    54  H    0.195741
    55  H    0.180445
    56  H    0.164367
    57  N   -0.643577
    58  C   -0.075229
    59  C    0.616987
    60  O   -0.467827
    61  C   -0.324278
    62  C   -0.276525
    63  C   -0.165234
    64  N   -0.702788
    65  C    0.578438
    66  N   -0.624766
    67  N   -0.767381
    68  O   -0.590420
    69  H    0.454775
    70  H    0.365144
    71  H    0.206416
    72  H    0.141398
    73  H    0.155103
    74  H    0.092536
    75  H    0.208024
    76  H    0.166382
    77  H    0.209694
    78  H    0.364312
    79  H    0.307005
    80  H    0.381301
    81  H    0.356124
 Sum of Mulliken charges =   1.00000
 Mulliken charges with hydrogens summed into heavy atoms:
               1
     1  N    0.480162
     2  C    0.119507
     3  C    0.575673
     4  O   -0.469901
     5  C    0.093789
     6  C    0.042867
     7  C    0.614460
     8  O   -0.445313
     9  O   -0.190150
    19  N   -0.186303
    20  C    0.025170
    21  C    0.610309
    22  O   -0.474107
    23  C    0.011044
    24  C    0.041487
    25  C    0.153294
    26  C    0.056102
    27  C    0.269780
    28  C   -0.073035
    29  N   -0.337651
    30  C   -0.012501
    31  C    0.026127
    32  C    0.015184
    43  N   -0.229207
    44  C    0.056440
    45  C    0.620222
    46  O   -0.495894
    47  C    0.297621
    48  C    0.058600
    49  O   -0.219393
    57  N   -0.278433
    58  C    0.131186
    59  C    0.616987
    60  O   -0.467827
    61  C   -0.027777
    62  C    0.024035
    63  C    0.210843
    64  N   -0.338476
    65  C    0.578438
    66  N   -0.317761
    67  N   -0.029956
    68  O   -0.135645
 Electronic spatial extent (au):  <R**2>=        1391237.0835
 Charge=              1.0000 electrons
 Dipole moment (field-independent basis, Debye):
    X=             49.2286    Y=            155.5691    Z=             63.3076  Tot=            175.0231
 Quadrupole moment (field-independent basis, Debye-Ang):
   XX=            271.0174   YY=           4829.7053   ZZ=            603.8220
   XY=           1627.2924   XZ=            650.9935   YZ=           2044.0839
 Traceless Quadrupole moment (field-independent basis, Debye-Ang):
   XX=          -1630.4976   YY=           2928.1904   ZZ=          -1297.6929
   XY=           1627.2924   XZ=            650.9935   YZ=           2044.0839
 Octapole moment (field-independent basis, Debye-Ang**2):
  XXX=          -1639.2342  YYY=         143474.8149  ZZZ=           2843.6643  XYY=          51575.9818
  XXY=           9653.5612  XXZ=           3941.9623  XZZ=           6365.6590  YZZ=          19691.3982
  YYZ=          63514.7884  XYZ=          21440.8657
 Hexadecapole moment (field-independent basis, Debye-Ang**3):
 XXXX=         -87216.0508 YYYY=        4037586.1990 ZZZZ=         -54668.6462 XXXY=         -36455.0127
 XXXZ=         -10588.4297 YYYX=        1569446.6803 YYYZ=        1896185.8372 ZZZX=          35444.4129
 ZZZY=          99550.5993 XXYY=         315251.1224 XXZZ=          31989.5104 YYZZ=         609562.5015
 XXYZ=         137783.0603 YYXZ=         680250.8931 ZZXY=         212885.5591
 N-N= 5.829094038163D+03 E-N=-1.640963794683D+04  KE= 2.035169419066D+03
 Unable to Open any file for archive entry.
 1\1\GINC-LAC-250\SP\RB3LYP\6-31G(d)\C26H39N8O8(1+)\KENGMITH\27-May-202
 2\0\\# B3LYP/6-31G* empiricaldispersion=gd3 guess=read geom=check nosy
 mm integral(ultrafinegrid)\\Candidate Structure: Conf:123 Charge calc 
 in gas phase\\1,1\N,0,10.1366231923,33.8277429702,13.0524924642\C,0,8.
 9418485055,34.7141461683,12.736268653\C,0,7.6975483654,34.4557673037,1
 3.6235738104\O,0,7.3260297044,35.3681784388,14.3460918203\C,0,8.573017
 6159,34.6968527976,11.2419529287\C,0,9.4672203362,35.5479513354,10.312
 8893729\C,0,10.6607506097,34.836738364,9.7088415346\O,0,10.9889657869,
 34.9534211115,8.5481932233\O,0,11.3276297347,34.0553415192,10.58611389
 88\H,0,12.0735849065,33.4918781136,10.1082571103\H,0,9.8924264886,32.8
 332052003,13.1221686531\H,0,9.2597001747,35.7178882137,13.0230602471\H
 ,0,8.4903141587,33.6684935424,10.871450117\H,0,7.560435345,35.10853669
 67,11.1909006802\H,0,9.831663903,36.4380100611,10.8442683464\H,0,8.878
 6486454,35.9146141739,9.4692793005\H,0,10.8359407533,33.9288860821,12.
 2835926453\H,0,10.5442820935,34.0518640341,13.9695224074\N,0,6.9587935
 906,33.3287752567,13.4203126628\C,0,7.3696458255,31.9896617557,13.0324
 027525\C,0,6.2953746153,31.4249709066,12.0765589608\O,0,5.1584410801,3
 1.8656744975,12.0994904808\C,0,7.6089227639,31.1263137204,14.309671815
 1\C,0,8.8679633873,31.5451392887,15.0086273634\C,0,9.0740036111,32.674
 3701674,15.7656232647\C,0,10.1515256168,30.8815823002,14.8884418789\C,
 0,11.1012401961,31.6807078674,15.5774764979\C,0,10.5660386617,29.66257
 15636,14.3156925572\N,0,10.4304893811,32.8060868029,16.055471697\C,0,1
 2.4425310571,31.3040904854,15.7057044927\C,0,11.8943739318,29.27923471
 38,14.4492397772\C,0,12.8217877156,30.0935445355,15.135346291\H,0,6.03
 2266752,33.3714380133,13.8368358383\H,0,8.2988151547,32.0500460756,12.
 4614828328\H,0,7.6754346155,30.067183061,14.0470117127\H,0,6.725791212
 3,31.2318827207,14.949071928\H,0,8.3707693871,33.4249069107,16.0996741
 856\H,0,10.7740352939,33.3671969719,16.8245130515\H,0,9.8618467334,29.
 009530096,13.8079265703\H,0,13.1542986775,31.9189154783,16.2492481962\
 H,0,12.2250360977,28.3438734428,14.0089288395\H,0,13.8517447047,29.762
 5189315,15.2264686641\N,0,6.7205392932,30.4986008015,11.1617755704\C,0
 ,7.8382066057,29.5728101086,11.2820200231\C,0,8.4003706233,29.31507095
 22,9.8756571192\O,0,7.5923287184,29.1873006143,8.9635300399\C,0,7.3487
 628798,28.2454346938,11.934351405\C,0,6.4513107679,27.3678977898,11.07
 18604593\O,0,8.5443115172,27.5573740616,12.3308629478\H,0,8.321193944,
 26.6622362385,12.6350515308\H,0,6.0233981336,30.2325813038,10.47211115
 38\H,0,8.5915738956,29.9878045758,11.9477890095\H,0,6.7968839606,28.54
 24933205,12.8375988458\H,0,6.9706490384,27.021094911,10.1759753892\H,0
 ,5.5538735662,27.9087643955,10.7589028382\H,0,6.121706306,26.499735001
 6,11.6547144272\N,0,9.7396870664,29.1003460447,9.6512214836\C,0,11.020
 1877776,29.5221537993,10.2546415703\C,0,11.7806182757,28.4251439221,11
 .0256086054\O,0,12.9919719698,28.4789964396,11.0835272126\C,0,10.99280
 95521,30.855486803,11.0360748173\C,0,12.3397764801,31.318175945,11.631
 70742\C,0,13.5306504767,31.5724385539,10.6965090892\N,0,13.2389340109,
 32.492561721,9.5675089604\C,0,12.9700127997,31.8958301127,8.2568621729
 \N,0,13.0307739295,30.6581442959,7.9350928415\N,0,12.6720038806,32.863
 9378422,7.3445149252\O,0,11.1023069329,27.4566586473,11.6348495258\H,0
 ,10.1249331996,27.5593142147,11.5617303697\H,0,9.8553413947,28.8313639
 882,8.6776580788\H,0,11.6523852832,29.7098573392,9.3871297547\H,0,10.3
 084398613,30.7712420295,11.8858068261\H,0,10.5843468903,31.6131608161,
 10.357483994\H,0,12.1453592422,32.2327935633,12.205152619\H,0,12.67407
 20949,30.5857020579,12.367011565\H,0,14.327667229,32.0304808199,11.289
 3523246\H,0,13.9207542644,30.6155076297,10.3458538869\H,0,14.003560501
 3,33.1560174013,9.4388336442\H,0,13.4800243306,30.0782007385,8.6415025
 977\H,0,12.1690915947,33.6960081779,7.6405619129\H,0,12.4669567593,32.
 5182238082,6.4163080284\\Version=ES64L-G16RevC.01\HF=-2054.0134545\RMS
 D=8.910e-10\Dipole=0.7202095,1.8838375,2.4291723\Quadrupole=-1212.2349
 685,2177.0378025,-964.802834,1209.8520055,483.997718,1519.7262844\PG=C
 01 [X(C26H39N8O8)]\\@
 The archive entry for this job was punched.


 IF I HAVE SEEN FARTHER, IT IS BY STANDING ON THE
 SHOULDERS OF GIANTS. -- SIR ISAAC NEWTON
 Job cpu time:       0 days  0 hours  7 minutes 18.9 seconds.
 Elapsed time:       0 days  0 hours  1 minutes 50.8 seconds.
 File lengths (MBytes):  RWF=    376 Int=      0 D2E=      0 Chk=     56 Scr=     16
 Normal termination of Gaussian 16 at Fri May 27 05:14:49 2022.
