 Entering Gaussian System, Link 0=/opt/software/Gaussian/g16-AVX2-C.01/g16/g16
 Input=charge-conf-883.com
 Output=charge-conf-883.log
 Initial command:
 /opt/software/Gaussian/g16-AVX2-C.01/g16/l1.exe "/mnt/gs18/scratch/users/kengmith/Gau-99713.inp" -scrdir="/mnt/gs18/scratch/users/kengmith/"
 Entering Link 1 = /opt/software/Gaussian/g16-AVX2-C.01/g16/l1.exe PID=     99773.
  
 Copyright (c) 1988-2019, Gaussian, Inc.  All Rights Reserved.
  
 This is part of the Gaussian(R) 16 program.  It is based on
 the Gaussian(R) 09 system (copyright 2009, Gaussian, Inc.),
 the Gaussian(R) 03 system (copyright 2003, Gaussian, Inc.),
 the Gaussian(R) 98 system (copyright 1998, Gaussian, Inc.),
 the Gaussian(R) 94 system (copyright 1995, Gaussian, Inc.),
 the Gaussian 92(TM) system (copyright 1992, Gaussian, Inc.),
 the Gaussian 90(TM) system (copyright 1990, Gaussian, Inc.),
 the Gaussian 88(TM) system (copyright 1988, Gaussian, Inc.),
 the Gaussian 86(TM) system (copyright 1986, Carnegie Mellon
 University), and the Gaussian 82(TM) system (copyright 1983,
 Carnegie Mellon University). Gaussian is a federally registered
 trademark of Gaussian, Inc.
  
 This software contains proprietary and confidential information,
 including trade secrets, belonging to Gaussian, Inc.
  
 This software is provided under written license and may be
 used, copied, transmitted, or stored only in accord with that
 written license.
  
 The following legend is applicable only to US Government
 contracts under FAR:
  
                    RESTRICTED RIGHTS LEGEND
  
 Use, reproduction and disclosure by the US Government is
 subject to restrictions as set forth in subparagraphs (a)
 and (c) of the Commercial Computer Software - Restricted
 Rights clause in FAR 52.227-19.
  
 Gaussian, Inc.
 340 Quinnipiac St., Bldg. 40, Wallingford CT 06492
  
  
 ---------------------------------------------------------------
 Warning -- This program may not be used in any manner that
 competes with the business of Gaussian, Inc. or will provide
 assistance to any competitor of Gaussian, Inc.  The licensee
 of this program is prohibited from giving any competitor of
 Gaussian, Inc. access to this program.  By using this program,
 the user acknowledges that Gaussian, Inc. is engaged in the
 business of creating and licensing software in the field of
 computational chemistry and represents and warrants to the
 licensee that it is not a competitor of Gaussian, Inc. and that
 it will not use this program in any manner prohibited above.
 ---------------------------------------------------------------
  

 Cite this work as:
 Gaussian 16, Revision C.01,
 M. J. Frisch, G. W. Trucks, H. B. Schlegel, G. E. Scuseria, 
 M. A. Robb, J. R. Cheeseman, G. Scalmani, V. Barone, 
 G. A. Petersson, H. Nakatsuji, X. Li, M. Caricato, A. V. Marenich, 
 J. Bloino, B. G. Janesko, R. Gomperts, B. Mennucci, H. P. Hratchian, 
 J. V. Ortiz, A. F. Izmaylov, J. L. Sonnenberg, D. Williams-Young, 
 F. Ding, F. Lipparini, F. Egidi, J. Goings, B. Peng, A. Petrone, 
 T. Henderson, D. Ranasinghe, V. G. Zakrzewski, J. Gao, N. Rega, 
 G. Zheng, W. Liang, M. Hada, M. Ehara, K. Toyota, R. Fukuda, 
 J. Hasegawa, M. Ishida, T. Nakajima, Y. Honda, O. Kitao, H. Nakai, 
 T. Vreven, K. Throssell, J. A. Montgomery, Jr., J. E. Peralta, 
 F. Ogliaro, M. J. Bearpark, J. J. Heyd, E. N. Brothers, K. N. Kudin, 
 V. N. Staroverov, T. A. Keith, R. Kobayashi, J. Normand, 
 K. Raghavachari, A. P. Rendell, J. C. Burant, S. S. Iyengar, 
 J. Tomasi, M. Cossi, J. M. Millam, M. Klene, C. Adamo, R. Cammi, 
 J. W. Ochterski, R. L. Martin, K. Morokuma, O. Farkas, 
 J. B. Foresman, and D. J. Fox, Gaussian, Inc., Wallingford CT, 2019.
 
 ******************************************
 Gaussian 16:  ES64L-G16RevC.01  3-Jul-2019
                27-May-2022 
 ******************************************
 %mem=8gb
 %nproc=4
 Will use up to    4 processors via shared memory.
 %chk=conf-883.chk
 ----------------------------------------------------------------------
 # B3LYP/6-31G* empiricaldispersion=gd3 guess=read geom=check nosymm in
 tegral(ultrafinegrid)
 ----------------------------------------------------------------------
 1/29=2,38=1,172=1/1;
 2/12=2,15=1,40=1/2;
 3/5=1,6=6,7=1,11=2,14=-4,25=1,30=1,74=-5,75=-5,116=-2,124=31/1,2,3;
 4/5=1/1;
 5/5=2,38=6/2;
 6/7=2,8=2,9=2,10=2,28=1/1;
 99/5=1,9=1/99;
 ------------------------------------------------------
 Candidate Structure: Conf:883 Charge calc in gas phase
 ------------------------------------------------------
 Structure from the checkpoint file:  "conf-883.chk"
 Charge =  1 Multiplicity = 1
 Redundant internal coordinates found in file.  (old form).
 N,0,10.218282491,28.814304951,12.4031526923
 C,0,11.6851949964,28.4863676667,12.170653796
 C,0,12.6265036511,28.902718263,13.3293822414
 O,0,13.2165345496,28.0106743836,13.9198609677
 C,0,12.2004973641,29.0109771658,10.8183739185
 C,0,11.8061989689,28.1831634767,9.574917468
 C,0,10.5165479294,28.5878609668,8.8905684623
 O,0,10.3980597907,28.6702836291,7.6874023514
 O,0,9.5065337537,28.8515065676,9.7480772719
 H,0,8.6692413928,29.238597087,9.2470327517
 H,0,9.7057474463,28.6944879267,11.5012184358
 H,0,11.7292019563,27.3960940417,12.180849175
 H,0,11.9407333015,30.0674056608,10.6838906256
 H,0,13.2916375775,28.9858605383,10.8972016291
 H,0,11.7373147147,27.1171132251,9.8322209303
 H,0,12.586454388,28.2647523396,8.8152437622
 H,0,9.8133173801,28.2352338476,13.1499609156
 H,0,10.0673255197,29.7780934957,12.7228892561
 N,0,12.9148001929,30.2223916938,13.5094830433
 C,0,12.0897113568,31.4028268252,13.3138070024
 C,0,12.9880750288,32.5151443899,12.7287304072
 O,0,14.1954052467,32.4839763867,12.8981230101
 C,0,11.3929258837,31.7811550024,14.6574447093
 C,0,10.3025707217,30.8052743516,14.9864777513
 C,0,10.4381025362,29.5176507151,15.4497085364
 C,0,8.8894485392,31.0141506538,14.7377217415
 C,0,8.2263394781,29.7978123784,15.0478559738
 C,0,8.1265325471,32.1308934475,14.3418757447
 N,0,9.2020812238,28.8754355041,15.4242384512
 C,0,6.8359452268,29.6633758078,14.9694493507
 C,0,6.7449821323,32.0055160181,14.2727976054
 C,0,6.108356475,30.7834363537,14.5814230518
 H,0,13.7319887014,30.3822822514,14.0929083665
 H,0,11.3263121727,31.1873854455,12.5629965533
 H,0,10.9721980159,32.7884782397,14.5983837712
 H,0,12.1665749691,31.8138090184,15.4322581032
 H,0,11.3228058334,28.9831832147,15.7676525312
 H,0,8.9997067285,28.0546099512,15.9805934203
 H,0,8.5956245055,33.0868165089,14.1266989678
 H,0,6.3415516375,28.7303670795,15.2246481205
 H,0,6.1480271136,32.8585436138,13.9660342921
 H,0,5.0261329524,30.7201012992,14.5225123445
 N,0,12.3662076795,33.450736413,11.9452893946
 C,0,10.9801157081,33.892086766,12.0121939527
 C,0,10.5387386019,34.301556501,10.5988213852
 O,0,11.3479370071,34.9166916442,9.9147277738
 C,0,10.8610131095,35.0921047353,12.9985421081
 C,0,11.463844512,36.408270446,12.5257216486
 O,0,9.4575166775,35.2170520537,13.2718859758
 H,0,9.2949079152,36.0250786544,13.7859479949
 H,0,12.9946222865,34.0991825956,11.4794429536
 H,0,10.3580583513,33.0956410419,12.4143364284
 H,0,11.3724754355,34.7743185773,13.9183511652
 H,0,10.9616674412,36.7803188153,11.6301628836
 H,0,12.5277990647,36.2961993413,12.2992360567
 H,0,11.3772756465,37.1560584869,13.3228127475
 N,0,9.2519278006,34.1151827328,10.1519180174
 C,0,8.1542806231,33.1541554724,10.3833569997
 C,0,6.9544800461,33.7013969228,11.1814358128
 O,0,5.8511425346,33.2385757224,10.9763855973
 C,0,8.5760589321,31.7513464775,10.8767888709
 C,0,7.4331531507,30.7334826161,11.0789577458
 C,0,6.5445742261,30.3498373035,9.8871395758
 N,0,7.2914344214,29.8999792616,8.6846174564
 C,0,7.4785992113,30.8666724618,7.5999925874
 N,0,7.0055636043,32.0537794371,7.5218176671
 N,0,8.2210405015,30.3190195614,6.5962759186
 O,0,7.1478670865,34.6472193526,12.096514306
 H,0,8.0953384243,34.8943151505,12.2077122855
 H,0,9.1648946453,34.5716716907,9.2477034083
 H,0,7.7476134476,32.9980815548,9.3844887977
 H,0,9.0707533162,31.8352797045,11.8493215428
 H,0,9.3155426124,31.3722034903,10.1620731838
 H,0,7.8799676727,29.8194172822,11.4889533614
 H,0,6.764608368,31.0994130963,11.8587501359
 H,0,5.9066641306,29.518694935,10.2014299794
 H,0,5.874930472,31.1805552121,9.6583573432
 H,0,6.848333642,29.0774535907,8.2741496425
 H,0,6.2920406372,32.2515559359,8.2210591115
 H,0,8.955679338,29.6534382703,6.8203539738
 H,0,8.3954793281,30.9388055297,5.81616248
 Recover connectivity data from disk.
                           ----------------------------
                           !    Current Parameters    !
                           ! (Angstroms and Degrees)  !
 --------------------------                            --------------------------
 ! Name  Definition              Value                                          !
 --------------------------------------------------------------------------------
 ! R1    R(1,2)                  1.521                                          !
 ! R2    R(1,11)                 1.0443                                         !
 ! R3    R(1,17)                 1.0281                                         !
 ! R4    R(1,18)                 1.0266                                         !
 ! R5    R(2,3)                  1.5499                                         !
 ! R6    R(2,5)                  1.5393                                         !
 ! R7    R(2,12)                 1.0912                                         !
 ! R8    R(3,4)                  1.2217                                         !
 ! R9    R(3,19)                 1.3628                                         !
 ! R10   R(5,6)                  1.545                                          !
 ! R11   R(5,13)                 1.0962                                         !
 ! R12   R(5,14)                 1.0943                                         !
 ! R13   R(6,7)                  1.515                                          !
 ! R14   R(6,15)                 1.0988                                         !
 ! R15   R(6,16)                 1.092                                          !
 ! R16   R(7,8)                  1.2118                                         !
 ! R17   R(7,9)                  1.3509                                         !
 ! R18   R(9,10)                 1.0497                                         !
 ! R19   R(19,20)                1.4534                                         !
 ! R20   R(19,33)                1.0167                                         !
 ! R21   R(20,21)                1.5449                                         !
 ! R22   R(20,23)                1.5601                                         !
 ! R23   R(20,34)                1.0922                                         !
 ! R24   R(21,22)                1.2196                                         !
 ! R25   R(21,43)                1.3696                                         !
 ! R26   R(23,24)                1.4998                                         !
 ! R27   R(23,35)                1.0933                                         !
 ! R28   R(23,36)                1.0954                                         !
 ! R29   R(24,25)                1.3751                                         !
 ! R30   R(24,26)                1.45                                           !
 ! R31   R(25,29)                1.3931                                         !
 ! R32   R(25,37)                1.0814                                         !
 ! R33   R(26,27)                1.4196                                         !
 ! R34   R(26,28)                1.4092                                         !
 ! R35   R(27,29)                1.3945                                         !
 ! R36   R(27,30)                1.3991                                         !
 ! R37   R(28,31)                1.3889                                         !
 ! R38   R(28,39)                1.0863                                         !
 ! R39   R(29,38)                1.012                                          !
 ! R40   R(30,32)                1.3909                                         !
 ! R41   R(30,40)                1.0863                                         !
 ! R42   R(31,32)                1.4121                                         !
 ! R43   R(31,41)                1.0854                                         !
 ! R44   R(32,42)                1.0857                                         !
 ! R45   R(43,44)                1.4562                                         !
 ! R46   R(43,51)                1.0161                                         !
 ! R47   R(44,45)                1.5363                                         !
 ! R48   R(44,47)                1.5579                                         !
 ! R49   R(44,52)                1.0877                                         !
 ! R50   R(45,46)                1.2252                                         !
 ! R51   R(45,57)                1.3749                                         !
 ! R52   R(47,48)                1.5229                                         !
 ! R53   R(47,49)                1.4353                                         !
 ! R54   R(47,53)                1.0994                                         !
 ! R55   R(48,54)                1.0921                                         !
 ! R56   R(48,55)                1.0936                                         !
 ! R57   R(48,56)                1.0964                                         !
 ! R58   R(49,50)                0.9714                                         !
 ! R59   R(57,58)                1.4771                                         !
 ! R60   R(57,70)                1.0166                                         !
 ! R61   R(58,59)                1.5414                                         !
 ! R62   R(58,61)                1.5457                                         !
 ! R63   R(58,71)                1.0897                                         !
 ! R64   R(59,60)                1.2139                                         !
 ! R65   R(59,68)                1.3302                                         !
 ! R66   R(61,62)                1.5437                                         !
 ! R67   R(61,72)                1.0943                                         !
 ! R68   R(61,73)                1.0961                                         !
 ! R69   R(62,63)                1.5353                                         !
 ! R70   R(62,74)                1.0969                                         !
 ! R71   R(62,75)                1.0904                                         !
 ! R72   R(63,64)                1.4853                                         !
 ! R73   R(63,76)                1.0938                                         !
 ! R74   R(63,77)                1.0913                                         !
 ! R75   R(64,65)                1.4649                                         !
 ! R76   R(64,78)                1.0205                                         !
 ! R77   R(65,66)                1.2803                                         !
 ! R78   R(65,67)                1.3633                                         !
 ! R79   R(66,79)                1.0184                                         !
 ! R80   R(67,80)                1.0163                                         !
 ! R81   R(67,81)                1.0115                                         !
 ! R82   R(68,69)                0.9855                                         !
 ! A1    A(2,1,11)             108.4566                                         !
 ! A2    A(2,1,17)             111.6835                                         !
 ! A3    A(2,1,18)             113.0691                                         !
 ! A4    A(11,1,17)            111.6798                                         !
 ! A5    A(11,1,18)            107.7306                                         !
 ! A6    A(17,1,18)            104.1593                                         !
 ! A7    A(1,2,3)              114.4281                                         !
 ! A8    A(1,2,5)              112.5612                                         !
 ! A9    A(1,2,12)             104.6485                                         !
 ! A10   A(3,2,5)              111.2187                                         !
 ! A11   A(3,2,12)             103.7053                                         !
 ! A12   A(5,2,12)             109.5864                                         !
 ! A13   A(2,3,4)              117.2921                                         !
 ! A14   A(2,3,19)             119.1726                                         !
 ! A15   A(4,3,19)             122.7543                                         !
 ! A16   A(2,5,6)              116.0409                                         !
 ! A17   A(2,5,13)             110.9101                                         !
 ! A18   A(2,5,14)             105.2304                                         !
 ! A19   A(6,5,13)             110.9261                                         !
 ! A20   A(6,5,14)             107.4674                                         !
 ! A21   A(13,5,14)            105.5009                                         !
 ! A22   A(5,6,7)              115.9555                                         !
 ! A23   A(5,6,15)             110.3263                                         !
 ! A24   A(5,6,16)             109.7249                                         !
 ! A25   A(7,6,15)             108.1535                                         !
 ! A26   A(7,6,16)             105.9035                                         !
 ! A27   A(15,6,16)            106.2703                                         !
 ! A28   A(6,7,8)              123.3597                                         !
 ! A29   A(6,7,9)              113.6931                                         !
 ! A30   A(8,7,9)              122.9472                                         !
 ! A31   A(7,9,10)             111.4282                                         !
 ! A32   A(3,19,20)            130.4365                                         !
 ! A33   A(3,19,33)            113.4632                                         !
 ! A34   A(20,19,33)           113.9412                                         !
 ! A35   A(19,20,21)           107.7966                                         !
 ! A36   A(19,20,23)           109.5445                                         !
 ! A37   A(19,20,34)           109.2158                                         !
 ! A38   A(21,20,23)           114.2856                                         !
 ! A39   A(21,20,34)           106.7461                                         !
 ! A40   A(23,20,34)           109.1294                                         !
 ! A41   A(20,21,22)           120.3102                                         !
 ! A42   A(20,21,43)           116.3878                                         !
 ! A43   A(22,21,43)           123.1208                                         !
 ! A44   A(20,23,24)           110.845                                          !
 ! A45   A(20,23,35)           110.4132                                         !
 ! A46   A(20,23,36)           107.5159                                         !
 ! A47   A(24,23,35)           109.3658                                         !
 ! A48   A(24,23,36)           112.1892                                         !
 ! A49   A(35,23,36)           106.412                                          !
 ! A50   A(23,24,25)           127.6992                                         !
 ! A51   A(23,24,26)           125.2498                                         !
 ! A52   A(25,24,26)           106.7825                                         !
 ! A53   A(24,25,29)           109.7582                                         !
 ! A54   A(24,25,37)           129.9758                                         !
 ! A55   A(29,25,37)           120.2238                                         !
 ! A56   A(24,26,27)           107.1168                                         !
 ! A57   A(24,26,28)           133.6279                                         !
 ! A58   A(27,26,28)           119.1742                                         !
 ! A59   A(26,27,29)           107.389                                          !
 ! A60   A(26,27,30)           122.2954                                         !
 ! A61   A(29,27,30)           130.3122                                         !
 ! A62   A(26,28,31)           118.7465                                         !
 ! A63   A(26,28,39)           121.2781                                         !
 ! A64   A(31,28,39)           119.9398                                         !
 ! A65   A(25,29,27)           108.7128                                         !
 ! A66   A(25,29,38)           122.7685                                         !
 ! A67   A(27,29,38)           123.0204                                         !
 ! A68   A(27,30,32)           117.2665                                         !
 ! A69   A(27,30,40)           121.4433                                         !
 ! A70   A(32,30,40)           121.2732                                         !
 ! A71   A(28,31,32)           121.0434                                         !
 ! A72   A(28,31,41)           119.3515                                         !
 ! A73   A(32,31,41)           119.6017                                         !
 ! A74   A(30,32,31)           121.4711                                         !
 ! A75   A(30,32,42)           119.3155                                         !
 ! A76   A(31,32,42)           119.2113                                         !
 ! A77   A(21,43,44)           127.8028                                         !
 ! A78   A(21,43,51)           114.6701                                         !
 ! A79   A(44,43,51)           114.6037                                         !
 ! A80   A(43,44,45)           108.179                                          !
 ! A81   A(43,44,47)           109.5916                                         !
 ! A82   A(43,44,52)           109.8428                                         !
 ! A83   A(45,44,47)           110.806                                          !
 ! A84   A(45,44,52)           111.7781                                         !
 ! A85   A(47,44,52)           106.6323                                         !
 ! A86   A(44,45,46)           117.2416                                         !
 ! A87   A(44,45,57)           122.128                                          !
 ! A88   A(46,45,57)           120.3118                                         !
 ! A89   A(44,47,48)           116.032                                          !
 ! A90   A(44,47,49)           105.2114                                         !
 ! A91   A(44,47,53)           105.7528                                         !
 ! A92   A(48,47,49)           111.7748                                         !
 ! A93   A(48,47,53)           108.9911                                         !
 ! A94   A(49,47,53)           108.7079                                         !
 ! A95   A(47,48,54)           111.5314                                         !
 ! A96   A(47,48,55)           111.153                                          !
 ! A97   A(47,48,56)           109.4198                                         !
 ! A98   A(54,48,55)           108.2079                                         !
 ! A99   A(54,48,56)           109.1188                                         !
 ! A100  A(55,48,56)           107.2953                                         !
 ! A101  A(47,49,50)           109.6869                                         !
 ! A102  A(45,57,58)           137.1167                                         !
 ! A103  A(45,57,70)           107.9602                                         !
 ! A104  A(58,57,70)           111.5841                                         !
 ! A105  A(57,58,59)           115.3754                                         !
 ! A106  A(57,58,61)           115.957                                          !
 ! A107  A(57,58,71)           103.1131                                         !
 ! A108  A(59,58,61)           111.6736                                         !
 ! A109  A(59,58,71)           103.5895                                         !
 ! A110  A(61,58,71)           105.3349                                         !
 ! A111  A(58,59,60)           118.9901                                         !
 ! A112  A(58,59,68)           119.7007                                         !
 ! A113  A(60,59,68)           121.2949                                         !
 ! A114  A(58,61,62)           115.9875                                         !
 ! A115  A(58,61,72)           109.7207                                         !
 ! A116  A(58,61,73)           106.8498                                         !
 ! A117  A(62,61,72)           105.5963                                         !
 ! A118  A(62,61,73)           110.9039                                         !
 ! A119  A(72,61,73)           107.5197                                         !
 ! A120  A(61,62,63)           119.4445                                         !
 ! A121  A(61,62,74)           107.2662                                         !
 ! A122  A(61,62,75)           109.0449                                         !
 ! A123  A(63,62,74)           108.5219                                         !
 ! A124  A(63,62,75)           106.5086                                         !
 ! A125  A(74,62,75)           105.1946                                         !
 ! A126  A(62,63,64)           114.4017                                         !
 ! A127  A(62,63,76)           107.7189                                         !
 ! A128  A(62,63,77)           109.1277                                         !
 ! A129  A(64,63,76)           107.201                                          !
 ! A130  A(64,63,77)           111.6771                                         !
 ! A131  A(76,63,77)           106.3075                                         !
 ! A132  A(63,64,65)           117.6333                                         !
 ! A133  A(63,64,78)           110.5749                                         !
 ! A134  A(65,64,78)           106.8315                                         !
 ! A135  A(64,65,66)           127.5812                                         !
 ! A136  A(64,65,67)           110.4633                                         !
 ! A137  A(66,65,67)           121.9203                                         !
 ! A138  A(65,66,79)           113.3914                                         !
 ! A139  A(65,67,80)           119.6306                                         !
 ! A140  A(65,67,81)           114.5566                                         !
 ! A141  A(80,67,81)           116.5298                                         !
 ! A142  A(59,68,69)           113.3096                                         !
 ! D1    D(11,1,2,3)           167.6633                                         !
 ! D2    D(11,1,2,5)            39.4081                                         !
 ! D3    D(11,1,2,12)          -79.5259                                         !
 ! D4    D(17,1,2,3)           -68.8452                                         !
 ! D5    D(17,1,2,5)           162.8996                                         !
 ! D6    D(17,1,2,12)           43.9657                                         !
 ! D7    D(18,1,2,3)            48.2499                                         !
 ! D8    D(18,1,2,5)           -80.0053                                         !
 ! D9    D(18,1,2,12)          161.0608                                         !
 ! D10   D(1,2,3,4)            116.3956                                         !
 ! D11   D(1,2,3,19)           -73.4434                                         !
 ! D12   D(5,2,3,4)           -114.6733                                         !
 ! D13   D(5,2,3,19)            55.4877                                         !
 ! D14   D(12,2,3,4)             3.0259                                         !
 ! D15   D(12,2,3,19)          173.1869                                         !
 ! D16   D(1,2,5,6)            -77.7518                                         !
 ! D17   D(1,2,5,13)            49.9989                                         !
 ! D18   D(1,2,5,14)           163.6103                                         !
 ! D19   D(3,2,5,6)            152.3299                                         !
 ! D20   D(3,2,5,13)           -79.9194                                         !
 ! D21   D(3,2,5,14)            33.692                                          !
 ! D22   D(12,2,5,6)            38.256                                          !
 ! D23   D(12,2,5,13)          166.0067                                         !
 ! D24   D(12,2,5,14)          -80.3819                                         !
 ! D25   D(2,3,19,20)           35.1469                                         !
 ! D26   D(2,3,19,33)         -162.8458                                         !
 ! D27   D(4,3,19,20)         -155.2559                                         !
 ! D28   D(4,3,19,33)            6.7514                                         !
 ! D29   D(2,5,6,7)             90.7629                                         !
 ! D30   D(2,5,6,15)           -32.5933                                         !
 ! D31   D(2,5,6,16)          -149.3506                                         !
 ! D32   D(13,5,6,7)           -36.9799                                         !
 ! D33   D(13,5,6,15)         -160.3362                                         !
 ! D34   D(13,5,6,16)           82.9065                                         !
 ! D35   D(14,5,6,7)          -151.8324                                         !
 ! D36   D(14,5,6,15)           84.8113                                         !
 ! D37   D(14,5,6,16)          -31.946                                          !
 ! D38   D(5,6,7,8)            136.7445                                         !
 ! D39   D(5,6,7,9)            -43.1673                                         !
 ! D40   D(15,6,7,8)           -98.7714                                         !
 ! D41   D(15,6,7,9)            81.3168                                         !
 ! D42   D(16,6,7,8)            14.8068                                         !
 ! D43   D(16,6,7,9)          -165.105                                          !
 ! D44   D(6,7,9,10)           173.1144                                         !
 ! D45   D(8,7,9,10)            -6.7979                                         !
 ! D46   D(3,19,20,21)        -142.1164                                         !
 ! D47   D(3,19,20,23)          92.9717                                         !
 ! D48   D(3,19,20,34)         -26.4996                                         !
 ! D49   D(33,19,20,21)         55.9446                                         !
 ! D50   D(33,19,20,23)        -68.9674                                         !
 ! D51   D(33,19,20,34)        171.5614                                         !
 ! D52   D(19,20,21,22)        -23.1695                                         !
 ! D53   D(19,20,21,43)        152.089                                          !
 ! D54   D(23,20,21,22)         98.8563                                         !
 ! D55   D(23,20,21,43)        -85.8852                                         !
 ! D56   D(34,20,21,22)       -140.3994                                         !
 ! D57   D(34,20,21,43)         34.859                                          !
 ! D58   D(19,20,23,24)        -72.5344                                         !
 ! D59   D(19,20,23,35)        166.1131                                         !
 ! D60   D(19,20,23,36)         50.4176                                         !
 ! D61   D(21,20,23,24)        166.4019                                         !
 ! D62   D(21,20,23,35)         45.0494                                         !
 ! D63   D(21,20,23,36)        -70.6461                                         !
 ! D64   D(34,20,23,24)         46.99                                           !
 ! D65   D(34,20,23,35)        -74.3626                                         !
 ! D66   D(34,20,23,36)        169.9419                                         !
 ! D67   D(20,21,43,44)         27.9715                                         !
 ! D68   D(20,21,43,51)       -172.6102                                         !
 ! D69   D(22,21,43,44)       -156.9164                                         !
 ! D70   D(22,21,43,51)          2.5019                                         !
 ! D71   D(20,23,24,25)         74.4226                                         !
 ! D72   D(20,23,24,26)        -98.8244                                         !
 ! D73   D(35,23,24,25)       -163.6102                                         !
 ! D74   D(35,23,24,26)         23.1427                                         !
 ! D75   D(36,23,24,25)        -45.7833                                         !
 ! D76   D(36,23,24,26)        140.9696                                         !
 ! D77   D(23,24,25,29)       -170.3934                                         !
 ! D78   D(23,24,25,37)          7.2019                                         !
 ! D79   D(26,24,25,29)          3.8501                                         !
 ! D80   D(26,24,25,37)       -178.5546                                         !
 ! D81   D(23,24,26,27)        173.2852                                         !
 ! D82   D(23,24,26,28)        -10.1382                                         !
 ! D83   D(25,24,26,27)         -1.1381                                         !
 ! D84   D(25,24,26,28)        175.4386                                         !
 ! D85   D(24,25,29,27)         -5.1906                                         !
 ! D86   D(24,25,29,38)       -159.6489                                         !
 ! D87   D(37,25,29,27)        176.9419                                         !
 ! D88   D(37,25,29,38)         22.4836                                         !
 ! D89   D(24,26,27,29)         -1.9557                                         !
 ! D90   D(24,26,27,30)        177.4404                                         !
 ! D91   D(28,26,27,29)       -179.1183                                         !
 ! D92   D(28,26,27,30)          0.2778                                         !
 ! D93   D(24,26,28,31)       -176.0135                                         !
 ! D94   D(24,26,28,39)          1.8152                                         !
 ! D95   D(27,26,28,31)          0.239                                          !
 ! D96   D(27,26,28,39)        178.0677                                         !
 ! D97   D(26,27,29,25)          4.3288                                         !
 ! D98   D(26,27,29,38)        158.7091                                         !
 ! D99   D(30,27,29,25)       -175.0017                                         !
 ! D100  D(30,27,29,38)        -20.6214                                         !
 ! D101  D(26,27,30,32)         -0.5329                                         !
 ! D102  D(26,27,30,40)       -179.051                                          !
 ! D103  D(29,27,30,32)        178.7113                                         !
 ! D104  D(29,27,30,40)          0.1932                                         !
 ! D105  D(26,28,31,32)         -0.4841                                         !
 ! D106  D(26,28,31,41)       -179.8094                                         !
 ! D107  D(39,28,31,32)       -178.3426                                         !
 ! D108  D(39,28,31,41)          2.3321                                         !
 ! D109  D(27,30,32,31)          0.2841                                         !
 ! D110  D(27,30,32,42)       -179.18                                           !
 ! D111  D(40,30,32,31)        178.8049                                         !
 ! D112  D(40,30,32,42)         -0.6592                                         !
 ! D113  D(28,31,32,30)          0.2228                                         !
 ! D114  D(28,31,32,42)        179.6875                                         !
 ! D115  D(41,31,32,30)        179.5464                                         !
 ! D116  D(41,31,32,42)         -0.9889                                         !
 ! D117  D(21,43,44,45)       -149.6113                                         !
 ! D118  D(21,43,44,47)         89.477                                          !
 ! D119  D(21,43,44,52)        -27.3587                                         !
 ! D120  D(51,43,44,45)         50.959                                          !
 ! D121  D(51,43,44,47)        -69.9527                                         !
 ! D122  D(51,43,44,52)        173.2116                                         !
 ! D123  D(43,44,45,46)        -40.2246                                         !
 ! D124  D(43,44,45,57)        146.2426                                         !
 ! D125  D(47,44,45,46)         79.9296                                         !
 ! D126  D(47,44,45,57)        -93.6032                                         !
 ! D127  D(52,44,45,46)       -161.2842                                         !
 ! D128  D(52,44,45,57)         25.183                                          !
 ! D129  D(43,44,47,48)         70.9522                                         !
 ! D130  D(43,44,47,49)       -164.9479                                         !
 ! D131  D(43,44,47,53)        -49.9832                                         !
 ! D132  D(45,44,47,48)        -48.3559                                         !
 ! D133  D(45,44,47,49)         75.744                                          !
 ! D134  D(45,44,47,53)       -169.2913                                         !
 ! D135  D(52,44,47,48)       -170.2085                                         !
 ! D136  D(52,44,47,49)        -46.1086                                         !
 ! D137  D(52,44,47,53)         68.8561                                         !
 ! D138  D(44,45,57,58)        -31.0461                                         !
 ! D139  D(44,45,57,70)        172.4189                                         !
 ! D140  D(46,45,57,58)        155.6152                                         !
 ! D141  D(46,45,57,70)         -0.9198                                         !
 ! D142  D(44,47,48,54)         62.7515                                         !
 ! D143  D(44,47,48,55)        -58.1013                                         !
 ! D144  D(44,47,48,56)       -176.4226                                         !
 ! D145  D(49,47,48,54)        -57.8821                                         !
 ! D146  D(49,47,48,55)       -178.735                                          !
 ! D147  D(49,47,48,56)         62.9438                                         !
 ! D148  D(53,47,48,54)       -178.0639                                         !
 ! D149  D(53,47,48,55)         61.0833                                         !
 ! D150  D(53,47,48,56)        -57.238                                          !
 ! D151  D(44,47,49,50)       -172.212                                          !
 ! D152  D(48,47,49,50)        -45.4589                                         !
 ! D153  D(53,47,49,50)         74.8886                                         !
 ! D154  D(45,57,58,59)        108.7933                                         !
 ! D155  D(45,57,58,61)        -24.4824                                         !
 ! D156  D(45,57,58,71)       -139.0274                                         !
 ! D157  D(70,57,58,59)        -95.2452                                         !
 ! D158  D(70,57,58,61)        131.4791                                         !
 ! D159  D(70,57,58,71)         16.9341                                         !
 ! D160  D(57,58,59,60)        150.7103                                         !
 ! D161  D(57,58,59,68)        -30.6486                                         !
 ! D162  D(61,58,59,60)        -74.0722                                         !
 ! D163  D(61,58,59,68)        104.5688                                         !
 ! D164  D(71,58,59,60)         38.8104                                         !
 ! D165  D(71,58,59,68)       -142.5486                                         !
 ! D166  D(57,58,61,62)       -178.26                                           !
 ! D167  D(57,58,61,72)         62.2368                                         !
 ! D168  D(57,58,61,73)        -54.0396                                         !
 ! D169  D(59,58,61,62)         46.8012                                         !
 ! D170  D(59,58,61,72)        -72.7019                                         !
 ! D171  D(59,58,61,73)        171.0217                                         !
 ! D172  D(71,58,61,62)        -64.9855                                         !
 ! D173  D(71,58,61,72)        175.5113                                         !
 ! D174  D(71,58,61,73)         59.235                                          !
 ! D175  D(58,59,68,69)         -2.4626                                         !
 ! D176  D(60,59,68,69)        176.1463                                         !
 ! D177  D(58,61,62,63)         59.7495                                         !
 ! D178  D(58,61,62,74)       -176.3704                                         !
 ! D179  D(58,61,62,75)        -62.9387                                         !
 ! D180  D(72,61,62,63)       -178.5277                                         !
 ! D181  D(72,61,62,74)        -54.6476                                         !
 ! D182  D(72,61,62,75)         58.7841                                         !
 ! D183  D(73,61,62,63)        -62.3487                                         !
 ! D184  D(73,61,62,74)         61.5313                                         !
 ! D185  D(73,61,62,75)        174.963                                          !
 ! D186  D(61,62,63,64)         52.5995                                         !
 ! D187  D(61,62,63,76)        171.6676                                         !
 ! D188  D(61,62,63,77)        -73.32                                           !
 ! D189  D(74,62,63,64)        -70.6697                                         !
 ! D190  D(74,62,63,76)         48.3984                                         !
 ! D191  D(74,62,63,77)        163.4108                                         !
 ! D192  D(75,62,63,64)        176.5255                                         !
 ! D193  D(75,62,63,76)        -64.4063                                         !
 ! D194  D(75,62,63,77)         50.606                                          !
 ! D195  D(62,63,64,65)       -100.303                                          !
 ! D196  D(62,63,64,78)        136.6295                                         !
 ! D197  D(76,63,64,65)        140.3376                                         !
 ! D198  D(76,63,64,78)         17.2701                                         !
 ! D199  D(77,63,64,65)         24.2745                                         !
 ! D200  D(77,63,64,78)        -98.793                                          !
 ! D201  D(63,64,65,66)         -4.3771                                         !
 ! D202  D(63,64,65,67)        177.7708                                         !
 ! D203  D(78,64,65,66)        120.5692                                         !
 ! D204  D(78,64,65,67)        -57.2828                                         !
 ! D205  D(64,65,66,79)        -11.851                                          !
 ! D206  D(67,65,66,79)        165.778                                          !
 ! D207  D(64,65,67,80)        -33.905                                          !
 ! D208  D(64,65,67,81)       -179.4783                                         !
 ! D209  D(66,65,67,80)        148.1004                                         !
 ! D210  D(66,65,67,81)          2.5271                                         !
 --------------------------------------------------------------------------------
 Symmetry turned off by external request.
 Stoichiometry    C26H39N8O8(1+)
 Framework group  C1[X(C26H39N8O8)]
 Deg. of freedom   237
 Full point group                 C1      NOp   1
                          Input orientation:                          
 ---------------------------------------------------------------------
 Center     Atomic      Atomic             Coordinates (Angstroms)
 Number     Number       Type             X           Y           Z
 ---------------------------------------------------------------------
      1          7           0       10.218282   28.814305   12.403153
      2          6           0       11.685195   28.486368   12.170654
      3          6           0       12.626504   28.902718   13.329382
      4          8           0       13.216535   28.010674   13.919861
      5          6           0       12.200497   29.010977   10.818374
      6          6           0       11.806199   28.183163    9.574917
      7          6           0       10.516548   28.587861    8.890568
      8          8           0       10.398060   28.670284    7.687402
      9          8           0        9.506534   28.851507    9.748077
     10          1           0        8.669241   29.238597    9.247033
     11          1           0        9.705747   28.694488   11.501218
     12          1           0       11.729202   27.396094   12.180849
     13          1           0       11.940733   30.067406   10.683891
     14          1           0       13.291638   28.985861   10.897202
     15          1           0       11.737315   27.117113    9.832221
     16          1           0       12.586454   28.264752    8.815244
     17          1           0        9.813317   28.235234   13.149961
     18          1           0       10.067326   29.778093   12.722889
     19          7           0       12.914800   30.222392   13.509483
     20          6           0       12.089711   31.402827   13.313807
     21          6           0       12.988075   32.515144   12.728730
     22          8           0       14.195405   32.483976   12.898123
     23          6           0       11.392926   31.781155   14.657445
     24          6           0       10.302571   30.805274   14.986478
     25          6           0       10.438103   29.517651   15.449709
     26          6           0        8.889449   31.014151   14.737722
     27          6           0        8.226339   29.797812   15.047856
     28          6           0        8.126533   32.130893   14.341876
     29          7           0        9.202081   28.875436   15.424238
     30          6           0        6.835945   29.663376   14.969449
     31          6           0        6.744982   32.005516   14.272798
     32          6           0        6.108356   30.783436   14.581423
     33          1           0       13.731989   30.382282   14.092908
     34          1           0       11.326312   31.187385   12.562997
     35          1           0       10.972198   32.788478   14.598384
     36          1           0       12.166575   31.813809   15.432258
     37          1           0       11.322806   28.983183   15.767653
     38          1           0        8.999707   28.054610   15.980593
     39          1           0        8.595625   33.086817   14.126699
     40          1           0        6.341552   28.730367   15.224648
     41          1           0        6.148027   32.858544   13.966034
     42          1           0        5.026133   30.720101   14.522512
     43          7           0       12.366208   33.450736   11.945289
     44          6           0       10.980116   33.892087   12.012194
     45          6           0       10.538739   34.301557   10.598821
     46          8           0       11.347937   34.916692    9.914728
     47          6           0       10.861013   35.092105   12.998542
     48          6           0       11.463845   36.408270   12.525722
     49          8           0        9.457517   35.217052   13.271886
     50          1           0        9.294908   36.025079   13.785948
     51          1           0       12.994622   34.099183   11.479443
     52          1           0       10.358058   33.095641   12.414336
     53          1           0       11.372475   34.774319   13.918351
     54          1           0       10.961667   36.780319   11.630163
     55          1           0       12.527799   36.296199   12.299236
     56          1           0       11.377276   37.156058   13.322813
     57          7           0        9.251928   34.115183   10.151918
     58          6           0        8.154281   33.154155   10.383357
     59          6           0        6.954480   33.701397   11.181436
     60          8           0        5.851143   33.238576   10.976386
     61          6           0        8.576059   31.751346   10.876789
     62          6           0        7.433153   30.733483   11.078958
     63          6           0        6.544574   30.349837    9.887140
     64          7           0        7.291434   29.899979    8.684617
     65          6           0        7.478599   30.866672    7.599993
     66          7           0        7.005564   32.053779    7.521818
     67          7           0        8.221041   30.319020    6.596276
     68          8           0        7.147867   34.647219   12.096514
     69          1           0        8.095338   34.894315   12.207712
     70          1           0        9.164895   34.571672    9.247703
     71          1           0        7.747613   32.998082    9.384489
     72          1           0        9.070753   31.835280   11.849322
     73          1           0        9.315543   31.372203   10.162073
     74          1           0        7.879968   29.819417   11.488953
     75          1           0        6.764608   31.099413   11.858750
     76          1           0        5.906664   29.518695   10.201430
     77          1           0        5.874930   31.180555    9.658357
     78          1           0        6.848334   29.077454    8.274150
     79          1           0        6.292041   32.251556    8.221059
     80          1           0        8.955679   29.653438    6.820354
     81          1           0        8.395479   30.938806    5.816162
 ---------------------------------------------------------------------
 Rotational constants (GHZ):           0.0888784           0.0803474           0.0715632
 Standard basis: 6-31G(d) (6D, 7F)
   708 basis functions,  1332 primitive gaussians,   708 cartesian basis functions
   157 alpha electrons      157 beta electrons
       nuclear repulsion energy      5829.1588273498 Hartrees.
 NAtoms=   81 NActive=   81 NUniq=   81 SFac= 1.00D+00 NAtFMM=   60 NAOKFM=T Big=T
 Integral buffers will be    131072 words long.
 Raffenetti 2 integral format.
 Two-electron integral symmetry is turned off.
 Nuclear repulsion after empirical dispersion term =     5829.0192710606 Hartrees.
 One-electron integrals computed using PRISM.
 NBasis=   708 RedAO= T EigKep=  3.51D-04  NBF=   708
 NBsUse=   708 1.00D-06 EigRej= -1.00D+00 NBFU=   708
 Initial guess from the checkpoint file:  "conf-883.chk"
 B after Tr=     0.000000    0.000000    0.000000
         Rot=    1.000000    0.000000    0.000000    0.000000 Ang=   0.00 deg.
 Requested convergence on RMS density matrix=1.00D-08 within 128 cycles.
 Requested convergence on MAX density matrix=1.00D-06.
 Requested convergence on             energy=1.00D-06.
 No special actions if energy rises.
 SCF Done:  E(RB3LYP) =  -2054.01346600     A.U. after    2 cycles
            NFock=  2  Conv=0.72D-08     -V/T= 2.0093

 **********************************************************************

            Population analysis using the SCF Density.

 **********************************************************************

 Alpha  occ. eigenvalues --  -19.31554 -19.29347 -19.27849 -19.26514 -19.24594
 Alpha  occ. eigenvalues --  -19.23340 -19.22868 -19.22496 -14.59393 -14.50777
 Alpha  occ. eigenvalues --  -14.48818 -14.47876 -14.47733 -14.47612 -14.43019
 Alpha  occ. eigenvalues --  -14.38858 -10.44858 -10.42735 -10.41209 -10.40958
 Alpha  occ. eigenvalues --  -10.40683 -10.40250 -10.38573 -10.37641 -10.37138
 Alpha  occ. eigenvalues --  -10.36429 -10.35054 -10.34641 -10.34493 -10.34257
 Alpha  occ. eigenvalues --  -10.33253 -10.33096 -10.32667 -10.32119 -10.31479
 Alpha  occ. eigenvalues --  -10.30930 -10.30625 -10.30542 -10.29952 -10.29734
 Alpha  occ. eigenvalues --  -10.29084 -10.28558  -1.22284  -1.19156  -1.17140
 Alpha  occ. eigenvalues --   -1.16356  -1.15539  -1.14935  -1.14444  -1.13425
 Alpha  occ. eigenvalues --   -1.10649  -1.10249  -1.07737  -1.05670  -1.04506
 Alpha  occ. eigenvalues --   -1.03263  -0.99277  -0.95713  -0.95051  -0.94194
 Alpha  occ. eigenvalues --   -0.93176  -0.91490  -0.89746  -0.88508  -0.87295
 Alpha  occ. eigenvalues --   -0.85200  -0.84940  -0.83892  -0.83162  -0.79907
 Alpha  occ. eigenvalues --   -0.79054  -0.78719  -0.75616  -0.74768  -0.73835
 Alpha  occ. eigenvalues --   -0.73628  -0.72485  -0.72342  -0.71793  -0.71196
 Alpha  occ. eigenvalues --   -0.70981  -0.69578  -0.69172  -0.68237  -0.67752
 Alpha  occ. eigenvalues --   -0.66350  -0.65566  -0.65520  -0.64843  -0.63817
 Alpha  occ. eigenvalues --   -0.63345  -0.62362  -0.61902  -0.61294  -0.61156
 Alpha  occ. eigenvalues --   -0.60600  -0.60032  -0.59966  -0.59445  -0.58986
 Alpha  occ. eigenvalues --   -0.58883  -0.58637  -0.57923  -0.57506  -0.57183
 Alpha  occ. eigenvalues --   -0.56520  -0.55986  -0.55566  -0.55278  -0.54757
 Alpha  occ. eigenvalues --   -0.54567  -0.54369  -0.53954  -0.53661  -0.53442
 Alpha  occ. eigenvalues --   -0.53084  -0.52976  -0.52661  -0.52542  -0.51696
 Alpha  occ. eigenvalues --   -0.51239  -0.51011  -0.50727  -0.50599  -0.49954
 Alpha  occ. eigenvalues --   -0.49708  -0.49601  -0.49321  -0.49069  -0.48694
 Alpha  occ. eigenvalues --   -0.48421  -0.48021  -0.47262  -0.46681  -0.46530
 Alpha  occ. eigenvalues --   -0.46458  -0.45385  -0.45077  -0.44872  -0.44563
 Alpha  occ. eigenvalues --   -0.44264  -0.41345  -0.40355  -0.40164  -0.40047
 Alpha  occ. eigenvalues --   -0.38980  -0.38762  -0.38388  -0.38128  -0.37592
 Alpha  occ. eigenvalues --   -0.36849  -0.36312  -0.35811  -0.34862  -0.34430
 Alpha  occ. eigenvalues --   -0.33082  -0.32845
 Alpha virt. eigenvalues --   -0.13773  -0.13055  -0.11766  -0.11194  -0.10501
 Alpha virt. eigenvalues --   -0.10107  -0.09141  -0.08081  -0.06858  -0.06619
 Alpha virt. eigenvalues --   -0.05781  -0.05196  -0.04265  -0.03562  -0.03161
 Alpha virt. eigenvalues --   -0.02533  -0.01944  -0.01702  -0.00898  -0.00670
 Alpha virt. eigenvalues --   -0.00490  -0.00224   0.00493   0.00747   0.01093
 Alpha virt. eigenvalues --    0.01273   0.01613   0.02054   0.02732   0.03358
 Alpha virt. eigenvalues --    0.03656   0.04624   0.04814   0.05423   0.05667
 Alpha virt. eigenvalues --    0.05903   0.06103   0.06216   0.06357   0.06626
 Alpha virt. eigenvalues --    0.06994   0.07490   0.07778   0.07845   0.08107
 Alpha virt. eigenvalues --    0.08227   0.08608   0.09001   0.09357   0.09591
 Alpha virt. eigenvalues --    0.09752   0.10490   0.10779   0.11245   0.11582
 Alpha virt. eigenvalues --    0.12033   0.12293   0.12629   0.12700   0.13134
 Alpha virt. eigenvalues --    0.13309   0.13503   0.14056   0.14704   0.14889
 Alpha virt. eigenvalues --    0.15308   0.15763   0.16884   0.17128   0.18097
 Alpha virt. eigenvalues --    0.18622   0.19265   0.20032   0.20455   0.20936
 Alpha virt. eigenvalues --    0.22245   0.22636   0.23870   0.24717   0.25340
 Alpha virt. eigenvalues --    0.25698   0.26127   0.27516   0.28255   0.28530
 Alpha virt. eigenvalues --    0.29902   0.30618   0.31529   0.32176   0.33512
 Alpha virt. eigenvalues --    0.34742   0.35357   0.35731   0.36869   0.37637
 Alpha virt. eigenvalues --    0.38118   0.39097   0.39444   0.39981   0.40424
 Alpha virt. eigenvalues --    0.40978   0.41925   0.42311   0.43061   0.43525
 Alpha virt. eigenvalues --    0.43668   0.43837   0.43949   0.44583   0.45092
 Alpha virt. eigenvalues --    0.45559   0.46286   0.46646   0.46913   0.47260
 Alpha virt. eigenvalues --    0.47567   0.47756   0.48376   0.48638   0.49028
 Alpha virt. eigenvalues --    0.49276   0.49886   0.50044   0.50773   0.50801
 Alpha virt. eigenvalues --    0.51068   0.51652   0.51894   0.52318   0.52931
 Alpha virt. eigenvalues --    0.53169   0.53850   0.53864   0.54240   0.54549
 Alpha virt. eigenvalues --    0.55148   0.55693   0.55864   0.56267   0.56353
 Alpha virt. eigenvalues --    0.56881   0.57300   0.57990   0.58270   0.58506
 Alpha virt. eigenvalues --    0.59372   0.60103   0.60347   0.60935   0.61743
 Alpha virt. eigenvalues --    0.62007   0.62339   0.62682   0.63320   0.63952
 Alpha virt. eigenvalues --    0.64122   0.64944   0.65831   0.66136   0.66625
 Alpha virt. eigenvalues --    0.66921   0.67557   0.68435   0.68699   0.69298
 Alpha virt. eigenvalues --    0.69513   0.70176   0.70849   0.71516   0.71922
 Alpha virt. eigenvalues --    0.71988   0.72397   0.72969   0.73177   0.73513
 Alpha virt. eigenvalues --    0.73916   0.74199   0.74283   0.74707   0.75035
 Alpha virt. eigenvalues --    0.75168   0.75429   0.76010   0.76412   0.76641
 Alpha virt. eigenvalues --    0.77103   0.77577   0.77794   0.78085   0.78677
 Alpha virt. eigenvalues --    0.79144   0.79615   0.79859   0.80103   0.80486
 Alpha virt. eigenvalues --    0.81158   0.81410   0.82002   0.82260   0.82292
 Alpha virt. eigenvalues --    0.82632   0.82980   0.83243   0.83653   0.84292
 Alpha virt. eigenvalues --    0.84589   0.84953   0.85308   0.85544   0.86379
 Alpha virt. eigenvalues --    0.87001   0.87521   0.87889   0.87984   0.88482
 Alpha virt. eigenvalues --    0.88993   0.89509   0.90498   0.91524   0.91980
 Alpha virt. eigenvalues --    0.92738   0.92889   0.93521   0.93844   0.94839
 Alpha virt. eigenvalues --    0.95374   0.95983   0.96539   0.97237   0.97674
 Alpha virt. eigenvalues --    0.98459   0.98879   0.98924   0.99307   1.00314
 Alpha virt. eigenvalues --    1.00445   1.00605   1.01373   1.01984   1.02593
 Alpha virt. eigenvalues --    1.03146   1.03708   1.04083   1.04877   1.05078
 Alpha virt. eigenvalues --    1.05651   1.06537   1.07058   1.07613   1.08201
 Alpha virt. eigenvalues --    1.09165   1.09961   1.10300   1.11120   1.11360
 Alpha virt. eigenvalues --    1.12285   1.13481   1.14478   1.14715   1.15444
 Alpha virt. eigenvalues --    1.17792   1.18645   1.19672   1.19840   1.20648
 Alpha virt. eigenvalues --    1.20975   1.21424   1.22622   1.23634   1.24226
 Alpha virt. eigenvalues --    1.25062   1.25848   1.26136   1.26916   1.28212
 Alpha virt. eigenvalues --    1.28795   1.29208   1.29479   1.30845   1.31191
 Alpha virt. eigenvalues --    1.31774   1.31992   1.32432   1.33044   1.34208
 Alpha virt. eigenvalues --    1.34275   1.35100   1.35898   1.36731   1.37115
 Alpha virt. eigenvalues --    1.37866   1.38308   1.38903   1.39788   1.39982
 Alpha virt. eigenvalues --    1.40590   1.41299   1.42090   1.42321   1.42789
 Alpha virt. eigenvalues --    1.44687   1.46280   1.46695   1.47628   1.48435
 Alpha virt. eigenvalues --    1.48960   1.49601   1.50420   1.51513   1.52872
 Alpha virt. eigenvalues --    1.53379   1.53962   1.54559   1.55449   1.56034
 Alpha virt. eigenvalues --    1.56451   1.57006   1.57309   1.57611   1.59026
 Alpha virt. eigenvalues --    1.60484   1.61160   1.61900   1.62482   1.63418
 Alpha virt. eigenvalues --    1.64358   1.65337   1.65737   1.66079   1.66632
 Alpha virt. eigenvalues --    1.67104   1.67655   1.67912   1.68620   1.68899
 Alpha virt. eigenvalues --    1.69213   1.69636   1.69890   1.70292   1.71244
 Alpha virt. eigenvalues --    1.71263   1.72237   1.72877   1.73566   1.73887
 Alpha virt. eigenvalues --    1.74058   1.74277   1.74536   1.75185   1.75261
 Alpha virt. eigenvalues --    1.75757   1.76525   1.76962   1.76996   1.77835
 Alpha virt. eigenvalues --    1.78676   1.78908   1.79634   1.80101   1.80652
 Alpha virt. eigenvalues --    1.81241   1.81708   1.81931   1.82569   1.82906
 Alpha virt. eigenvalues --    1.83502   1.84138   1.84407   1.85143   1.85393
 Alpha virt. eigenvalues --    1.86276   1.87234   1.87574   1.87828   1.88919
 Alpha virt. eigenvalues --    1.89531   1.90203   1.90749   1.91175   1.91290
 Alpha virt. eigenvalues --    1.92171   1.92516   1.93467   1.93546   1.94267
 Alpha virt. eigenvalues --    1.95436   1.95890   1.96046   1.96721   1.97481
 Alpha virt. eigenvalues --    1.98188   1.98804   1.99650   2.00170   2.01559
 Alpha virt. eigenvalues --    2.02030   2.02361   2.04059   2.04421   2.05183
 Alpha virt. eigenvalues --    2.05425   2.05782   2.06669   2.07097   2.08372
 Alpha virt. eigenvalues --    2.09386   2.10032   2.10804   2.11735   2.13116
 Alpha virt. eigenvalues --    2.13705   2.13929   2.14156   2.14820   2.16053
 Alpha virt. eigenvalues --    2.16357   2.17010   2.18530   2.19508   2.20359
 Alpha virt. eigenvalues --    2.20487   2.21304   2.22481   2.23590   2.24398
 Alpha virt. eigenvalues --    2.24880   2.25571   2.26860   2.27873   2.28550
 Alpha virt. eigenvalues --    2.29196   2.29749   2.30134   2.30865   2.31381
 Alpha virt. eigenvalues --    2.31912   2.32874   2.34173   2.34694   2.35422
 Alpha virt. eigenvalues --    2.37125   2.37668   2.38698   2.39703   2.40312
 Alpha virt. eigenvalues --    2.40788   2.41269   2.42023   2.42899   2.43694
 Alpha virt. eigenvalues --    2.44051   2.44693   2.46130   2.47043   2.48535
 Alpha virt. eigenvalues --    2.48758   2.49694   2.51029   2.51287   2.51925
 Alpha virt. eigenvalues --    2.52562   2.53092   2.53783   2.53895   2.54535
 Alpha virt. eigenvalues --    2.55705   2.56390   2.57246   2.57444   2.57992
 Alpha virt. eigenvalues --    2.58755   2.58840   2.60281   2.60745   2.61297
 Alpha virt. eigenvalues --    2.61882   2.63719   2.64118   2.65329   2.65527
 Alpha virt. eigenvalues --    2.66980   2.67902   2.69676   2.71612   2.72532
 Alpha virt. eigenvalues --    2.75122   2.75532   2.80396   2.81330   2.82692
 Alpha virt. eigenvalues --    2.84691   2.85409   2.87088   2.87994   2.88059
 Alpha virt. eigenvalues --    2.89319   2.89524   2.92292   2.92948   2.94063
 Alpha virt. eigenvalues --    2.95463   2.95964   2.96789   2.97498   2.98491
 Alpha virt. eigenvalues --    3.05302   3.07764   3.12019   3.32595   3.77190
 Alpha virt. eigenvalues --    3.77648   3.79952   3.82848   3.87630   3.89732
 Alpha virt. eigenvalues --    3.91637   3.92153   3.94103   3.95812   3.96453
 Alpha virt. eigenvalues --    3.98222   4.00405   4.00899   4.02135   4.04985
 Alpha virt. eigenvalues --    4.08816   4.12050   4.12720   4.15176   4.15919
 Alpha virt. eigenvalues --    4.19128   4.20591   4.21680   4.23494   4.24198
 Alpha virt. eigenvalues --    4.26917   4.28594   4.30243   4.30886   4.32957
 Alpha virt. eigenvalues --    4.35854   4.38764   4.45013   4.46107   4.49081
 Alpha virt. eigenvalues --    4.50221   4.52522   4.59711   4.62247   4.66229
 Alpha virt. eigenvalues --    4.69904
          Condensed to atoms (all electrons):
 Mulliken charges:
               1
     1  N   -0.814755
     2  C   -0.103575
     3  C    0.575648
     4  O   -0.469930
     5  C   -0.314858
     6  C   -0.377366
     7  C    0.614527
     8  O   -0.445301
     9  O   -0.666952
    10  H    0.476811
    11  H    0.454402
    12  H    0.223135
    13  H    0.183136
    14  H    0.225420
    15  H    0.197895
    16  H    0.222404
    17  H    0.417056
    18  H    0.423392
    19  N   -0.555642
    20  C   -0.097347
    21  C    0.610272
    22  O   -0.474047
    23  C   -0.362611
    24  C    0.040712
    25  C   -0.049681
    26  C    0.055939
    27  C    0.270091
    28  C   -0.241432
    29  N   -0.695629
    30  C   -0.166164
    31  C   -0.158908
    32  C   -0.149804
    33  H    0.369444
    34  H    0.122488
    35  H    0.182350
    36  H    0.191317
    37  H    0.203424
    38  H    0.358089
    39  H    0.168640
    40  H    0.153651
    41  H    0.184822
    42  H    0.164999
    43  N   -0.598045
    44  C   -0.095895
    45  C    0.620193
    46  O   -0.495821
    47  C    0.144145
    48  C   -0.481887
    49  O   -0.650548
    50  H    0.431259
    51  H    0.368815
    52  H    0.152387
    53  H    0.153449
    54  H    0.195494
    55  H    0.180614
    56  H    0.164415
    57  N   -0.643604
    58  C   -0.075267
    59  C    0.617008
    60  O   -0.467775
    61  C   -0.324261
    62  C   -0.276493
    63  C   -0.165294
    64  N   -0.702610
    65  C    0.578380
    66  N   -0.624723
    67  N   -0.767400
    68  O   -0.590426
    69  H    0.454666
    70  H    0.365111
    71  H    0.206322
    72  H    0.141504
    73  H    0.155056
    74  H    0.092568
    75  H    0.207972
    76  H    0.166388
    77  H    0.209703
    78  H    0.364244
    79  H    0.306958
    80  H    0.381224
    81  H    0.356111
 Sum of Mulliken charges =   1.00000
 Mulliken charges with hydrogens summed into heavy atoms:
               1
     1  N    0.480095
     2  C    0.119560
     3  C    0.575648
     4  O   -0.469930
     5  C    0.093699
     6  C    0.042933
     7  C    0.614527
     8  O   -0.445301
     9  O   -0.190140
    19  N   -0.186198
    20  C    0.025141
    21  C    0.610272
    22  O   -0.474047
    23  C    0.011056
    24  C    0.040712
    25  C    0.153743
    26  C    0.055939
    27  C    0.270091
    28  C   -0.072792
    29  N   -0.337540
    30  C   -0.012513
    31  C    0.025914
    32  C    0.015195
    43  N   -0.229229
    44  C    0.056491
    45  C    0.620193
    46  O   -0.495821
    47  C    0.297594
    48  C    0.058635
    49  O   -0.219288
    57  N   -0.278493
    58  C    0.131055
    59  C    0.617008
    60  O   -0.467775
    61  C   -0.027702
    62  C    0.024047
    63  C    0.210796
    64  N   -0.338366
    65  C    0.578380
    66  N   -0.317765
    67  N   -0.030065
    68  O   -0.135760
 Electronic spatial extent (au):  <R**2>=        1388012.6651
 Charge=              1.0000 electrons
 Dipole moment (field-independent basis, Debye):
    X=             45.9589    Y=            144.3455    Z=             61.4118  Tot=            163.4603
 Quadrupole moment (field-independent basis, Debye-Ang):
   XX=            188.3084   YY=           4141.8928   ZZ=            559.4921
   XY=           1396.9908   XZ=            584.6533   YZ=           1862.1035
 Traceless Quadrupole moment (field-independent basis, Debye-Ang):
   XX=          -1441.5894   YY=           2511.9950   ZZ=          -1070.4056
   XY=           1396.9908   XZ=            584.6533   YZ=           1862.1035
 Octapole moment (field-independent basis, Debye-Ang**2):
  XXX=          -3177.7845  YYY=         111952.6177  ZZZ=           2056.1287  XYY=          40590.4012
  XXY=           5554.6925  XXZ=           2570.7531  XZZ=           5248.5888  YZZ=          16851.0280
  YYZ=          54251.4101  XYZ=          17952.4005
 Hexadecapole moment (field-independent basis, Debye-Ang**3):
 XXXX=        -112257.5478 YYYY=        2757991.1928 ZZZZ=         -68038.3765 XXXY=        -102564.1531
 XXXZ=         -35936.5907 YYYX=        1115193.6742 YYYZ=        1504528.6806 ZZZX=          16473.1921
 ZZZY=          55948.2407 XXYY=         142710.0805 XXZZ=          10906.8361 YYZZ=         479724.2626
 XXYZ=          78380.7304 YYXZ=         529760.0894 ZZXY=         161355.0573
 N-N= 5.829019271061D+03 E-N=-1.640949176752D+04  KE= 2.035169789210D+03
 Unable to Open any file for archive entry.
 1\1\GINC-VIM-002\SP\RB3LYP\6-31G(d)\C26H39N8O8(1+)\KENGMITH\27-May-202
 2\0\\# B3LYP/6-31G* empiricaldispersion=gd3 guess=read geom=check nosy
 mm integral(ultrafinegrid)\\Candidate Structure: Conf:883 Charge calc 
 in gas phase\\1,1\N,0,10.218282491,28.814304951,12.4031526923\C,0,11.6
 851949964,28.4863676667,12.170653796\C,0,12.6265036511,28.902718263,13
 .3293822414\O,0,13.2165345496,28.0106743836,13.9198609677\C,0,12.20049
 73641,29.0109771658,10.8183739185\C,0,11.8061989689,28.1831634767,9.57
 4917468\C,0,10.5165479294,28.5878609668,8.8905684623\O,0,10.3980597907
 ,28.6702836291,7.6874023514\O,0,9.5065337537,28.8515065676,9.748077271
 9\H,0,8.6692413928,29.238597087,9.2470327517\H,0,9.7057474463,28.69448
 79267,11.5012184358\H,0,11.7292019563,27.3960940417,12.180849175\H,0,1
 1.9407333015,30.0674056608,10.6838906256\H,0,13.2916375775,28.98586053
 83,10.8972016291\H,0,11.7373147147,27.1171132251,9.8322209303\H,0,12.5
 86454388,28.2647523396,8.8152437622\H,0,9.8133173801,28.2352338476,13.
 1499609156\H,0,10.0673255197,29.7780934957,12.7228892561\N,0,12.914800
 1929,30.2223916938,13.5094830433\C,0,12.0897113568,31.4028268252,13.31
 38070024\C,0,12.9880750288,32.5151443899,12.7287304072\O,0,14.19540524
 67,32.4839763867,12.8981230101\C,0,11.3929258837,31.7811550024,14.6574
 447093\C,0,10.3025707217,30.8052743516,14.9864777513\C,0,10.4381025362
 ,29.5176507151,15.4497085364\C,0,8.8894485392,31.0141506538,14.7377217
 415\C,0,8.2263394781,29.7978123784,15.0478559738\C,0,8.1265325471,32.1
 308934475,14.3418757447\N,0,9.2020812238,28.8754355041,15.4242384512\C
 ,0,6.8359452268,29.6633758078,14.9694493507\C,0,6.7449821323,32.005516
 0181,14.2727976054\C,0,6.108356475,30.7834363537,14.5814230518\H,0,13.
 7319887014,30.3822822514,14.0929083665\H,0,11.3263121727,31.1873854455
 ,12.5629965533\H,0,10.9721980159,32.7884782397,14.5983837712\H,0,12.16
 65749691,31.8138090184,15.4322581032\H,0,11.3228058334,28.9831832147,1
 5.7676525312\H,0,8.9997067285,28.0546099512,15.9805934203\H,0,8.595624
 5055,33.0868165089,14.1266989678\H,0,6.3415516375,28.7303670795,15.224
 6481205\H,0,6.1480271136,32.8585436138,13.9660342921\H,0,5.0261329524,
 30.7201012992,14.5225123445\N,0,12.3662076795,33.450736413,11.94528939
 46\C,0,10.9801157081,33.892086766,12.0121939527\C,0,10.5387386019,34.3
 01556501,10.5988213852\O,0,11.3479370071,34.9166916442,9.9147277738\C,
 0,10.8610131095,35.0921047353,12.9985421081\C,0,11.463844512,36.408270
 446,12.5257216486\O,0,9.4575166775,35.2170520537,13.2718859758\H,0,9.2
 949079152,36.0250786544,13.7859479949\H,0,12.9946222865,34.0991825956,
 11.4794429536\H,0,10.3580583513,33.0956410419,12.4143364284\H,0,11.372
 4754355,34.7743185773,13.9183511652\H,0,10.9616674412,36.7803188153,11
 .6301628836\H,0,12.5277990647,36.2961993413,12.2992360567\H,0,11.37727
 56465,37.1560584869,13.3228127475\N,0,9.2519278006,34.1151827328,10.15
 19180174\C,0,8.1542806231,33.1541554724,10.3833569997\C,0,6.9544800461
 ,33.7013969228,11.1814358128\O,0,5.8511425346,33.2385757224,10.9763855
 973\C,0,8.5760589321,31.7513464775,10.8767888709\C,0,7.4331531507,30.7
 334826161,11.0789577458\C,0,6.5445742261,30.3498373035,9.8871395758\N,
 0,7.2914344214,29.8999792616,8.6846174564\C,0,7.4785992113,30.86667246
 18,7.5999925874\N,0,7.0055636043,32.0537794371,7.5218176671\N,0,8.2210
 405015,30.3190195614,6.5962759186\O,0,7.1478670865,34.6472193526,12.09
 6514306\H,0,8.0953384243,34.8943151505,12.2077122855\H,0,9.1648946453,
 34.5716716907,9.2477034083\H,0,7.7476134476,32.9980815548,9.3844887977
 \H,0,9.0707533162,31.8352797045,11.8493215428\H,0,9.3155426124,31.3722
 034903,10.1620731838\H,0,7.8799676727,29.8194172822,11.4889533614\H,0,
 6.764608368,31.0994130963,11.8587501359\H,0,5.9066641306,29.518694935,
 10.2014299794\H,0,5.874930472,31.1805552121,9.6583573432\H,0,6.8483336
 42,29.0774535907,8.2741496425\H,0,6.2920406372,32.2515559359,8.2210591
 115\H,0,8.955679338,29.6534382703,6.8203539738\H,0,8.3954793281,30.938
 8055297,5.81616248\\Version=ES64L-G16RevC.01\HF=-2054.013466\RMSD=7.17
 3e-09\Dipole=-0.2602258,-2.5738875,1.8133431\Quadrupole=-1071.7863761,
 1867.6067371,-795.820361,1038.6284179,434.6753734,1384.4282944\PG=C01 
 [X(C26H39N8O8)]\\@
 The archive entry for this job was punched.


 KNOWLEDGE IS OF TWO KINDS:  WE KNOW A SUBJECT OURSELVES OR WE KNOW 
 WHERE WE CAN FIND INFORMATION UPON IT.

                                    -- SAMUEL JOHNSON
 Job cpu time:       0 days  0 hours  5 minutes 48.6 seconds.
 Elapsed time:       0 days  0 hours  1 minutes 28.7 seconds.
 File lengths (MBytes):  RWF=    376 Int=      0 D2E=      0 Chk=     56 Scr=     16
 Normal termination of Gaussian 16 at Fri May 27 05:14:28 2022.
