 Entering Gaussian System, Link 0=/opt/software/Gaussian/g16-AVX2-C.01/g16/g16
 Input=charge-conf-962.com
 Output=charge-conf-962.log
 Initial command:
 /opt/software/Gaussian/g16-AVX2-C.01/g16/l1.exe "/mnt/gs18/scratch/users/kengmith/Gau-99674.inp" -scrdir="/mnt/gs18/scratch/users/kengmith/"
 Entering Link 1 = /opt/software/Gaussian/g16-AVX2-C.01/g16/l1.exe PID=     99737.
  
 Copyright (c) 1988-2019, Gaussian, Inc.  All Rights Reserved.
  
 This is part of the Gaussian(R) 16 program.  It is based on
 the Gaussian(R) 09 system (copyright 2009, Gaussian, Inc.),
 the Gaussian(R) 03 system (copyright 2003, Gaussian, Inc.),
 the Gaussian(R) 98 system (copyright 1998, Gaussian, Inc.),
 the Gaussian(R) 94 system (copyright 1995, Gaussian, Inc.),
 the Gaussian 92(TM) system (copyright 1992, Gaussian, Inc.),
 the Gaussian 90(TM) system (copyright 1990, Gaussian, Inc.),
 the Gaussian 88(TM) system (copyright 1988, Gaussian, Inc.),
 the Gaussian 86(TM) system (copyright 1986, Carnegie Mellon
 University), and the Gaussian 82(TM) system (copyright 1983,
 Carnegie Mellon University). Gaussian is a federally registered
 trademark of Gaussian, Inc.
  
 This software contains proprietary and confidential information,
 including trade secrets, belonging to Gaussian, Inc.
  
 This software is provided under written license and may be
 used, copied, transmitted, or stored only in accord with that
 written license.
  
 The following legend is applicable only to US Government
 contracts under FAR:
  
                    RESTRICTED RIGHTS LEGEND
  
 Use, reproduction and disclosure by the US Government is
 subject to restrictions as set forth in subparagraphs (a)
 and (c) of the Commercial Computer Software - Restricted
 Rights clause in FAR 52.227-19.
  
 Gaussian, Inc.
 340 Quinnipiac St., Bldg. 40, Wallingford CT 06492
  
  
 ---------------------------------------------------------------
 Warning -- This program may not be used in any manner that
 competes with the business of Gaussian, Inc. or will provide
 assistance to any competitor of Gaussian, Inc.  The licensee
 of this program is prohibited from giving any competitor of
 Gaussian, Inc. access to this program.  By using this program,
 the user acknowledges that Gaussian, Inc. is engaged in the
 business of creating and licensing software in the field of
 computational chemistry and represents and warrants to the
 licensee that it is not a competitor of Gaussian, Inc. and that
 it will not use this program in any manner prohibited above.
 ---------------------------------------------------------------
  

 Cite this work as:
 Gaussian 16, Revision C.01,
 M. J. Frisch, G. W. Trucks, H. B. Schlegel, G. E. Scuseria, 
 M. A. Robb, J. R. Cheeseman, G. Scalmani, V. Barone, 
 G. A. Petersson, H. Nakatsuji, X. Li, M. Caricato, A. V. Marenich, 
 J. Bloino, B. G. Janesko, R. Gomperts, B. Mennucci, H. P. Hratchian, 
 J. V. Ortiz, A. F. Izmaylov, J. L. Sonnenberg, D. Williams-Young, 
 F. Ding, F. Lipparini, F. Egidi, J. Goings, B. Peng, A. Petrone, 
 T. Henderson, D. Ranasinghe, V. G. Zakrzewski, J. Gao, N. Rega, 
 G. Zheng, W. Liang, M. Hada, M. Ehara, K. Toyota, R. Fukuda, 
 J. Hasegawa, M. Ishida, T. Nakajima, Y. Honda, O. Kitao, H. Nakai, 
 T. Vreven, K. Throssell, J. A. Montgomery, Jr., J. E. Peralta, 
 F. Ogliaro, M. J. Bearpark, J. J. Heyd, E. N. Brothers, K. N. Kudin, 
 V. N. Staroverov, T. A. Keith, R. Kobayashi, J. Normand, 
 K. Raghavachari, A. P. Rendell, J. C. Burant, S. S. Iyengar, 
 J. Tomasi, M. Cossi, J. M. Millam, M. Klene, C. Adamo, R. Cammi, 
 J. W. Ochterski, R. L. Martin, K. Morokuma, O. Farkas, 
 J. B. Foresman, and D. J. Fox, Gaussian, Inc., Wallingford CT, 2019.
 
 ******************************************
 Gaussian 16:  ES64L-G16RevC.01  3-Jul-2019
                27-May-2022 
 ******************************************
 %mem=8gb
 %nproc=4
 Will use up to    4 processors via shared memory.
 %chk=conf-962.chk
 ----------------------------------------------------------------------
 # B3LYP/6-31G* empiricaldispersion=gd3 guess=read geom=check nosymm in
 tegral(ultrafinegrid)
 ----------------------------------------------------------------------
 1/29=2,38=1,172=1/1;
 2/12=2,15=1,40=1/2;
 3/5=1,6=6,7=1,11=2,14=-4,25=1,30=1,74=-5,75=-5,116=-2,124=31/1,2,3;
 4/5=1/1;
 5/5=2,38=6/2;
 6/7=2,8=2,9=2,10=2,28=1/1;
 99/5=1,9=1/99;
 ------------------------------------------------------
 Candidate Structure: Conf:962 Charge calc in gas phase
 ------------------------------------------------------
 Structure from the checkpoint file:  "conf-962.chk"
 Charge =  1 Multiplicity = 1
 Redundant internal coordinates found in file.  (old form).
 N,0,12.8648332909,30.8544552876,11.704720409
 C,0,12.6939833495,32.2674583078,12.2149600275
 C,0,12.9051523759,32.1961541189,13.7572195745
 O,0,14.0431988063,31.9224717933,14.1172578227
 C,0,11.4508199994,32.9576142084,11.6373281207
 C,0,11.6476216456,33.795797076,10.3605775601
 C,0,11.8676781293,33.0849470855,9.0475544792
 O,0,11.4562796976,33.463883128,7.9760808842
 O,0,12.6318127439,31.9498560543,9.1398858888
 H,0,12.7585640131,31.6178501698,8.2287863098
 H,0,12.0400566479,30.2553766552,11.9112623202
 H,0,13.5934696214,32.7928628054,11.8820660271
 H,0,10.6436936068,32.2398138557,11.4819142081
 H,0,11.0886092334,33.6562589782,12.3951552774
 H,0,12.4932987567,34.4861332827,10.4901502226
 H,0,10.7578465916,34.4129384339,10.2082370758
 H,0,12.999762643,30.8734220411,10.6852306476
 H,0,13.6697936125,30.4173455582,12.1711636665
 N,0,11.8855137912,32.5377942318,14.5857416967
 C,0,10.5043348941,32.0495145311,14.4620080465
 C,0,9.5606049331,33.2491071609,14.637694882
 O,0,9.8071065117,34.0946624406,15.4832687548
 C,0,10.2712221957,30.8852333132,15.4713959303
 C,0,11.2853300538,29.8161031291,15.2004870106
 C,0,12.4377163738,29.5431422372,15.8965992104
 C,0,11.3739313815,29.0777720548,13.968270274
 C,0,12.6278754609,28.3980900461,13.9688990691
 C,0,10.5182829662,28.9451638101,12.8543116935
 N,0,13.2400013857,28.6879246361,15.1678129289
 C,0,13.0597258328,27.6406283437,12.872041447
 C,0,10.9475981747,28.1902041834,11.7613293254
 C,0,12.2123729599,27.557792958,11.7676630076
 H,0,12.1892570891,32.6661628348,15.5467271771
 H,0,10.394676436,31.6221951506,13.4681033132
 H,0,9.2548964524,30.4997840924,15.3415324055
 H,0,10.3511131556,31.2780009914,16.4912469662
 H,0,12.7663373743,29.9141965115,16.8575612343
 H,0,14.1281359555,28.3229948304,15.4782732139
 H,0,9.5143969827,29.3603052323,12.8717400564
 H,0,14.0152771599,27.1235731395,12.884446997
 H,0,10.2745317555,28.0631715679,10.9196077654
 H,0,12.516673619,26.9652754126,10.9099119292
 N,0,8.5351472885,33.3677781014,13.73332347
 C,0,7.8382181624,32.270554825,13.067656721
 C,0,7.0033927809,32.9212012792,11.9480427877
 O,0,6.5798647968,34.0565303588,12.1086219793
 C,0,6.9850770774,31.4352379653,14.1101770162
 C,0,5.5038551123,31.7945111816,14.1634136237
 O,0,7.2375241495,30.048117011,13.9502045061
 H,0,6.5376773073,29.6403047209,13.412980418
 H,0,7.9621034505,34.2008154241,13.8508086935
 H,0,8.5639838061,31.5722958668,12.6456820964
 H,0,7.4193882952,31.6941007553,15.0815981389
 H,0,4.9868623698,31.5541882597,13.2285424714
 H,0,5.3747928045,32.8662897809,14.3398047405
 H,0,5.0213667669,31.2403694496,14.9731677115
 N,0,6.6572735359,32.2064486896,10.8157548854
 C,0,7.3303481841,31.0541643387,10.1973252804
 C,0,7.0573736858,29.7447752605,10.9406511721
 O,0,7.8367716614,28.826364494,11.0050055129
 C,0,8.8195542119,31.2139598074,9.8337410135
 C,0,9.2074179734,30.5664166257,8.4907642424
 C,0,8.5401888957,31.1813726295,7.2371882512
 N,0,8.671180703,32.6334521406,7.1411014843
 C,0,7.8471694223,33.4634138099,7.8917295397
 N,0,6.5860826815,33.2925491054,8.1260028941
 N,0,8.4981473465,34.533715509,8.4970905868
 O,0,5.8212111033,29.6627191621,11.4868697895
 H,0,5.3772138764,30.5256079013,11.350783078
 H,0,6.2925796639,32.8391709132,10.0867765223
 H,0,6.7729731881,30.9356698838,9.2619733978
 H,0,9.427339943,30.7497369102,10.6180901503
 H,0,9.046241587,32.2831760885,9.8091101222
 H,0,10.2978634728,30.6489367938,8.38155208
 H,0,8.981621073,29.4933333581,8.5242717431
 H,0,8.98403593,30.73629009,6.3409503094
 H,0,7.4787308474,30.922944887,7.195460878
 H,0,9.6352309146,32.9398384279,7.0780739368
 H,0,6.2105002263,32.5348855698,7.5569637832
 H,0,9.3677833789,34.8317806304,8.0713838768
 H,0,7.8718928955,35.2985262243,8.7222662891
 Recover connectivity data from disk.
                           ----------------------------
                           !    Current Parameters    !
                           ! (Angstroms and Degrees)  !
 --------------------------                            --------------------------
 ! Name  Definition              Value                                          !
 --------------------------------------------------------------------------------
 ! R1    R(1,2)                  1.512                                          !
 ! R2    R(1,11)                 1.0401                                         !
 ! R3    R(1,17)                 1.0286                                         !
 ! R4    R(1,18)                 1.0279                                         !
 ! R5    R(2,3)                  1.5583                                         !
 ! R6    R(2,5)                  1.5347                                         !
 ! R7    R(2,12)                 1.0936                                         !
 ! R8    R(3,4)                  1.2246                                         !
 ! R9    R(3,19)                 1.3575                                         !
 ! R10   R(5,6)                  1.5399                                         !
 ! R11   R(5,13)                 1.0913                                         !
 ! R12   R(5,14)                 1.0925                                         !
 ! R13   R(6,7)                  1.5092                                         !
 ! R14   R(6,15)                 1.0993                                         !
 ! R15   R(6,16)                 1.0935                                         !
 ! R16   R(7,8)                  1.2087                                         !
 ! R17   R(7,9)                  1.3714                                         !
 ! R18   R(9,10)                 0.978                                          !
 ! R19   R(19,20)                1.4702                                         !
 ! R20   R(19,33)                1.016                                          !
 ! R21   R(20,21)                1.5364                                         !
 ! R22   R(20,23)                1.5584                                         !
 ! R23   R(20,34)                1.0874                                         !
 ! R24   R(21,22)                1.221                                          !
 ! R25   R(21,43)                1.3724                                         !
 ! R26   R(23,24)                1.4983                                         !
 ! R27   R(23,35)                1.0947                                         !
 ! R28   R(23,36)                1.0958                                         !
 ! R29   R(24,25)                1.3737                                         !
 ! R30   R(24,26)                1.4392                                         !
 ! R31   R(25,29)                1.3806                                         !
 ! R32   R(25,37)                1.0813                                         !
 ! R33   R(26,27)                1.4263                                         !
 ! R34   R(26,28)                1.4109                                         !
 ! R35   R(27,29)                1.377                                          !
 ! R36   R(27,30)                1.4012                                         !
 ! R37   R(28,31)                1.396                                          !
 ! R38   R(28,39)                1.0865                                         !
 ! R39   R(29,38)                1.0091                                         !
 ! R40   R(30,32)                1.3945                                         !
 ! R41   R(30,40)                1.0865                                         !
 ! R42   R(31,32)                1.4141                                         !
 ! R43   R(31,41)                1.0852                                         !
 ! R44   R(32,42)                1.086                                          !
 ! R45   R(43,44)                1.4604                                         !
 ! R46   R(43,51)                1.0179                                         !
 ! R47   R(44,45)                1.5407                                         !
 ! R48   R(44,47)                1.5851                                         !
 ! R49   R(44,52)                1.092                                          !
 ! R50   R(45,46)                1.2223                                         !
 ! R51   R(45,57)                1.383                                          !
 ! R52   R(47,48)                1.5251                                         !
 ! R53   R(47,49)                1.419                                          !
 ! R54   R(47,53)                1.0951                                         !
 ! R55   R(48,54)                1.095                                          !
 ! R56   R(48,55)                1.0938                                         !
 ! R57   R(48,56)                1.0934                                         !
 ! R58   R(49,50)                0.972                                          !
 ! R59   R(57,58)                1.4708                                         !
 ! R60   R(57,70)                1.0319                                         !
 ! R61   R(58,59)                1.5302                                         !
 ! R62   R(58,61)                1.5413                                         !
 ! R63   R(58,71)                1.0953                                         !
 ! R64   R(59,60)                1.2063                                         !
 ! R65   R(59,68)                1.354                                          !
 ! R66   R(61,62)                1.5406                                         !
 ! R67   R(61,72)                1.0955                                         !
 ! R68   R(61,73)                1.0933                                         !
 ! R69   R(62,63)                1.5475                                         !
 ! R70   R(62,74)                1.099                                          !
 ! R71   R(62,75)                1.0971                                         !
 ! R72   R(63,64)                1.4611                                         !
 ! R73   R(63,76)                1.0947                                         !
 ! R74   R(63,77)                1.0933                                         !
 ! R75   R(64,65)                1.3897                                         !
 ! R76   R(64,78)                1.0135                                         !
 ! R77   R(65,66)                1.294                                          !
 ! R78   R(65,67)                1.3913                                         !
 ! R79   R(66,79)                1.0193                                         !
 ! R80   R(67,80)                1.0131                                         !
 ! R81   R(67,81)                1.0138                                         !
 ! R82   R(68,69)                0.9799                                         !
 ! A1    A(2,1,11)             112.4363                                         !
 ! A2    A(2,1,17)             109.395                                          !
 ! A3    A(2,1,18)             109.4362                                         !
 ! A4    A(11,1,17)            108.1481                                         !
 ! A5    A(11,1,18)            106.6152                                         !
 ! A6    A(17,1,18)            110.7868                                         !
 ! A7    A(1,2,3)              106.0167                                         !
 ! A8    A(1,2,5)              112.6293                                         !
 ! A9    A(1,2,12)             104.6741                                         !
 ! A10   A(3,2,5)              120.1885                                         !
 ! A11   A(3,2,12)             102.2277                                         !
 ! A12   A(5,2,12)             109.6106                                         !
 ! A13   A(2,3,4)              115.2862                                         !
 ! A14   A(2,3,19)             119.3898                                         !
 ! A15   A(4,3,19)             125.0871                                         !
 ! A16   A(2,5,6)              116.9553                                         !
 ! A17   A(2,5,13)             110.9111                                         !
 ! A18   A(2,5,14)             107.1603                                         !
 ! A19   A(6,5,13)             109.5405                                         !
 ! A20   A(6,5,14)             105.6289                                         !
 ! A21   A(13,5,14)            105.9147                                         !
 ! A22   A(5,6,7)              118.9195                                         !
 ! A23   A(5,6,15)             110.0225                                         !
 ! A24   A(5,6,16)             108.5843                                         !
 ! A25   A(7,6,15)             106.6276                                         !
 ! A26   A(7,6,16)             105.2634                                         !
 ! A27   A(15,6,16)            106.7359                                         !
 ! A28   A(6,7,8)              125.0259                                         !
 ! A29   A(6,7,9)              114.3619                                         !
 ! A30   A(8,7,9)              120.5847                                         !
 ! A31   A(7,9,10)             106.8864                                         !
 ! A32   A(3,19,20)            124.7987                                         !
 ! A33   A(3,19,33)            112.6144                                         !
 ! A34   A(20,19,33)           113.7307                                         !
 ! A35   A(19,20,21)           107.9464                                         !
 ! A36   A(19,20,23)           109.5202                                         !
 ! A37   A(19,20,34)           107.5886                                         !
 ! A38   A(21,20,23)           114.6682                                         !
 ! A39   A(21,20,34)           110.4504                                         !
 ! A40   A(23,20,34)           106.459                                          !
 ! A41   A(20,21,22)           119.7293                                         !
 ! A42   A(20,21,43)           116.8157                                         !
 ! A43   A(22,21,43)           123.1844                                         !
 ! A44   A(20,23,24)           108.3451                                         !
 ! A45   A(20,23,35)           108.9709                                         !
 ! A46   A(20,23,36)           108.9124                                         !
 ! A47   A(24,23,35)           110.8357                                         !
 ! A48   A(24,23,36)           112.0061                                         !
 ! A49   A(35,23,36)           107.7164                                         !
 ! A50   A(23,24,25)           128.1675                                         !
 ! A51   A(23,24,26)           124.2319                                         !
 ! A52   A(25,24,26)           106.2767                                         !
 ! A53   A(24,25,29)           110.0639                                         !
 ! A54   A(24,25,37)           129.5782                                         !
 ! A55   A(29,25,37)           120.3375                                         !
 ! A56   A(24,26,27)           107.3502                                         !
 ! A57   A(24,26,28)           133.3825                                         !
 ! A58   A(27,26,28)           119.2572                                         !
 ! A59   A(26,27,29)           106.9119                                         !
 ! A60   A(26,27,30)           121.8852                                         !
 ! A61   A(29,27,30)           131.1739                                         !
 ! A62   A(26,28,31)           118.8473                                         !
 ! A63   A(26,28,39)           120.7824                                         !
 ! A64   A(31,28,39)           120.2215                                         !
 ! A65   A(25,29,27)           109.3694                                         !
 ! A66   A(25,29,38)           124.9616                                         !
 ! A67   A(27,29,38)           125.661                                          !
 ! A68   A(27,30,32)           117.6968                                         !
 ! A69   A(27,30,40)           121.2891                                         !
 ! A70   A(32,30,40)           121.0089                                         !
 ! A71   A(28,31,32)           120.8908                                         !
 ! A72   A(28,31,41)           118.6747                                         !
 ! A73   A(32,31,41)           120.3884                                         !
 ! A74   A(30,32,31)           121.3642                                         !
 ! A75   A(30,32,42)           119.187                                          !
 ! A76   A(31,32,42)           119.4115                                         !
 ! A77   A(21,43,44)           126.2973                                         !
 ! A78   A(21,43,51)           114.5413                                         !
 ! A79   A(44,43,51)           113.5046                                         !
 ! A80   A(43,44,45)           105.8148                                         !
 ! A81   A(43,44,47)           110.6711                                         !
 ! A82   A(43,44,52)           109.8404                                         !
 ! A83   A(45,44,47)           114.1331                                         !
 ! A84   A(45,44,52)           110.4481                                         !
 ! A85   A(47,44,52)           105.957                                          !
 ! A86   A(44,45,46)           118.9807                                         !
 ! A87   A(44,45,57)           120.8169                                         !
 ! A88   A(46,45,57)           120.0565                                         !
 ! A89   A(44,47,48)           114.9333                                         !
 ! A90   A(44,47,49)           110.1977                                         !
 ! A91   A(44,47,53)           104.2051                                         !
 ! A92   A(48,47,49)           114.0176                                         !
 ! A93   A(48,47,53)           107.3692                                         !
 ! A94   A(49,47,53)           105.1011                                         !
 ! A95   A(47,48,54)           112.1512                                         !
 ! A96   A(47,48,55)           110.5514                                         !
 ! A97   A(47,48,56)           109.5745                                         !
 ! A98   A(54,48,55)           107.2785                                         !
 ! A99   A(54,48,56)           108.2223                                         !
 ! A100  A(55,48,56)           108.9709                                         !
 ! A101  A(47,49,50)           110.1437                                         !
 ! A102  A(45,57,58)           129.3906                                         !
 ! A103  A(45,57,70)           110.4838                                         !
 ! A104  A(58,57,70)           110.1868                                         !
 ! A105  A(57,58,59)           112.6125                                         !
 ! A106  A(57,58,61)           117.3959                                         !
 ! A107  A(57,58,71)           102.1785                                         !
 ! A108  A(59,58,61)           112.0661                                         !
 ! A109  A(59,58,71)           103.3846                                         !
 ! A110  A(61,58,71)           107.5459                                         !
 ! A111  A(58,59,60)           124.2045                                         !
 ! A112  A(58,59,68)           114.2488                                         !
 ! A113  A(60,59,68)           121.4832                                         !
 ! A114  A(58,61,62)           113.9119                                         !
 ! A115  A(58,61,72)           108.8586                                         !
 ! A116  A(58,61,73)           107.8822                                         !
 ! A117  A(62,61,72)           107.8394                                         !
 ! A118  A(62,61,73)           109.8306                                         !
 ! A119  A(72,61,73)           108.3927                                         !
 ! A120  A(61,62,63)           115.5042                                         !
 ! A121  A(61,62,74)           107.7506                                         !
 ! A122  A(61,62,75)           109.432                                          !
 ! A123  A(63,62,74)           108.5098                                         !
 ! A124  A(63,62,75)           108.9466                                         !
 ! A125  A(74,62,75)           106.3013                                         !
 ! A126  A(62,63,64)           114.1756                                         !
 ! A127  A(62,63,76)           109.0758                                         !
 ! A128  A(62,63,77)           110.8303                                         !
 ! A129  A(64,63,76)           108.2928                                         !
 ! A130  A(64,63,77)           108.6296                                         !
 ! A131  A(76,63,77)           105.4444                                         !
 ! A132  A(63,64,65)           120.3209                                         !
 ! A133  A(63,64,78)           112.9412                                         !
 ! A134  A(65,64,78)           114.6482                                         !
 ! A135  A(64,65,66)           126.6405                                         !
 ! A136  A(64,65,67)           114.6459                                         !
 ! A137  A(66,65,67)           118.6064                                         !
 ! A138  A(65,66,79)           110.8663                                         !
 ! A139  A(65,67,80)           116.4319                                         !
 ! A140  A(65,67,81)           112.8265                                         !
 ! A141  A(80,67,81)           113.6802                                         !
 ! A142  A(59,68,69)           107.7153                                         !
 ! D1    D(11,1,2,3)            75.6135                                         !
 ! D2    D(11,1,2,5)           -57.7365                                         !
 ! D3    D(11,1,2,12)         -176.7515                                         !
 ! D4    D(17,1,2,3)          -164.2126                                         !
 ! D5    D(17,1,2,5)            62.4373                                         !
 ! D6    D(17,1,2,12)          -56.5777                                         !
 ! D7    D(18,1,2,3)           -42.6649                                         !
 ! D8    D(18,1,2,5)          -176.015                                          !
 ! D9    D(18,1,2,12)           64.97                                           !
 ! D10   D(1,2,3,4)             67.5058                                         !
 ! D11   D(1,2,3,19)          -117.8024                                         !
 ! D12   D(5,2,3,4)           -163.4358                                         !
 ! D13   D(5,2,3,19)            11.256                                          !
 ! D14   D(12,2,3,4)           -41.877                                          !
 ! D15   D(12,2,3,19)          132.8147                                         !
 ! D16   D(1,2,5,6)            -92.7883                                         !
 ! D17   D(1,2,5,13)            33.7958                                         !
 ! D18   D(1,2,5,14)           148.9593                                         !
 ! D19   D(3,2,5,6)            141.1723                                         !
 ! D20   D(3,2,5,13)           -92.2435                                         !
 ! D21   D(3,2,5,14)            22.9199                                         !
 ! D22   D(12,2,5,6)            23.3074                                         !
 ! D23   D(12,2,5,13)          149.8916                                         !
 ! D24   D(12,2,5,14)          -94.945                                          !
 ! D25   D(2,3,19,20)           48.3513                                         !
 ! D26   D(2,3,19,33)         -166.5235                                         !
 ! D27   D(4,3,19,20)         -137.516                                          !
 ! D28   D(4,3,19,33)            7.6091                                         !
 ! D29   D(2,5,6,7)             73.4936                                         !
 ! D30   D(2,5,6,15)           -49.8238                                         !
 ! D31   D(2,5,6,16)          -166.3031                                         !
 ! D32   D(13,5,6,7)           -53.7626                                         !
 ! D33   D(13,5,6,15)         -177.0801                                         !
 ! D34   D(13,5,6,16)           66.4406                                         !
 ! D35   D(14,5,6,7)          -167.4297                                         !
 ! D36   D(14,5,6,15)           69.2529                                         !
 ! D37   D(14,5,6,16)          -47.2265                                         !
 ! D38   D(5,6,7,8)            144.6436                                         !
 ! D39   D(5,6,7,9)            -37.2638                                         !
 ! D40   D(15,6,7,8)           -90.3807                                         !
 ! D41   D(15,6,7,9)            87.7119                                         !
 ! D42   D(16,6,7,8)            22.7612                                         !
 ! D43   D(16,6,7,9)          -159.1462                                         !
 ! D44   D(6,7,9,10)          -175.9476                                         !
 ! D45   D(8,7,9,10)             2.238                                          !
 ! D46   D(3,19,20,21)        -134.939                                          !
 ! D47   D(3,19,20,23)          99.5904                                         !
 ! D48   D(3,19,20,34)         -15.7332                                         !
 ! D49   D(33,19,20,21)         80.2709                                         !
 ! D50   D(33,19,20,23)        -45.1997                                         !
 ! D51   D(33,19,20,34)       -160.5233                                         !
 ! D52   D(19,20,21,22)        -40.2237                                         !
 ! D53   D(19,20,21,43)        133.9916                                         !
 ! D54   D(23,20,21,22)         82.1374                                         !
 ! D55   D(23,20,21,43)       -103.6473                                         !
 ! D56   D(34,20,21,22)       -157.5964                                         !
 ! D57   D(34,20,21,43)         16.619                                          !
 ! D58   D(19,20,23,24)        -56.8787                                         !
 ! D59   D(19,20,23,35)       -177.5589                                         !
 ! D60   D(19,20,23,36)         65.1879                                         !
 ! D61   D(21,20,23,24)       -178.3835                                         !
 ! D62   D(21,20,23,35)         60.9363                                         !
 ! D63   D(21,20,23,36)        -56.3169                                         !
 ! D64   D(34,20,23,24)         59.1641                                         !
 ! D65   D(34,20,23,35)        -61.5161                                         !
 ! D66   D(34,20,23,36)       -178.7693                                         !
 ! D67   D(20,21,43,44)         31.5956                                         !
 ! D68   D(20,21,43,51)       -176.8395                                         !
 ! D69   D(22,21,43,44)       -154.4074                                         !
 ! D70   D(22,21,43,51)         -2.8424                                         !
 ! D71   D(20,23,24,25)        102.1196                                         !
 ! D72   D(20,23,24,26)        -62.8959                                         !
 ! D73   D(35,23,24,25)       -138.3651                                         !
 ! D74   D(35,23,24,26)         56.6194                                         !
 ! D75   D(36,23,24,25)        -18.0341                                         !
 ! D76   D(36,23,24,26)        176.9503                                         !
 ! D77   D(23,24,25,29)       -166.7254                                         !
 ! D78   D(23,24,25,37)         11.6057                                         !
 ! D79   D(26,24,25,29)          0.4074                                         !
 ! D80   D(26,24,25,37)        178.7385                                         !
 ! D81   D(23,24,26,27)        166.4732                                         !
 ! D82   D(23,24,26,28)        -12.3197                                         !
 ! D83   D(25,24,26,27)         -1.3009                                         !
 ! D84   D(25,24,26,28)        179.9063                                         !
 ! D85   D(24,25,29,27)          0.6823                                         !
 ! D86   D(24,25,29,38)       -178.3328                                         !
 ! D87   D(37,25,29,27)       -177.8274                                         !
 ! D88   D(37,25,29,38)          3.1576                                         !
 ! D89   D(24,26,27,29)          1.7091                                         !
 ! D90   D(24,26,27,30)       -176.5346                                         !
 ! D91   D(28,26,27,29)       -179.2965                                         !
 ! D92   D(28,26,27,30)          2.4597                                         !
 ! D93   D(24,26,28,31)        176.3214                                         !
 ! D94   D(24,26,28,39)         -8.1031                                         !
 ! D95   D(27,26,28,31)         -2.3579                                         !
 ! D96   D(27,26,28,39)        173.2176                                         !
 ! D97   D(26,27,29,25)         -1.4841                                         !
 ! D98   D(26,27,29,38)        177.5224                                         !
 ! D99   D(30,27,29,25)        176.5347                                         !
 ! D100  D(30,27,29,38)         -4.4588                                         !
 ! D101  D(26,27,30,32)         -0.5818                                         !
 ! D102  D(26,27,30,40)       -179.7598                                         !
 ! D103  D(29,27,30,32)       -178.3493                                         !
 ! D104  D(29,27,30,40)          2.4728                                         !
 ! D105  D(26,28,31,32)          0.4921                                         !
 ! D106  D(26,28,31,41)        178.0327                                         !
 ! D107  D(39,28,31,32)       -175.109                                          !
 ! D108  D(39,28,31,41)          2.4316                                         !
 ! D109  D(27,30,32,31)         -1.3555                                         !
 ! D110  D(27,30,32,42)       -179.1211                                         !
 ! D111  D(40,30,32,31)        177.8249                                         !
 ! D112  D(40,30,32,42)          0.0593                                         !
 ! D113  D(28,31,32,30)          1.4257                                         !
 ! D114  D(28,31,32,42)        179.1864                                         !
 ! D115  D(41,31,32,30)       -176.0728                                         !
 ! D116  D(41,31,32,42)          1.6879                                         !
 ! D117  D(21,43,44,45)       -168.1423                                         !
 ! D118  D(21,43,44,47)         67.7292                                         !
 ! D119  D(21,43,44,52)        -48.9187                                         !
 ! D120  D(51,43,44,45)         40.0439                                         !
 ! D121  D(51,43,44,47)        -84.0846                                         !
 ! D122  D(51,43,44,52)        159.2674                                         !
 ! D123  D(43,44,45,46)        -30.6067                                         !
 ! D124  D(43,44,45,57)        153.7811                                         !
 ! D125  D(47,44,45,46)         91.3265                                         !
 ! D126  D(47,44,45,57)        -84.2858                                         !
 ! D127  D(52,44,45,46)       -149.4284                                         !
 ! D128  D(52,44,45,57)         34.9593                                         !
 ! D129  D(43,44,47,48)         98.2523                                         !
 ! D130  D(43,44,47,49)       -131.26                                           !
 ! D131  D(43,44,47,53)        -18.959                                          !
 ! D132  D(45,44,47,48)        -20.9707                                         !
 ! D133  D(45,44,47,49)        109.517                                          !
 ! D134  D(45,44,47,53)       -138.182                                          !
 ! D135  D(52,44,47,48)       -142.7239                                         !
 ! D136  D(52,44,47,49)        -12.2362                                         !
 ! D137  D(52,44,47,53)        100.0647                                         !
 ! D138  D(44,45,57,58)        -25.6399                                         !
 ! D139  D(44,45,57,70)       -167.2127                                         !
 ! D140  D(46,45,57,58)        158.7948                                         !
 ! D141  D(46,45,57,70)         17.2221                                         !
 ! D142  D(44,47,48,54)         65.3191                                         !
 ! D143  D(44,47,48,55)        -54.3577                                         !
 ! D144  D(44,47,48,56)       -174.4762                                         !
 ! D145  D(49,47,48,54)        -63.289                                          !
 ! D146  D(49,47,48,55)        177.0342                                         !
 ! D147  D(49,47,48,56)         56.9158                                         !
 ! D148  D(53,47,48,54)       -179.2795                                         !
 ! D149  D(53,47,48,55)         61.0437                                         !
 ! D150  D(53,47,48,56)        -59.0748                                         !
 ! D151  D(44,47,49,50)        -98.2368                                         !
 ! D152  D(48,47,49,50)         32.7351                                         !
 ! D153  D(53,47,49,50)        150.0418                                         !
 ! D154  D(45,57,58,59)         77.4655                                         !
 ! D155  D(45,57,58,61)        -54.929                                          !
 ! D156  D(45,57,58,71)       -172.2655                                         !
 ! D157  D(70,57,58,59)       -140.8746                                         !
 ! D158  D(70,57,58,61)         86.7309                                         !
 ! D159  D(70,57,58,71)        -30.6056                                         !
 ! D160  D(57,58,59,60)       -148.8807                                         !
 ! D161  D(57,58,59,68)         33.9888                                         !
 ! D162  D(61,58,59,60)        -13.9142                                         !
 ! D163  D(61,58,59,68)        168.9553                                         !
 ! D164  D(71,58,59,60)        101.6065                                         !
 ! D165  D(71,58,59,68)        -75.524                                          !
 ! D166  D(57,58,61,62)       -140.3084                                         !
 ! D167  D(57,58,61,72)         99.3224                                         !
 ! D168  D(57,58,61,73)        -18.1009                                         !
 ! D169  D(59,58,61,62)         87.0522                                         !
 ! D170  D(59,58,61,72)        -33.317                                          !
 ! D171  D(59,58,61,73)       -150.7403                                         !
 ! D172  D(71,58,61,62)        -25.911                                          !
 ! D173  D(71,58,61,72)       -146.2802                                         !
 ! D174  D(71,58,61,73)         96.2965                                         !
 ! D175  D(58,59,68,69)         -5.0928                                         !
 ! D176  D(60,59,68,69)        177.6899                                         !
 ! D177  D(58,61,62,63)         64.2208                                         !
 ! D178  D(58,61,62,74)       -174.3099                                         !
 ! D179  D(58,61,62,75)        -59.1306                                         !
 ! D180  D(72,61,62,63)       -174.8396                                         !
 ! D181  D(72,61,62,74)        -53.3703                                         !
 ! D182  D(72,61,62,75)         61.809                                          !
 ! D183  D(73,61,62,63)        -56.9079                                         !
 ! D184  D(73,61,62,74)         64.5614                                         !
 ! D185  D(73,61,62,75)        179.7407                                         !
 ! D186  D(61,62,63,64)         51.3589                                         !
 ! D187  D(61,62,63,76)        172.6426                                         !
 ! D188  D(61,62,63,77)        -71.6961                                         !
 ! D189  D(74,62,63,64)        -69.7009                                         !
 ! D190  D(74,62,63,76)         51.5827                                         !
 ! D191  D(74,62,63,77)        167.2441                                         !
 ! D192  D(75,62,63,64)        174.9658                                         !
 ! D193  D(75,62,63,76)        -63.7506                                         !
 ! D194  D(75,62,63,77)         51.9108                                         !
 ! D195  D(62,63,64,65)        -78.9222                                         !
 ! D196  D(62,63,64,78)         61.627                                          !
 ! D197  D(76,63,64,65)        159.3621                                         !
 ! D198  D(76,63,64,78)        -60.0888                                         !
 ! D199  D(77,63,64,65)         45.3187                                         !
 ! D200  D(77,63,64,78)       -174.1322                                         !
 ! D201  D(63,64,65,66)        -39.8457                                         !
 ! D202  D(63,64,65,67)        136.3092                                         !
 ! D203  D(78,64,65,66)       -179.7685                                         !
 ! D204  D(78,64,65,67)         -3.6136                                         !
 ! D205  D(64,65,66,79)         -9.4634                                         !
 ! D206  D(67,65,66,79)        174.5175                                         !
 ! D207  D(64,65,67,80)         23.5915                                         !
 ! D208  D(64,65,67,81)        157.6872                                         !
 ! D209  D(66,65,67,80)       -159.9223                                         !
 ! D210  D(66,65,67,81)        -25.8266                                         !
 --------------------------------------------------------------------------------
 Symmetry turned off by external request.
 Stoichiometry    C26H39N8O8(1+)
 Framework group  C1[X(C26H39N8O8)]
 Deg. of freedom   237
 Full point group                 C1      NOp   1
                          Input orientation:                          
 ---------------------------------------------------------------------
 Center     Atomic      Atomic             Coordinates (Angstroms)
 Number     Number       Type             X           Y           Z
 ---------------------------------------------------------------------
      1          7           0       12.864833   30.854455   11.704720
      2          6           0       12.693983   32.267458   12.214960
      3          6           0       12.905152   32.196154   13.757220
      4          8           0       14.043199   31.922472   14.117258
      5          6           0       11.450820   32.957614   11.637328
      6          6           0       11.647622   33.795797   10.360578
      7          6           0       11.867678   33.084947    9.047554
      8          8           0       11.456280   33.463883    7.976081
      9          8           0       12.631813   31.949856    9.139886
     10          1           0       12.758564   31.617850    8.228786
     11          1           0       12.040057   30.255377   11.911262
     12          1           0       13.593470   32.792863   11.882066
     13          1           0       10.643694   32.239814   11.481914
     14          1           0       11.088609   33.656259   12.395155
     15          1           0       12.493299   34.486133   10.490150
     16          1           0       10.757847   34.412938   10.208237
     17          1           0       12.999763   30.873422   10.685231
     18          1           0       13.669794   30.417346   12.171164
     19          7           0       11.885514   32.537794   14.585742
     20          6           0       10.504335   32.049515   14.462008
     21          6           0        9.560605   33.249107   14.637695
     22          8           0        9.807107   34.094662   15.483269
     23          6           0       10.271222   30.885233   15.471396
     24          6           0       11.285330   29.816103   15.200487
     25          6           0       12.437716   29.543142   15.896599
     26          6           0       11.373931   29.077772   13.968270
     27          6           0       12.627875   28.398090   13.968899
     28          6           0       10.518283   28.945164   12.854312
     29          7           0       13.240001   28.687925   15.167813
     30          6           0       13.059726   27.640628   12.872041
     31          6           0       10.947598   28.190204   11.761329
     32          6           0       12.212373   27.557793   11.767663
     33          1           0       12.189257   32.666163   15.546727
     34          1           0       10.394676   31.622195   13.468103
     35          1           0        9.254896   30.499784   15.341532
     36          1           0       10.351113   31.278001   16.491247
     37          1           0       12.766337   29.914197   16.857561
     38          1           0       14.128136   28.322995   15.478273
     39          1           0        9.514397   29.360305   12.871740
     40          1           0       14.015277   27.123573   12.884447
     41          1           0       10.274532   28.063172   10.919608
     42          1           0       12.516674   26.965275   10.909912
     43          7           0        8.535147   33.367778   13.733323
     44          6           0        7.838218   32.270555   13.067657
     45          6           0        7.003393   32.921201   11.948043
     46          8           0        6.579865   34.056530   12.108622
     47          6           0        6.985077   31.435238   14.110177
     48          6           0        5.503855   31.794511   14.163414
     49          8           0        7.237524   30.048117   13.950205
     50          1           0        6.537677   29.640305   13.412980
     51          1           0        7.962103   34.200815   13.850809
     52          1           0        8.563984   31.572296   12.645682
     53          1           0        7.419388   31.694101   15.081598
     54          1           0        4.986862   31.554188   13.228542
     55          1           0        5.374793   32.866290   14.339805
     56          1           0        5.021367   31.240369   14.973168
     57          7           0        6.657274   32.206449   10.815755
     58          6           0        7.330348   31.054164   10.197325
     59          6           0        7.057374   29.744775   10.940651
     60          8           0        7.836772   28.826364   11.005006
     61          6           0        8.819554   31.213960    9.833741
     62          6           0        9.207418   30.566417    8.490764
     63          6           0        8.540189   31.181373    7.237188
     64          7           0        8.671181   32.633452    7.141101
     65          6           0        7.847169   33.463414    7.891730
     66          7           0        6.586083   33.292549    8.126003
     67          7           0        8.498147   34.533716    8.497091
     68          8           0        5.821211   29.662719   11.486870
     69          1           0        5.377214   30.525608   11.350783
     70          1           0        6.292580   32.839171   10.086777
     71          1           0        6.772973   30.935670    9.261973
     72          1           0        9.427340   30.749737   10.618090
     73          1           0        9.046242   32.283176    9.809110
     74          1           0       10.297863   30.648937    8.381552
     75          1           0        8.981621   29.493333    8.524272
     76          1           0        8.984036   30.736290    6.340950
     77          1           0        7.478731   30.922945    7.195461
     78          1           0        9.635231   32.939838    7.078074
     79          1           0        6.210500   32.534886    7.556964
     80          1           0        9.367783   34.831781    8.071384
     81          1           0        7.871893   35.298526    8.722266
 ---------------------------------------------------------------------
 Rotational constants (GHZ):           0.1100752           0.0752945           0.0657893
 Standard basis: 6-31G(d) (6D, 7F)
   708 basis functions,  1332 primitive gaussians,   708 cartesian basis functions
   157 alpha electrons      157 beta electrons
       nuclear repulsion energy      5871.2664124295 Hartrees.
 NAtoms=   81 NActive=   81 NUniq=   81 SFac= 1.00D+00 NAtFMM=   60 NAOKFM=T Big=T
 Integral buffers will be    131072 words long.
 Raffenetti 2 integral format.
 Two-electron integral symmetry is turned off.
 Nuclear repulsion after empirical dispersion term =     5871.1241829937 Hartrees.
 One-electron integrals computed using PRISM.
 NBasis=   708 RedAO= T EigKep=  3.69D-04  NBF=   708
 NBsUse=   708 1.00D-06 EigRej= -1.00D+00 NBFU=   708
 Initial guess from the checkpoint file:  "conf-962.chk"
 B after Tr=     0.000000    0.000000    0.000000
         Rot=    1.000000    0.000000    0.000000    0.000000 Ang=   0.00 deg.
 Requested convergence on RMS density matrix=1.00D-08 within 128 cycles.
 Requested convergence on MAX density matrix=1.00D-06.
 Requested convergence on             energy=1.00D-06.
 No special actions if energy rises.
 SCF Done:  E(RB3LYP) =  -2054.01764475     A.U. after    1 cycles
            NFock=  1  Conv=0.53D-08     -V/T= 2.0092

 **********************************************************************

            Population analysis using the SCF Density.

 **********************************************************************

 Alpha  occ. eigenvalues --  -19.35948 -19.30580 -19.29442 -19.24953 -19.24940
 Alpha  occ. eigenvalues --  -19.24394 -19.22495 -19.21448 -14.58717 -14.48963
 Alpha  occ. eigenvalues --  -14.48178 -14.46258 -14.45817 -14.44607 -14.44277
 Alpha  occ. eigenvalues --  -14.38253 -10.47621 -10.43028 -10.42534 -10.40036
 Alpha  occ. eigenvalues --  -10.39839 -10.38905 -10.38293 -10.35500 -10.35377
 Alpha  occ. eigenvalues --  -10.34612 -10.34590 -10.34491 -10.34374 -10.33495
 Alpha  occ. eigenvalues --  -10.32805 -10.32779 -10.30725 -10.30707 -10.30405
 Alpha  occ. eigenvalues --  -10.30235 -10.30057 -10.29920 -10.29869 -10.29578
 Alpha  occ. eigenvalues --  -10.29027 -10.27336  -1.26075  -1.21322  -1.17349
 Alpha  occ. eigenvalues --   -1.17037  -1.14708  -1.13519  -1.13326  -1.13226
 Alpha  occ. eigenvalues --   -1.11909  -1.08985  -1.07546  -1.05035  -1.02891
 Alpha  occ. eigenvalues --   -1.02448  -0.98646  -0.95702  -0.95268  -0.93931
 Alpha  occ. eigenvalues --   -0.91734  -0.90673  -0.88406  -0.87352  -0.86592
 Alpha  occ. eigenvalues --   -0.84903  -0.84247  -0.83197  -0.81401  -0.80482
 Alpha  occ. eigenvalues --   -0.78867  -0.77712  -0.75579  -0.74651  -0.73362
 Alpha  occ. eigenvalues --   -0.73230  -0.72554  -0.71802  -0.71179  -0.70775
 Alpha  occ. eigenvalues --   -0.70389  -0.69466  -0.68267  -0.67771  -0.67204
 Alpha  occ. eigenvalues --   -0.65625  -0.65045  -0.64815  -0.63947  -0.63250
 Alpha  occ. eigenvalues --   -0.63006  -0.62236  -0.61701  -0.61052  -0.60714
 Alpha  occ. eigenvalues --   -0.60380  -0.60279  -0.59297  -0.58764  -0.58665
 Alpha  occ. eigenvalues --   -0.58002  -0.57863  -0.57032  -0.56727  -0.56392
 Alpha  occ. eigenvalues --   -0.56102  -0.55224  -0.55085  -0.55030  -0.54915
 Alpha  occ. eigenvalues --   -0.54455  -0.54401  -0.54007  -0.53616  -0.53358
 Alpha  occ. eigenvalues --   -0.53001  -0.52622  -0.52334  -0.52066  -0.51456
 Alpha  occ. eigenvalues --   -0.51351  -0.50804  -0.50182  -0.49985  -0.49763
 Alpha  occ. eigenvalues --   -0.49558  -0.49073  -0.48491  -0.48177  -0.48086
 Alpha  occ. eigenvalues --   -0.47585  -0.47236  -0.46700  -0.46486  -0.46142
 Alpha  occ. eigenvalues --   -0.45691  -0.45620  -0.44975  -0.44666  -0.44285
 Alpha  occ. eigenvalues --   -0.43220  -0.42831  -0.41793  -0.39583  -0.39374
 Alpha  occ. eigenvalues --   -0.39084  -0.38627  -0.37591  -0.37355  -0.36258
 Alpha  occ. eigenvalues --   -0.36081  -0.35449  -0.34999  -0.34094  -0.33948
 Alpha  occ. eigenvalues --   -0.32196  -0.31565
 Alpha virt. eigenvalues --   -0.14773  -0.13720  -0.12875  -0.11159  -0.09787
 Alpha virt. eigenvalues --   -0.09526  -0.08914  -0.08817  -0.06032  -0.05539
 Alpha virt. eigenvalues --   -0.05364  -0.04457  -0.03520  -0.03381  -0.02499
 Alpha virt. eigenvalues --   -0.01893  -0.01639  -0.01336  -0.00820  -0.00517
 Alpha virt. eigenvalues --    0.00004   0.01043   0.01292   0.01402   0.01570
 Alpha virt. eigenvalues --    0.02121   0.02499   0.02664   0.03102   0.03826
 Alpha virt. eigenvalues --    0.04382   0.04745   0.04937   0.05049   0.05347
 Alpha virt. eigenvalues --    0.05649   0.05975   0.06358   0.06495   0.06956
 Alpha virt. eigenvalues --    0.07153   0.07445   0.07750   0.08319   0.08346
 Alpha virt. eigenvalues --    0.08824   0.09135   0.09397   0.09518   0.09813
 Alpha virt. eigenvalues --    0.10591   0.10700   0.11221   0.11684   0.12039
 Alpha virt. eigenvalues --    0.12333   0.12776   0.13257   0.13792   0.14011
 Alpha virt. eigenvalues --    0.14605   0.14663   0.15394   0.15633   0.16044
 Alpha virt. eigenvalues --    0.16233   0.17003   0.17344   0.17967   0.18423
 Alpha virt. eigenvalues --    0.18865   0.19257   0.19760   0.20595   0.21058
 Alpha virt. eigenvalues --    0.22707   0.23249   0.23775   0.24321   0.24525
 Alpha virt. eigenvalues --    0.26250   0.26890   0.27817   0.28119   0.29179
 Alpha virt. eigenvalues --    0.30038   0.31773   0.32694   0.33244   0.33852
 Alpha virt. eigenvalues --    0.34889   0.35039   0.36327   0.36679   0.38282
 Alpha virt. eigenvalues --    0.39247   0.39899   0.40276   0.40396   0.40693
 Alpha virt. eigenvalues --    0.41906   0.42021   0.42268   0.42790   0.43286
 Alpha virt. eigenvalues --    0.43732   0.44477   0.45063   0.45294   0.45841
 Alpha virt. eigenvalues --    0.46177   0.46285   0.46454   0.47078   0.47344
 Alpha virt. eigenvalues --    0.47802   0.48578   0.48906   0.49153   0.49302
 Alpha virt. eigenvalues --    0.49542   0.49810   0.50349   0.50595   0.51000
 Alpha virt. eigenvalues --    0.51586   0.51832   0.52143   0.53048   0.53563
 Alpha virt. eigenvalues --    0.54091   0.54368   0.54670   0.54957   0.55160
 Alpha virt. eigenvalues --    0.56222   0.56323   0.56840   0.57753   0.58117
 Alpha virt. eigenvalues --    0.58680   0.58841   0.59627   0.59793   0.60115
 Alpha virt. eigenvalues --    0.60695   0.61929   0.62218   0.62432   0.62797
 Alpha virt. eigenvalues --    0.63398   0.63864   0.63991   0.64570   0.64898
 Alpha virt. eigenvalues --    0.65175   0.66104   0.66290   0.67049   0.67456
 Alpha virt. eigenvalues --    0.67735   0.68361   0.68524   0.69295   0.69622
 Alpha virt. eigenvalues --    0.70325   0.70588   0.70789   0.71660   0.71742
 Alpha virt. eigenvalues --    0.71988   0.72225   0.72651   0.72954   0.73116
 Alpha virt. eigenvalues --    0.73253   0.73782   0.74008   0.74449   0.75050
 Alpha virt. eigenvalues --    0.75650   0.76076   0.76223   0.76532   0.76814
 Alpha virt. eigenvalues --    0.77260   0.77531   0.77662   0.78385   0.78638
 Alpha virt. eigenvalues --    0.78996   0.79592   0.80204   0.80544   0.80782
 Alpha virt. eigenvalues --    0.81297   0.81698   0.82139   0.82616   0.83346
 Alpha virt. eigenvalues --    0.83759   0.84159   0.84307   0.84833   0.85041
 Alpha virt. eigenvalues --    0.85760   0.86355   0.86737   0.86892   0.87097
 Alpha virt. eigenvalues --    0.88134   0.88377   0.88589   0.89399   0.89947
 Alpha virt. eigenvalues --    0.90440   0.90877   0.91003   0.91410   0.92399
 Alpha virt. eigenvalues --    0.93174   0.93538   0.94196   0.94585   0.95121
 Alpha virt. eigenvalues --    0.95778   0.96235   0.97088   0.97167   0.98086
 Alpha virt. eigenvalues --    0.98396   0.99011   0.99242   0.99414   1.00694
 Alpha virt. eigenvalues --    1.00987   1.01237   1.01539   1.02019   1.02631
 Alpha virt. eigenvalues --    1.03387   1.03838   1.04227   1.04602   1.06224
 Alpha virt. eigenvalues --    1.06725   1.07124   1.07321   1.08035   1.09244
 Alpha virt. eigenvalues --    1.09932   1.10415   1.10925   1.11504   1.11941
 Alpha virt. eigenvalues --    1.13077   1.13586   1.13752   1.14879   1.14911
 Alpha virt. eigenvalues --    1.15966   1.16960   1.17600   1.18171   1.18601
 Alpha virt. eigenvalues --    1.19464   1.20615   1.21364   1.22522   1.22743
 Alpha virt. eigenvalues --    1.23585   1.24603   1.24749   1.25946   1.26437
 Alpha virt. eigenvalues --    1.27184   1.27974   1.28211   1.29312   1.29870
 Alpha virt. eigenvalues --    1.30515   1.30952   1.31419   1.31918   1.32827
 Alpha virt. eigenvalues --    1.33332   1.34003   1.34783   1.35926   1.36438
 Alpha virt. eigenvalues --    1.37039   1.38062   1.38974   1.39742   1.40313
 Alpha virt. eigenvalues --    1.41020   1.41307   1.41704   1.43005   1.43787
 Alpha virt. eigenvalues --    1.44309   1.45005   1.45753   1.47107   1.48260
 Alpha virt. eigenvalues --    1.49321   1.49643   1.50963   1.51843   1.52795
 Alpha virt. eigenvalues --    1.53386   1.54019   1.55314   1.55860   1.56367
 Alpha virt. eigenvalues --    1.56942   1.57333   1.59243   1.59861   1.60364
 Alpha virt. eigenvalues --    1.61411   1.62093   1.62413   1.63175   1.63641
 Alpha virt. eigenvalues --    1.63912   1.64983   1.65819   1.66282   1.66357
 Alpha virt. eigenvalues --    1.66716   1.67356   1.67464   1.67924   1.68881
 Alpha virt. eigenvalues --    1.69672   1.69898   1.70369   1.70886   1.71631
 Alpha virt. eigenvalues --    1.71798   1.72307   1.72561   1.72923   1.73769
 Alpha virt. eigenvalues --    1.74353   1.74603   1.75431   1.75687   1.76248
 Alpha virt. eigenvalues --    1.76676   1.77650   1.77722   1.77892   1.78556
 Alpha virt. eigenvalues --    1.79060   1.79593   1.80131   1.80483   1.81547
 Alpha virt. eigenvalues --    1.81762   1.82533   1.82790   1.83376   1.83673
 Alpha virt. eigenvalues --    1.84531   1.84815   1.84980   1.85882   1.86905
 Alpha virt. eigenvalues --    1.87291   1.88118   1.88257   1.88918   1.89548
 Alpha virt. eigenvalues --    1.89817   1.90911   1.91327   1.91993   1.92326
 Alpha virt. eigenvalues --    1.92621   1.93292   1.93681   1.94172   1.94439
 Alpha virt. eigenvalues --    1.95317   1.95452   1.96056   1.96144   1.98010
 Alpha virt. eigenvalues --    1.99090   1.99726   2.00361   2.01990   2.03109
 Alpha virt. eigenvalues --    2.04274   2.04883   2.05550   2.06388   2.07435
 Alpha virt. eigenvalues --    2.07532   2.08305   2.09507   2.09992   2.10365
 Alpha virt. eigenvalues --    2.11406   2.12062   2.13087   2.13982   2.14529
 Alpha virt. eigenvalues --    2.15013   2.15370   2.16229   2.16675   2.17112
 Alpha virt. eigenvalues --    2.18052   2.19080   2.19718   2.20206   2.21485
 Alpha virt. eigenvalues --    2.21882   2.22924   2.23186   2.24095   2.25266
 Alpha virt. eigenvalues --    2.25933   2.26315   2.26334   2.27607   2.28678
 Alpha virt. eigenvalues --    2.29706   2.30265   2.32151   2.32723   2.33456
 Alpha virt. eigenvalues --    2.33484   2.34386   2.34488   2.36097   2.36937
 Alpha virt. eigenvalues --    2.37239   2.38537   2.39165   2.39784   2.40240
 Alpha virt. eigenvalues --    2.40566   2.41123   2.42228   2.43928   2.44710
 Alpha virt. eigenvalues --    2.45924   2.46231   2.46532   2.47546   2.47752
 Alpha virt. eigenvalues --    2.49078   2.49488   2.50487   2.50777   2.51220
 Alpha virt. eigenvalues --    2.52172   2.53387   2.53892   2.54616   2.54827
 Alpha virt. eigenvalues --    2.55084   2.55855   2.56542   2.57864   2.58350
 Alpha virt. eigenvalues --    2.59444   2.59757   2.61500   2.62058   2.62412
 Alpha virt. eigenvalues --    2.63636   2.64644   2.65262   2.67497   2.67794
 Alpha virt. eigenvalues --    2.68285   2.69321   2.71247   2.72193   2.73011
 Alpha virt. eigenvalues --    2.73375   2.76378   2.78868   2.81901   2.83001
 Alpha virt. eigenvalues --    2.83450   2.84857   2.86703   2.87798   2.88169
 Alpha virt. eigenvalues --    2.89310   2.89708   2.91547   2.93079   2.93552
 Alpha virt. eigenvalues --    2.94427   2.96019   2.97397   2.98500   3.02342
 Alpha virt. eigenvalues --    3.03615   3.08350   3.13414   3.31747   3.71937
 Alpha virt. eigenvalues --    3.73633   3.76246   3.77377   3.83644   3.86156
 Alpha virt. eigenvalues --    3.88383   3.90773   3.93299   3.95603   3.96975
 Alpha virt. eigenvalues --    3.98734   4.00655   4.02719   4.04166   4.06380
 Alpha virt. eigenvalues --    4.09987   4.11827   4.12577   4.13620   4.15298
 Alpha virt. eigenvalues --    4.17832   4.19357   4.20862   4.24260   4.28423
 Alpha virt. eigenvalues --    4.28666   4.32250   4.33317   4.34827   4.35902
 Alpha virt. eigenvalues --    4.36280   4.40610   4.46038   4.46558   4.47960
 Alpha virt. eigenvalues --    4.53642   4.55214   4.60073   4.62424   4.68692
 Alpha virt. eigenvalues --    4.71464
          Condensed to atoms (all electrons):
 Mulliken charges:
               1
     1  N   -0.771164
     2  C   -0.089291
     3  C    0.588578
     4  O   -0.488345
     5  C   -0.335186
     6  C   -0.386174
     7  C    0.625754
     8  O   -0.453184
     9  O   -0.605694
    10  H    0.440487
    11  H    0.409317
    12  H    0.225362
    13  H    0.178469
    14  H    0.230220
    15  H    0.215552
    16  H    0.226894
    17  H    0.421573
    18  H    0.415917
    19  N   -0.553288
    20  C   -0.090874
    21  C    0.605255
    22  O   -0.487042
    23  C   -0.388313
    24  C    0.075104
    25  C    0.025781
    26  C    0.037887
    27  C    0.314039
    28  C   -0.284773
    29  N   -0.673912
    30  C   -0.188626
    31  C   -0.185339
    32  C   -0.168617
    33  H    0.359569
    34  H    0.133384
    35  H    0.215286
    36  H    0.179320
    37  H    0.182287
    38  H    0.351098
    39  H    0.196821
    40  H    0.159118
    41  H    0.178017
    42  H    0.155174
    43  N   -0.610818
    44  C   -0.090514
    45  C    0.605682
    46  O   -0.488084
    47  C    0.129569
    48  C   -0.490979
    49  O   -0.641774
    50  H    0.436113
    51  H    0.364414
    52  H    0.155609
    53  H    0.163105
    54  H    0.138926
    55  H    0.189293
    56  H    0.187167
    57  N   -0.678230
    58  C   -0.079534
    59  C    0.627022
    60  O   -0.447345
    61  C   -0.305953
    62  C   -0.279844
    63  C   -0.168029
    64  N   -0.587891
    65  C    0.590224
    66  N   -0.682757
    67  N   -0.756939
    68  O   -0.591804
    69  H    0.441610
    70  H    0.394607
    71  H    0.190577
    72  H    0.147336
    73  H    0.176781
    74  H    0.106728
    75  H    0.176724
    76  H    0.176238
    77  H    0.161696
    78  H    0.351342
    79  H    0.293315
    80  H    0.341862
    81  H    0.358114
 Sum of Mulliken charges =   1.00000
 Mulliken charges with hydrogens summed into heavy atoms:
               1
     1  N    0.475644
     2  C    0.136071
     3  C    0.588578
     4  O   -0.488345
     5  C    0.073503
     6  C    0.056271
     7  C    0.625754
     8  O   -0.453184
     9  O   -0.165207
    19  N   -0.193719
    20  C    0.042511
    21  C    0.605255
    22  O   -0.487042
    23  C    0.006293
    24  C    0.075104
    25  C    0.208068
    26  C    0.037887
    27  C    0.314039
    28  C   -0.087951
    29  N   -0.322814
    30  C   -0.029508
    31  C   -0.007322
    32  C   -0.013443
    43  N   -0.246403
    44  C    0.065095
    45  C    0.605682
    46  O   -0.488084
    47  C    0.292674
    48  C    0.024406
    49  O   -0.205661
    57  N   -0.283623
    58  C    0.111043
    59  C    0.627022
    60  O   -0.447345
    61  C    0.018163
    62  C    0.003609
    63  C    0.169905
    64  N   -0.236549
    65  C    0.590224
    66  N   -0.389442
    67  N   -0.056963
    68  O   -0.150194
 Electronic spatial extent (au):  <R**2>=        1391712.8421
 Charge=              1.0000 electrons
 Dipole moment (field-independent basis, Debye):
    X=             56.4095    Y=            148.1522    Z=             52.5268  Tot=            167.0035
 Quadrupole moment (field-independent basis, Debye-Ang):
   XX=            453.6857   YY=           4327.5125   ZZ=            368.5136
   XY=           1733.6971   XZ=            624.6056   YZ=           1604.1943
 Traceless Quadrupole moment (field-independent basis, Debye-Ang):
   XX=          -1262.8849   YY=           2610.9419   ZZ=          -1348.0570
   XY=           1733.6971   XZ=            624.6056   YZ=           1604.1943
 Octapole moment (field-independent basis, Debye-Ang**2):
  XXX=           1662.2604  YYY=         118171.8392  ZZZ=          -1092.7163  XYY=          51015.7001
  XXY=          13651.5935  XXZ=           4945.6032  XZZ=           4972.6673  YZZ=          10802.4029
  YYZ=          46037.0783  XYZ=          18966.5196
 Hexadecapole moment (field-independent basis, Debye-Ang**3):
 XXXX=         -36275.0176 YYYY=        2913908.7057 ZZZZ=        -116261.8283 XXXY=          43626.9559
 XXXZ=          14371.6307 YYYX=        1424955.3852 YYYZ=        1218909.8569 ZZZX=           6106.5312
 ZZZY=         -46285.5965 XXYY=         386965.1785 XXZZ=          32870.7196 YYZZ=         277220.2970
 XXYZ=         145779.1122 YYXZ=         547780.2897 ZZXY=         145502.1954
 N-N= 5.871124182994D+03 E-N=-1.649503530082D+04  KE= 2.035212688621D+03
 Unable to Open any file for archive entry.
 1\1\GINC-VIM-002\SP\RB3LYP\6-31G(d)\C26H39N8O8(1+)\KENGMITH\27-May-202
 2\0\\# B3LYP/6-31G* empiricaldispersion=gd3 guess=read geom=check nosy
 mm integral(ultrafinegrid)\\Candidate Structure: Conf:962 Charge calc 
 in gas phase\\1,1\N,0,12.8648332909,30.8544552876,11.704720409\C,0,12.
 6939833495,32.2674583078,12.2149600275\C,0,12.9051523759,32.1961541189
 ,13.7572195745\O,0,14.0431988063,31.9224717933,14.1172578227\C,0,11.45
 08199994,32.9576142084,11.6373281207\C,0,11.6476216456,33.795797076,10
 .3605775601\C,0,11.8676781293,33.0849470855,9.0475544792\O,0,11.456279
 6976,33.463883128,7.9760808842\O,0,12.6318127439,31.9498560543,9.13988
 58888\H,0,12.7585640131,31.6178501698,8.2287863098\H,0,12.0400566479,3
 0.2553766552,11.9112623202\H,0,13.5934696214,32.7928628054,11.88206602
 71\H,0,10.6436936068,32.2398138557,11.4819142081\H,0,11.0886092334,33.
 6562589782,12.3951552774\H,0,12.4932987567,34.4861332827,10.4901502226
 \H,0,10.7578465916,34.4129384339,10.2082370758\H,0,12.999762643,30.873
 4220411,10.6852306476\H,0,13.6697936125,30.4173455582,12.1711636665\N,
 0,11.8855137912,32.5377942318,14.5857416967\C,0,10.5043348941,32.04951
 45311,14.4620080465\C,0,9.5606049331,33.2491071609,14.637694882\O,0,9.
 8071065117,34.0946624406,15.4832687548\C,0,10.2712221957,30.8852333132
 ,15.4713959303\C,0,11.2853300538,29.8161031291,15.2004870106\C,0,12.43
 77163738,29.5431422372,15.8965992104\C,0,11.3739313815,29.0777720548,1
 3.968270274\C,0,12.6278754609,28.3980900461,13.9688990691\C,0,10.51828
 29662,28.9451638101,12.8543116935\N,0,13.2400013857,28.6879246361,15.1
 678129289\C,0,13.0597258328,27.6406283437,12.872041447\C,0,10.94759817
 47,28.1902041834,11.7613293254\C,0,12.2123729599,27.557792958,11.76766
 30076\H,0,12.1892570891,32.6661628348,15.5467271771\H,0,10.394676436,3
 1.6221951506,13.4681033132\H,0,9.2548964524,30.4997840924,15.341532405
 5\H,0,10.3511131556,31.2780009914,16.4912469662\H,0,12.7663373743,29.9
 141965115,16.8575612343\H,0,14.1281359555,28.3229948304,15.4782732139\
 H,0,9.5143969827,29.3603052323,12.8717400564\H,0,14.0152771599,27.1235
 731395,12.884446997\H,0,10.2745317555,28.0631715679,10.9196077654\H,0,
 12.516673619,26.9652754126,10.9099119292\N,0,8.5351472885,33.367778101
 4,13.73332347\C,0,7.8382181624,32.270554825,13.067656721\C,0,7.0033927
 809,32.9212012792,11.9480427877\O,0,6.5798647968,34.0565303588,12.1086
 219793\C,0,6.9850770774,31.4352379653,14.1101770162\C,0,5.5038551123,3
 1.7945111816,14.1634136237\O,0,7.2375241495,30.048117011,13.9502045061
 \H,0,6.5376773073,29.6403047209,13.412980418\H,0,7.9621034505,34.20081
 54241,13.8508086935\H,0,8.5639838061,31.5722958668,12.6456820964\H,0,7
 .4193882952,31.6941007553,15.0815981389\H,0,4.9868623698,31.5541882597
 ,13.2285424714\H,0,5.3747928045,32.8662897809,14.3398047405\H,0,5.0213
 667669,31.2403694496,14.9731677115\N,0,6.6572735359,32.2064486896,10.8
 157548854\C,0,7.3303481841,31.0541643387,10.1973252804\C,0,7.057373685
 8,29.7447752605,10.9406511721\O,0,7.8367716614,28.826364494,11.0050055
 129\C,0,8.8195542119,31.2139598074,9.8337410135\C,0,9.2074179734,30.56
 64166257,8.4907642424\C,0,8.5401888957,31.1813726295,7.2371882512\N,0,
 8.671180703,32.6334521406,7.1411014843\C,0,7.8471694223,33.4634138099,
 7.8917295397\N,0,6.5860826815,33.2925491054,8.1260028941\N,0,8.4981473
 465,34.533715509,8.4970905868\O,0,5.8212111033,29.6627191621,11.486869
 7895\H,0,5.3772138764,30.5256079013,11.350783078\H,0,6.2925796639,32.8
 391709132,10.0867765223\H,0,6.7729731881,30.9356698838,9.2619733978\H,
 0,9.427339943,30.7497369102,10.6180901503\H,0,9.046241587,32.283176088
 5,9.8091101222\H,0,10.2978634728,30.6489367938,8.38155208\H,0,8.981621
 073,29.4933333581,8.5242717431\H,0,8.98403593,30.73629009,6.3409503094
 \H,0,7.4787308474,30.922944887,7.195460878\H,0,9.6352309146,32.9398384
 279,7.0780739368\H,0,6.2105002263,32.5348855698,7.5569637832\H,0,9.367
 7833789,34.8317806304,8.0713838768\H,0,7.8718928955,35.2985262243,8.72
 22662891\\Version=ES64L-G16RevC.01\HF=-2054.0176447\RMSD=5.327e-09\Dip
 ole=3.6683819,-1.0730601,-1.8181821\Quadrupole=-938.9239373,1941.17128
 3,-1002.2473457,1288.9612754,464.3789268,1192.6791536\PG=C01 [X(C26H39
 N8O8)]\\@
 The archive entry for this job was punched.


 YOU KNOW YOU'RE A TEACHER WHEN YOU SAY 2, WRITE 3, AND MEAN 4.
 -- RONALD ANSTROM, HIGH SCHOOL TEACHER, UNDERWOOD, N.D. 1974
 Job cpu time:       0 days  0 hours  3 minutes 44.0 seconds.
 Elapsed time:       0 days  0 hours  0 minutes 57.0 seconds.
 File lengths (MBytes):  RWF=    376 Int=      0 D2E=      0 Chk=     56 Scr=     16
 Normal termination of Gaussian 16 at Fri May 27 05:13:56 2022.
