 Entering Gaussian System, Link 0=/opt/software/Gaussian/g16-AVX2-C.01/g16/g16
 Input=charge-conf-474.com
 Output=charge-conf-474.log
 Initial command:
 /opt/software/Gaussian/g16-AVX2-C.01/g16/l1.exe "/mnt/gs18/scratch/users/kengmith/Gau-99767.inp" -scrdir="/mnt/gs18/scratch/users/kengmith/"
 Entering Link 1 = /opt/software/Gaussian/g16-AVX2-C.01/g16/l1.exe PID=     99826.
  
 Copyright (c) 1988-2019, Gaussian, Inc.  All Rights Reserved.
  
 This is part of the Gaussian(R) 16 program.  It is based on
 the Gaussian(R) 09 system (copyright 2009, Gaussian, Inc.),
 the Gaussian(R) 03 system (copyright 2003, Gaussian, Inc.),
 the Gaussian(R) 98 system (copyright 1998, Gaussian, Inc.),
 the Gaussian(R) 94 system (copyright 1995, Gaussian, Inc.),
 the Gaussian 92(TM) system (copyright 1992, Gaussian, Inc.),
 the Gaussian 90(TM) system (copyright 1990, Gaussian, Inc.),
 the Gaussian 88(TM) system (copyright 1988, Gaussian, Inc.),
 the Gaussian 86(TM) system (copyright 1986, Carnegie Mellon
 University), and the Gaussian 82(TM) system (copyright 1983,
 Carnegie Mellon University). Gaussian is a federally registered
 trademark of Gaussian, Inc.
  
 This software contains proprietary and confidential information,
 including trade secrets, belonging to Gaussian, Inc.
  
 This software is provided under written license and may be
 used, copied, transmitted, or stored only in accord with that
 written license.
  
 The following legend is applicable only to US Government
 contracts under FAR:
  
                    RESTRICTED RIGHTS LEGEND
  
 Use, reproduction and disclosure by the US Government is
 subject to restrictions as set forth in subparagraphs (a)
 and (c) of the Commercial Computer Software - Restricted
 Rights clause in FAR 52.227-19.
  
 Gaussian, Inc.
 340 Quinnipiac St., Bldg. 40, Wallingford CT 06492
  
  
 ---------------------------------------------------------------
 Warning -- This program may not be used in any manner that
 competes with the business of Gaussian, Inc. or will provide
 assistance to any competitor of Gaussian, Inc.  The licensee
 of this program is prohibited from giving any competitor of
 Gaussian, Inc. access to this program.  By using this program,
 the user acknowledges that Gaussian, Inc. is engaged in the
 business of creating and licensing software in the field of
 computational chemistry and represents and warrants to the
 licensee that it is not a competitor of Gaussian, Inc. and that
 it will not use this program in any manner prohibited above.
 ---------------------------------------------------------------
  

 Cite this work as:
 Gaussian 16, Revision C.01,
 M. J. Frisch, G. W. Trucks, H. B. Schlegel, G. E. Scuseria, 
 M. A. Robb, J. R. Cheeseman, G. Scalmani, V. Barone, 
 G. A. Petersson, H. Nakatsuji, X. Li, M. Caricato, A. V. Marenich, 
 J. Bloino, B. G. Janesko, R. Gomperts, B. Mennucci, H. P. Hratchian, 
 J. V. Ortiz, A. F. Izmaylov, J. L. Sonnenberg, D. Williams-Young, 
 F. Ding, F. Lipparini, F. Egidi, J. Goings, B. Peng, A. Petrone, 
 T. Henderson, D. Ranasinghe, V. G. Zakrzewski, J. Gao, N. Rega, 
 G. Zheng, W. Liang, M. Hada, M. Ehara, K. Toyota, R. Fukuda, 
 J. Hasegawa, M. Ishida, T. Nakajima, Y. Honda, O. Kitao, H. Nakai, 
 T. Vreven, K. Throssell, J. A. Montgomery, Jr., J. E. Peralta, 
 F. Ogliaro, M. J. Bearpark, J. J. Heyd, E. N. Brothers, K. N. Kudin, 
 V. N. Staroverov, T. A. Keith, R. Kobayashi, J. Normand, 
 K. Raghavachari, A. P. Rendell, J. C. Burant, S. S. Iyengar, 
 J. Tomasi, M. Cossi, J. M. Millam, M. Klene, C. Adamo, R. Cammi, 
 J. W. Ochterski, R. L. Martin, K. Morokuma, O. Farkas, 
 J. B. Foresman, and D. J. Fox, Gaussian, Inc., Wallingford CT, 2019.
 
 ******************************************
 Gaussian 16:  ES64L-G16RevC.01  3-Jul-2019
                27-May-2022 
 ******************************************
 %mem=8gb
 %nproc=4
 Will use up to    4 processors via shared memory.
 %chk=conf-474.chk
 ----------------------------------------------------------------------
 # B3LYP/6-31G* empiricaldispersion=gd3 guess=read geom=check nosymm in
 tegral(ultrafinegrid)
 ----------------------------------------------------------------------
 1/29=2,38=1,172=1/1;
 2/12=2,15=1,40=1/2;
 3/5=1,6=6,7=1,11=2,14=-4,25=1,30=1,74=-5,75=-5,116=-2,124=31/1,2,3;
 4/5=1/1;
 5/5=2,38=6/2;
 6/7=2,8=2,9=2,10=2,28=1/1;
 99/5=1,9=1/99;
 ------------------------------------------------------
 Candidate Structure: Conf:474 Charge calc in gas phase
 ------------------------------------------------------
 Structure from the checkpoint file:  "conf-474.chk"
 Charge =  1 Multiplicity = 1
 Redundant internal coordinates found in file.  (old form).
 N,0,11.5146849984,30.7195527613,9.8822514441
 C,0,12.8970183421,31.3804592272,9.9057475278
 C,0,13.8263292153,31.0191333539,11.0933526211
 O,0,14.9936212566,30.8060049091,10.797122856
 C,0,12.8087068832,32.9125203324,9.8270291279
 C,0,12.1870919966,33.4928796294,8.5324465181
 C,0,10.74074619,33.9080942661,8.6893399436
 O,0,10.2977305192,34.9930148651,8.3747757079
 O,0,9.9654984583,32.9471227357,9.2450218103
 H,0,9.0038766022,33.3236281785,9.3622947072
 H,0,11.4519922596,30.0332415034,9.1252970166
 H,0,13.4204747333,30.9970478749,9.0300571823
 H,0,12.2999672323,33.3009513486,10.7167370313
 H,0,13.8456394392,33.2536883898,9.8979454234
 H,0,12.2572425475,32.7710391479,7.7070384533
 H,0,12.7314281944,34.384201179,8.2157918978
 H,0,11.3319889522,30.166691143,10.7387279289
 H,0,10.7655120355,31.43051337,9.7399299829
 N,0,13.4135950374,31.1807440591,12.3779656756
 C,0,12.1116221989,31.075354365,13.0189167862
 C,0,12.1643286261,32.0253394676,14.2445012697
 O,0,13.2503441064,32.3265161787,14.7219124363
 C,0,11.8281035264,29.5947856033,13.4326754603
 C,0,11.6831498166,28.6940114081,12.2402629084
 C,0,12.6891396591,28.209834362,11.4277159668
 C,0,10.4347548474,28.2359497892,11.6614574288
 C,0,10.7593960344,27.5166785486,10.4776704625
 C,0,9.086751515,28.3187877256,12.0677720649
 N,0,12.1391835334,27.5463408765,10.3454281321
 C,0,9.782316604,26.9224952292,9.6686696214
 C,0,8.1196240519,27.7101186643,11.2753536765
 C,0,8.4609879758,27.0339970765,10.0823497401
 H,0,14.1780731277,31.2042030297,13.0514964786
 H,0,11.3313876005,31.4391957609,12.3423440656
 H,0,10.9205022501,29.538468753,14.0386700343
 H,0,12.6577598373,29.2796230975,14.0746602916
 H,0,13.7617789904,28.3044815456,11.5235579346
 H,0,12.6670722811,26.9568228384,9.7165320235
 H,0,8.8221843612,28.7900315978,13.0111933718
 H,0,10.0484656194,26.369949173,8.7720956359
 H,0,7.0843050063,27.7010350143,11.6056209689
 H,0,7.6787333131,26.563179791,9.4948094304
 N,0,10.9855951871,32.53112162,14.6904784197
 C,0,9.6430537786,32.0005409042,14.4894365122
 C,0,8.7035874902,33.2217696535,14.4321389887
 O,0,8.9772242174,34.2048692412,15.1088504469
 C,0,9.2874451846,30.9682228503,15.6217378881
 C,0,8.5751897518,31.5745207111,16.8243474505
 O,0,8.5737358536,29.8767180999,15.043217104
 H,0,7.6570069064,29.8849231081,15.3644874747
 H,0,11.0631601702,33.2299107677,15.4245179464
 H,0,9.617574748,31.4461692276,13.552893928
 H,0,10.2546545108,30.5654531074,15.9479928164
 H,0,8.4698542193,30.819159674,17.6090272321
 H,0,7.580690951,31.9370979196,16.5455680882
 H,0,9.1421800206,32.4194928043,17.2253651982
 N,0,7.5979544684,33.2071971998,13.6305184285
 C,0,7.0423157483,32.1881354389,12.7568827652
 C,0,6.4356731382,31.0147947448,13.558520478
 O,0,6.0358513417,31.1356060759,14.6889593107
 C,0,7.9579812126,31.7982479589,11.5649426698
 C,0,7.2425155344,31.5349953376,10.2216047187
 C,0,6.5729704042,32.7536539192,9.5542172865
 N,0,7.4771541421,33.923553628,9.5099044644
 C,0,7.3999712214,34.8799298546,10.6190310773
 N,0,6.4393099169,35.028244411,11.4501151672
 N,0,8.5650170484,35.5829983,10.7401843464
 O,0,6.277665041,29.8402040426,12.9069401289
 H,0,6.7696512215,29.8181976285,12.0714181107
 H,0,7.110123366,34.0979840887,13.619399156
 H,0,6.1570351944,32.6698651075,12.3328672242
 H,0,8.5526679311,30.9099530431,11.8101891707
 H,0,8.6723407895,32.6159192254,11.4401763997
 H,0,7.9827769828,31.1213963661,9.5255381265
 H,0,6.4706477104,30.7607745592,10.3246412186
 H,0,6.3188707429,32.4911534338,8.523849384
 H,0,5.6235998849,32.9975055245,10.0439731169
 H,0,7.3879161411,34.4320956463,8.6295425147
 H,0,5.612464395,34.4906859876,11.2009980155
 H,0,9.1723182794,35.6575453688,9.9306405552
 H,0,8.5103969582,36.3991656102,11.3365101467
 Recover connectivity data from disk.
                           ----------------------------
                           !    Current Parameters    !
                           ! (Angstroms and Degrees)  !
 --------------------------                            --------------------------
 ! Name  Definition              Value                                          !
 --------------------------------------------------------------------------------
 ! R1    R(1,2)                  1.5324                                         !
 ! R2    R(1,11)                 1.0237                                         !
 ! R3    R(1,17)                 1.0357                                         !
 ! R4    R(1,18)                 1.0426                                         !
 ! R5    R(2,3)                  1.5507                                         !
 ! R6    R(2,5)                  1.5366                                         !
 ! R7    R(2,12)                 1.0899                                         !
 ! R8    R(3,4)                  1.223                                          !
 ! R9    R(3,19)                 1.3589                                         !
 ! R10   R(5,6)                  1.5489                                         !
 ! R11   R(5,13)                 1.096                                          !
 ! R12   R(5,14)                 1.0939                                         !
 ! R13   R(6,7)                  1.5129                                         !
 ! R14   R(6,15)                 1.0988                                         !
 ! R15   R(6,16)                 1.0913                                         !
 ! R16   R(7,8)                  1.2134                                         !
 ! R17   R(7,9)                  1.354                                          !
 ! R18   R(9,10)                 1.0393                                         !
 ! R19   R(19,20)                1.455                                          !
 ! R20   R(19,33)                1.0191                                         !
 ! R21   R(20,21)                1.5515                                         !
 ! R22   R(20,23)                1.5632                                         !
 ! R23   R(20,34)                1.0949                                         !
 ! R24   R(21,22)                1.224                                          !
 ! R25   R(21,43)                1.358                                          !
 ! R26   R(23,24)                1.5014                                         !
 ! R27   R(23,35)                1.0928                                         !
 ! R28   R(23,36)                1.0954                                         !
 ! R29   R(24,25)                1.3808                                         !
 ! R30   R(24,26)                1.4503                                         !
 ! R31   R(25,29)                1.3835                                         !
 ! R32   R(25,37)                1.0811                                         !
 ! R33   R(26,27)                1.4227                                         !
 ! R34   R(26,28)                1.4103                                         !
 ! R35   R(27,29)                1.3864                                         !
 ! R36   R(27,30)                1.4008                                         !
 ! R37   R(28,31)                1.3906                                         !
 ! R38   R(28,39)                1.0872                                         !
 ! R39   R(29,38)                1.0108                                         !
 ! R40   R(30,32)                1.3891                                         !
 ! R41   R(30,40)                1.0863                                         !
 ! R42   R(31,32)                1.4131                                         !
 ! R43   R(31,41)                1.0868                                         !
 ! R44   R(32,42)                1.0857                                         !
 ! R45   R(43,44)                1.4575                                         !
 ! R46   R(43,51)                1.0164                                         !
 ! R47   R(44,45)                1.5418                                         !
 ! R48   R(44,47)                1.573                                          !
 ! R49   R(44,52)                1.0886                                         !
 ! R50   R(45,46)                1.2245                                         !
 ! R51   R(45,57)                1.3657                                         !
 ! R52   R(47,48)                1.5235                                         !
 ! R53   R(47,49)                1.4267                                         !
 ! R54   R(47,53)                1.0973                                         !
 ! R55   R(48,54)                1.0943                                         !
 ! R56   R(48,55)                1.0946                                         !
 ! R57   R(48,56)                1.0937                                         !
 ! R58   R(49,50)                0.9714                                         !
 ! R59   R(57,58)                1.4527                                         !
 ! R60   R(57,70)                1.0157                                         !
 ! R61   R(58,59)                1.5451                                         !
 ! R62   R(58,61)                1.5528                                         !
 ! R63   R(58,71)                1.0934                                         !
 ! R64   R(59,60)                1.2051                                         !
 ! R65   R(59,68)                1.3525                                         !
 ! R66   R(61,62)                1.5446                                         !
 ! R67   R(61,72)                1.0968                                         !
 ! R68   R(61,73)                1.0929                                         !
 ! R69   R(62,63)                1.5423                                         !
 ! R70   R(62,74)                1.0971                                         !
 ! R71   R(62,75)                1.0981                                         !
 ! R72   R(63,64)                1.4792                                         !
 ! R73   R(63,76)                1.0932                                         !
 ! R74   R(63,77)                1.0957                                         !
 ! R75   R(64,65)                1.4666                                         !
 ! R76   R(64,78)                1.0206                                         !
 ! R77   R(65,66)                1.2789                                         !
 ! R78   R(65,67)                1.3661                                         !
 ! R79   R(66,79)                1.0172                                         !
 ! R80   R(67,80)                1.0148                                         !
 ! R81   R(67,81)                1.0123                                         !
 ! R82   R(68,69)                0.9699                                         !
 ! A1    A(2,1,11)             110.8386                                         !
 ! A2    A(2,1,17)             112.1287                                         !
 ! A3    A(2,1,18)             110.8668                                         !
 ! A4    A(11,1,17)            104.0525                                         !
 ! A5    A(11,1,18)            108.194                                          !
 ! A6    A(17,1,18)            110.497                                          !
 ! A7    A(1,2,3)              116.8631                                         !
 ! A8    A(1,2,5)              112.1718                                         !
 ! A9    A(1,2,12)             105.6174                                         !
 ! A10   A(3,2,5)              107.8182                                         !
 ! A11   A(3,2,12)             104.2141                                         !
 ! A12   A(5,2,12)             109.7057                                         !
 ! A13   A(2,3,4)              115.2835                                         !
 ! A14   A(2,3,19)             120.9474                                         !
 ! A15   A(4,3,19)             122.6547                                         !
 ! A16   A(2,5,6)              116.069                                          !
 ! A17   A(2,5,13)             109.7818                                         !
 ! A18   A(2,5,14)             104.6642                                         !
 ! A19   A(6,5,13)             111.063                                          !
 ! A20   A(6,5,14)             108.5264                                         !
 ! A21   A(13,5,14)            106.0713                                         !
 ! A22   A(5,6,7)              113.5667                                         !
 ! A23   A(5,6,15)             110.8602                                         !
 ! A24   A(5,6,16)             110.3865                                         !
 ! A25   A(7,6,15)             108.6169                                         !
 ! A26   A(7,6,16)             106.4257                                         !
 ! A27   A(15,6,16)            106.6629                                         !
 ! A28   A(6,7,8)              124.5797                                         !
 ! A29   A(6,7,9)              113.2753                                         !
 ! A30   A(8,7,9)              122.1373                                         !
 ! A31   A(7,9,10)             108.5999                                         !
 ! A32   A(3,19,20)            132.8109                                         !
 ! A33   A(3,19,33)            113.5566                                         !
 ! A34   A(20,19,33)           112.4432                                         !
 ! A35   A(19,20,21)           105.8559                                         !
 ! A36   A(19,20,23)           110.3339                                         !
 ! A37   A(19,20,34)           109.9602                                         !
 ! A38   A(21,20,23)           112.1475                                         !
 ! A39   A(21,20,34)           107.9894                                         !
 ! A40   A(23,20,34)           110.4282                                         !
 ! A41   A(20,21,22)           119.2693                                         !
 ! A42   A(20,21,43)           117.2564                                         !
 ! A43   A(22,21,43)           123.3967                                         !
 ! A44   A(20,23,24)           112.057                                          !
 ! A45   A(20,23,35)           110.2567                                         !
 ! A46   A(20,23,36)           106.8741                                         !
 ! A47   A(24,23,35)           109.2272                                         !
 ! A48   A(24,23,36)           111.4678                                         !
 ! A49   A(35,23,36)           106.8124                                         !
 ! A50   A(23,24,25)           127.3999                                         !
 ! A51   A(23,24,26)           126.1254                                         !
 ! A52   A(25,24,26)           106.3514                                         !
 ! A53   A(24,25,29)           109.8096                                         !
 ! A54   A(24,25,37)           129.7916                                         !
 ! A55   A(29,25,37)           120.3818                                         !
 ! A56   A(24,26,27)           107.1776                                         !
 ! A57   A(24,26,28)           133.568                                          !
 ! A58   A(27,26,28)           119.177                                          !
 ! A59   A(26,27,29)           107.196                                          !
 ! A60   A(26,27,30)           122.4002                                         !
 ! A61   A(29,27,30)           130.4035                                         !
 ! A62   A(26,28,31)           118.3502                                         !
 ! A63   A(26,28,39)           120.5323                                         !
 ! A64   A(31,28,39)           120.9934                                         !
 ! A65   A(25,29,27)           109.345                                          !
 ! A66   A(25,29,38)           123.9746                                         !
 ! A67   A(27,29,38)           124.5147                                         !
 ! A68   A(27,30,32)           117.2236                                         !
 ! A69   A(27,30,40)           121.4355                                         !
 ! A70   A(32,30,40)           121.3123                                         !
 ! A71   A(28,31,32)           121.4999                                         !
 ! A72   A(28,31,41)           119.5408                                         !
 ! A73   A(32,31,41)           118.8616                                         !
 ! A74   A(30,32,31)           121.3067                                         !
 ! A75   A(30,32,42)           119.3006                                         !
 ! A76   A(31,32,42)           119.3596                                         !
 ! A77   A(21,43,44)           128.2175                                         !
 ! A78   A(21,43,51)           115.2765                                         !
 ! A79   A(44,43,51)           114.8454                                         !
 ! A80   A(43,44,45)           106.1433                                         !
 ! A81   A(43,44,47)           110.3563                                         !
 ! A82   A(43,44,52)           109.0022                                         !
 ! A83   A(45,44,47)           114.1305                                         !
 ! A84   A(45,44,52)           110.9234                                         !
 ! A85   A(47,44,52)           106.2476                                         !
 ! A86   A(44,45,46)           118.6349                                         !
 ! A87   A(44,45,57)           120.4397                                         !
 ! A88   A(46,45,57)           120.9218                                         !
 ! A89   A(44,47,48)           114.3766                                         !
 ! A90   A(44,47,49)           108.8623                                         !
 ! A91   A(44,47,53)           104.8115                                         !
 ! A92   A(48,47,49)           112.9962                                         !
 ! A93   A(48,47,53)           108.8711                                         !
 ! A94   A(49,47,53)           106.3009                                         !
 ! A95   A(47,48,54)           109.6537                                         !
 ! A96   A(47,48,55)           110.8253                                         !
 ! A97   A(47,48,56)           110.763                                          !
 ! A98   A(54,48,55)           108.8942                                         !
 ! A99   A(54,48,56)           108.6795                                         !
 ! A100  A(55,48,56)           107.9664                                         !
 ! A101  A(47,49,50)           109.3609                                         !
 ! A102  A(45,57,58)           132.0743                                         !
 ! A103  A(45,57,70)           112.6994                                         !
 ! A104  A(58,57,70)           115.1463                                         !
 ! A105  A(57,58,59)           111.7684                                         !
 ! A106  A(57,58,61)           114.3435                                         !
 ! A107  A(57,58,71)           103.5223                                         !
 ! A108  A(59,58,61)           116.0467                                         !
 ! A109  A(59,58,71)           102.5842                                         !
 ! A110  A(61,58,71)           106.8812                                         !
 ! A111  A(58,59,60)           122.7379                                         !
 ! A112  A(58,59,68)           117.0925                                         !
 ! A113  A(60,59,68)           120.014                                          !
 ! A114  A(58,61,62)           115.9279                                         !
 ! A115  A(58,61,72)           110.5767                                         !
 ! A116  A(58,61,73)           106.5716                                         !
 ! A117  A(62,61,72)           107.9146                                         !
 ! A118  A(62,61,73)           109.3291                                         !
 ! A119  A(72,61,73)           106.0854                                         !
 ! A120  A(61,62,63)           116.2792                                         !
 ! A121  A(61,62,74)           107.6685                                         !
 ! A122  A(61,62,75)           111.3557                                         !
 ! A123  A(63,62,74)           108.4368                                         !
 ! A124  A(63,62,75)           107.0107                                         !
 ! A125  A(74,62,75)           105.5468                                         !
 ! A126  A(62,63,64)           111.8706                                         !
 ! A127  A(62,63,76)           108.603                                          !
 ! A128  A(62,63,77)           111.0117                                         !
 ! A129  A(64,63,76)           107.6824                                         !
 ! A130  A(64,63,77)           111.5296                                         !
 ! A131  A(76,63,77)           105.862                                          !
 ! A132  A(63,64,65)           117.4468                                         !
 ! A133  A(63,64,78)           111.4981                                         !
 ! A134  A(65,64,78)           108.8337                                         !
 ! A135  A(64,65,66)           127.3461                                         !
 ! A136  A(64,65,67)           110.9651                                         !
 ! A137  A(66,65,67)           121.5529                                         !
 ! A138  A(65,66,79)           112.9643                                         !
 ! A139  A(65,67,80)           118.5181                                         !
 ! A140  A(65,67,81)           114.9081                                         !
 ! A141  A(80,67,81)           116.2967                                         !
 ! A142  A(59,68,69)           112.0539                                         !
 ! D1    D(11,1,2,3)          -110.0657                                         !
 ! D2    D(11,1,2,5)           124.7074                                         !
 ! D3    D(11,1,2,12)            5.2362                                         !
 ! D4    D(17,1,2,3)             5.7353                                         !
 ! D5    D(17,1,2,5)          -119.4916                                         !
 ! D6    D(17,1,2,12)          121.0372                                         !
 ! D7    D(18,1,2,3)           129.7597                                         !
 ! D8    D(18,1,2,5)             4.5328                                         !
 ! D9    D(18,1,2,12)         -114.9384                                         !
 ! D10   D(1,2,3,4)            136.9158                                         !
 ! D11   D(1,2,3,19)           -54.8421                                         !
 ! D12   D(5,2,3,4)            -95.7004                                         !
 ! D13   D(5,2,3,19)            72.5417                                         !
 ! D14   D(12,2,3,4)            20.8368                                         !
 ! D15   D(12,2,3,19)         -170.9211                                         !
 ! D16   D(1,2,5,6)            -62.8892                                         !
 ! D17   D(1,2,5,13)            64.0628                                         !
 ! D18   D(1,2,5,14)           177.5296                                         !
 ! D19   D(3,2,5,6)            167.0571                                         !
 ! D20   D(3,2,5,13)           -65.9909                                         !
 ! D21   D(3,2,5,14)            47.4758                                         !
 ! D22   D(12,2,5,6)            54.1598                                         !
 ! D23   D(12,2,5,13)         -178.8882                                         !
 ! D24   D(12,2,5,14)          -65.4215                                         !
 ! D25   D(2,3,19,20)           32.3549                                         !
 ! D26   D(2,3,19,33)         -161.3338                                         !
 ! D27   D(4,3,19,20)         -160.2865                                         !
 ! D28   D(4,3,19,33)            6.0248                                         !
 ! D29   D(2,5,6,7)            100.3243                                         !
 ! D30   D(2,5,6,15)           -22.2871                                         !
 ! D31   D(2,5,6,16)          -140.2548                                         !
 ! D32   D(13,5,6,7)           -25.9861                                         !
 ! D33   D(13,5,6,15)         -148.5975                                         !
 ! D34   D(13,5,6,16)           93.4348                                         !
 ! D35   D(14,5,6,7)          -142.213                                          !
 ! D36   D(14,5,6,15)           95.1756                                         !
 ! D37   D(14,5,6,16)          -22.7921                                         !
 ! D38   D(5,6,7,8)            128.6474                                         !
 ! D39   D(5,6,7,9)            -50.3614                                         !
 ! D40   D(15,6,7,8)          -107.5123                                         !
 ! D41   D(15,6,7,9)            73.479                                          !
 ! D42   D(16,6,7,8)             6.9917                                         !
 ! D43   D(16,6,7,9)          -172.017                                          !
 ! D44   D(6,7,9,10)           177.1955                                         !
 ! D45   D(8,7,9,10)            -1.8407                                         !
 ! D46   D(3,19,20,21)        -152.0775                                         !
 ! D47   D(3,19,20,23)          86.375                                          !
 ! D48   D(3,19,20,34)         -35.6715                                         !
 ! D49   D(33,19,20,21)         41.4966                                         !
 ! D50   D(33,19,20,23)        -80.0509                                         !
 ! D51   D(33,19,20,34)        157.9025                                         !
 ! D52   D(19,20,21,22)        -22.8032                                         !
 ! D53   D(19,20,21,43)        154.103                                          !
 ! D54   D(23,20,21,22)         97.5692                                         !
 ! D55   D(23,20,21,43)        -85.5247                                         !
 ! D56   D(34,20,21,22)       -140.5352                                         !
 ! D57   D(34,20,21,43)         36.371                                          !
 ! D58   D(19,20,23,24)        -66.2147                                         !
 ! D59   D(19,20,23,35)        171.896                                          !
 ! D60   D(19,20,23,36)         56.1665                                         !
 ! D61   D(21,20,23,24)        176.0475                                         !
 ! D62   D(21,20,23,35)         54.1582                                         !
 ! D63   D(21,20,23,36)        -61.5713                                         !
 ! D64   D(34,20,23,24)         55.5553                                         !
 ! D65   D(34,20,23,35)        -66.334                                          !
 ! D66   D(34,20,23,36)        177.9365                                         !
 ! D67   D(20,21,43,44)         22.2429                                         !
 ! D68   D(20,21,43,51)       -173.3416                                         !
 ! D69   D(22,21,43,44)       -160.9898                                         !
 ! D70   D(22,21,43,51)          3.4256                                         !
 ! D71   D(20,23,24,25)         75.5384                                         !
 ! D72   D(20,23,24,26)        -99.8632                                         !
 ! D73   D(35,23,24,25)       -161.9852                                         !
 ! D74   D(35,23,24,26)         22.6132                                         !
 ! D75   D(36,23,24,25)        -44.1896                                         !
 ! D76   D(36,23,24,26)        140.4088                                         !
 ! D77   D(23,24,25,29)       -172.8274                                         !
 ! D78   D(23,24,25,37)          5.6506                                         !
 ! D79   D(26,24,25,29)          3.303                                          !
 ! D80   D(26,24,25,37)       -178.219                                          !
 ! D81   D(23,24,26,27)        174.3787                                         !
 ! D82   D(23,24,26,28)         -8.966                                          !
 ! D83   D(25,24,26,27)         -1.8156                                         !
 ! D84   D(25,24,26,28)        174.8398                                         !
 ! D85   D(24,25,29,27)         -3.6138                                         !
 ! D86   D(24,25,29,38)       -167.502                                          !
 ! D87   D(37,25,29,27)        177.7418                                         !
 ! D88   D(37,25,29,38)         13.8536                                         !
 ! D89   D(24,26,27,29)         -0.3086                                         !
 ! D90   D(24,26,27,30)        179.509                                          !
 ! D91   D(28,26,27,29)       -177.5335                                         !
 ! D92   D(28,26,27,30)          2.2841                                         !
 ! D93   D(24,26,28,31)       -177.5106                                         !
 ! D94   D(24,26,28,39)         -1.5205                                         !
 ! D95   D(27,26,28,31)         -1.1709                                         !
 ! D96   D(27,26,28,39)        174.8192                                         !
 ! D97   D(26,27,29,25)          2.351                                          !
 ! D98   D(26,27,29,38)        166.1327                                         !
 ! D99   D(30,27,29,25)       -177.4468                                         !
 ! D100  D(30,27,29,38)        -13.6652                                         !
 ! D101  D(26,27,30,32)         -1.4264                                         !
 ! D102  D(26,27,30,40)       -179.5035                                         !
 ! D103  D(29,27,30,32)        178.3449                                         !
 ! D104  D(29,27,30,40)          0.2678                                         !
 ! D105  D(26,28,31,32)         -0.675                                          !
 ! D106  D(26,28,31,41)        175.6905                                         !
 ! D107  D(39,28,31,32)       -176.6458                                         !
 ! D108  D(39,28,31,41)         -0.2803                                         !
 ! D109  D(27,30,32,31)         -0.4791                                         !
 ! D110  D(27,30,32,42)       -178.3708                                         !
 ! D111  D(40,30,32,31)        177.6006                                         !
 ! D112  D(40,30,32,42)         -0.2912                                         !
 ! D113  D(28,31,32,30)          1.5532                                         !
 ! D114  D(28,31,32,42)        179.4438                                         !
 ! D115  D(41,31,32,30)       -174.8363                                         !
 ! D116  D(41,31,32,42)          3.0542                                         !
 ! D117  D(21,43,44,45)       -147.9515                                         !
 ! D118  D(21,43,44,47)         87.8997                                         !
 ! D119  D(21,43,44,52)        -28.4211                                         !
 ! D120  D(51,43,44,45)         47.5769                                         !
 ! D121  D(51,43,44,47)        -76.5718                                         !
 ! D122  D(51,43,44,52)        167.1074                                         !
 ! D123  D(43,44,45,46)        -32.9339                                         !
 ! D124  D(43,44,45,57)        146.3843                                         !
 ! D125  D(47,44,45,46)         88.8336                                         !
 ! D126  D(47,44,45,57)        -91.8481                                         !
 ! D127  D(52,44,45,46)       -151.2001                                         !
 ! D128  D(52,44,45,57)         28.1181                                         !
 ! D129  D(43,44,47,48)         92.2351                                         !
 ! D130  D(43,44,47,49)       -140.3161                                         !
 ! D131  D(43,44,47,53)        -26.9164                                         !
 ! D132  D(45,44,47,48)        -27.1821                                         !
 ! D133  D(45,44,47,49)        100.2668                                         !
 ! D134  D(45,44,47,53)       -146.3335                                         !
 ! D135  D(52,44,47,48)       -149.7391                                         !
 ! D136  D(52,44,47,49)        -22.2903                                         !
 ! D137  D(52,44,47,53)         91.1094                                         !
 ! D138  D(44,45,57,58)          1.6314                                         !
 ! D139  D(44,45,57,70)       -174.887                                          !
 ! D140  D(46,45,57,58)       -179.0661                                         !
 ! D141  D(46,45,57,70)          4.4155                                         !
 ! D142  D(44,47,48,54)       -173.4422                                         !
 ! D143  D(44,47,48,55)         66.3104                                         !
 ! D144  D(44,47,48,56)        -53.5012                                         !
 ! D145  D(49,47,48,54)         61.256                                          !
 ! D146  D(49,47,48,55)        -58.9914                                         !
 ! D147  D(49,47,48,56)       -178.803                                          !
 ! D148  D(53,47,48,54)        -56.603                                          !
 ! D149  D(53,47,48,55)       -176.8504                                         !
 ! D150  D(53,47,48,56)         63.338                                          !
 ! D151  D(44,47,49,50)       -112.2943                                         !
 ! D152  D(48,47,49,50)         15.9342                                         !
 ! D153  D(53,47,49,50)        135.2871                                         !
 ! D154  D(45,57,58,59)         70.7666                                         !
 ! D155  D(45,57,58,61)        -63.6309                                         !
 ! D156  D(45,57,58,71)       -179.5192                                         !
 ! D157  D(70,57,58,59)       -112.7817                                         !
 ! D158  D(70,57,58,61)        112.8208                                         !
 ! D159  D(70,57,58,71)         -3.0675                                         !
 ! D160  D(57,58,59,60)         24.9822                                         !
 ! D161  D(57,58,59,68)       -159.5578                                         !
 ! D162  D(61,58,59,60)        158.5493                                         !
 ! D163  D(61,58,59,68)        -25.9907                                         !
 ! D164  D(71,58,59,60)        -85.3291                                         !
 ! D165  D(71,58,59,68)         90.1309                                         !
 ! D166  D(57,58,61,62)       -141.3036                                         !
 ! D167  D(57,58,61,72)         95.4769                                         !
 ! D168  D(57,58,61,73)        -19.3885                                         !
 ! D169  D(59,58,61,62)         86.3057                                         !
 ! D170  D(59,58,61,72)        -36.9139                                         !
 ! D171  D(59,58,61,73)       -151.7793                                         !
 ! D172  D(71,58,61,62)        -27.3814                                         !
 ! D173  D(71,58,61,72)       -150.6009                                         !
 ! D174  D(71,58,61,73)         94.5336                                         !
 ! D175  D(58,59,68,69)         14.2066                                         !
 ! D176  D(60,59,68,69)       -170.2034                                         !
 ! D177  D(58,61,62,63)         66.9434                                         !
 ! D178  D(58,61,62,74)       -171.2225                                         !
 ! D179  D(58,61,62,75)        -55.9717                                         !
 ! D180  D(72,61,62,63)       -168.4543                                         !
 ! D181  D(72,61,62,74)        -46.6202                                         !
 ! D182  D(72,61,62,75)         68.6306                                         !
 ! D183  D(73,61,62,63)        -53.495                                          !
 ! D184  D(73,61,62,74)         68.3391                                         !
 ! D185  D(73,61,62,75)       -176.4101                                         !
 ! D186  D(61,62,63,64)         47.9991                                         !
 ! D187  D(61,62,63,76)        166.7139                                         !
 ! D188  D(61,62,63,77)        -77.296                                          !
 ! D189  D(74,62,63,64)        -73.4284                                         !
 ! D190  D(74,62,63,76)         45.2864                                         !
 ! D191  D(74,62,63,77)        161.2765                                         !
 ! D192  D(75,62,63,64)        173.1532                                         !
 ! D193  D(75,62,63,76)        -68.132                                          !
 ! D194  D(75,62,63,77)         47.8581                                         !
 ! D195  D(62,63,64,65)        -92.7256                                         !
 ! D196  D(62,63,64,78)        140.7231                                         !
 ! D197  D(76,63,64,65)        148.0151                                         !
 ! D198  D(76,63,64,78)         21.4638                                         !
 ! D199  D(77,63,64,65)         32.2831                                         !
 ! D200  D(77,63,64,78)        -94.2682                                         !
 ! D201  D(63,64,65,66)        -19.1392                                         !
 ! D202  D(63,64,65,67)        156.6317                                         !
 ! D203  D(78,64,65,66)        108.7016                                         !
 ! D204  D(78,64,65,67)        -75.5275                                         !
 ! D205  D(64,65,66,79)         -8.6042                                         !
 ! D206  D(67,65,66,79)        176.0308                                         !
 ! D207  D(64,65,67,80)         22.5521                                         !
 ! D208  D(64,65,67,81)        166.4744                                         !
 ! D209  D(66,65,67,80)       -161.3928                                         !
 ! D210  D(66,65,67,81)        -17.4705                                         !
 --------------------------------------------------------------------------------
 Symmetry turned off by external request.
 Stoichiometry    C26H39N8O8(1+)
 Framework group  C1[X(C26H39N8O8)]
 Deg. of freedom   237
 Full point group                 C1      NOp   1
                          Input orientation:                          
 ---------------------------------------------------------------------
 Center     Atomic      Atomic             Coordinates (Angstroms)
 Number     Number       Type             X           Y           Z
 ---------------------------------------------------------------------
      1          7           0       11.514685   30.719553    9.882251
      2          6           0       12.897018   31.380459    9.905748
      3          6           0       13.826329   31.019133   11.093353
      4          8           0       14.993621   30.806005   10.797123
      5          6           0       12.808707   32.912520    9.827029
      6          6           0       12.187092   33.492880    8.532447
      7          6           0       10.740746   33.908094    8.689340
      8          8           0       10.297731   34.993015    8.374776
      9          8           0        9.965498   32.947123    9.245022
     10          1           0        9.003877   33.323628    9.362295
     11          1           0       11.451992   30.033242    9.125297
     12          1           0       13.420475   30.997048    9.030057
     13          1           0       12.299967   33.300951   10.716737
     14          1           0       13.845639   33.253688    9.897945
     15          1           0       12.257243   32.771039    7.707038
     16          1           0       12.731428   34.384201    8.215792
     17          1           0       11.331989   30.166691   10.738728
     18          1           0       10.765512   31.430513    9.739930
     19          7           0       13.413595   31.180744   12.377966
     20          6           0       12.111622   31.075354   13.018917
     21          6           0       12.164329   32.025339   14.244501
     22          8           0       13.250344   32.326516   14.721912
     23          6           0       11.828104   29.594786   13.432675
     24          6           0       11.683150   28.694011   12.240263
     25          6           0       12.689140   28.209834   11.427716
     26          6           0       10.434755   28.235950   11.661457
     27          6           0       10.759396   27.516679   10.477670
     28          6           0        9.086752   28.318788   12.067772
     29          7           0       12.139184   27.546341   10.345428
     30          6           0        9.782317   26.922495    9.668670
     31          6           0        8.119624   27.710119   11.275354
     32          6           0        8.460988   27.033997   10.082350
     33          1           0       14.178073   31.204203   13.051496
     34          1           0       11.331388   31.439196   12.342344
     35          1           0       10.920502   29.538469   14.038670
     36          1           0       12.657760   29.279623   14.074660
     37          1           0       13.761779   28.304482   11.523558
     38          1           0       12.667072   26.956823    9.716532
     39          1           0        8.822184   28.790032   13.011193
     40          1           0       10.048466   26.369949    8.772096
     41          1           0        7.084305   27.701035   11.605621
     42          1           0        7.678733   26.563180    9.494809
     43          7           0       10.985595   32.531122   14.690478
     44          6           0        9.643054   32.000541   14.489437
     45          6           0        8.703587   33.221770   14.432139
     46          8           0        8.977224   34.204869   15.108850
     47          6           0        9.287445   30.968223   15.621738
     48          6           0        8.575190   31.574521   16.824347
     49          8           0        8.573736   29.876718   15.043217
     50          1           0        7.657007   29.884923   15.364487
     51          1           0       11.063160   33.229911   15.424518
     52          1           0        9.617575   31.446169   13.552894
     53          1           0       10.254655   30.565453   15.947993
     54          1           0        8.469854   30.819160   17.609027
     55          1           0        7.580691   31.937098   16.545568
     56          1           0        9.142180   32.419493   17.225365
     57          7           0        7.597954   33.207197   13.630518
     58          6           0        7.042316   32.188135   12.756883
     59          6           0        6.435673   31.014795   13.558520
     60          8           0        6.035851   31.135606   14.688959
     61          6           0        7.957981   31.798248   11.564943
     62          6           0        7.242516   31.534995   10.221605
     63          6           0        6.572970   32.753654    9.554217
     64          7           0        7.477154   33.923554    9.509904
     65          6           0        7.399971   34.879930   10.619031
     66          7           0        6.439310   35.028244   11.450115
     67          7           0        8.565017   35.582998   10.740184
     68          8           0        6.277665   29.840204   12.906940
     69          1           0        6.769651   29.818198   12.071418
     70          1           0        7.110123   34.097984   13.619399
     71          1           0        6.157035   32.669865   12.332867
     72          1           0        8.552668   30.909953   11.810189
     73          1           0        8.672341   32.615919   11.440176
     74          1           0        7.982777   31.121396    9.525538
     75          1           0        6.470648   30.760775   10.324641
     76          1           0        6.318871   32.491153    8.523849
     77          1           0        5.623600   32.997506   10.043973
     78          1           0        7.387916   34.432096    8.629543
     79          1           0        5.612464   34.490686   11.200998
     80          1           0        9.172318   35.657545    9.930641
     81          1           0        8.510397   36.399166   11.336510
 ---------------------------------------------------------------------
 Rotational constants (GHZ):           0.0916831           0.0792982           0.0703138
 Standard basis: 6-31G(d) (6D, 7F)
   708 basis functions,  1332 primitive gaussians,   708 cartesian basis functions
   157 alpha electrons      157 beta electrons
       nuclear repulsion energy      5825.2942349539 Hartrees.
 NAtoms=   81 NActive=   81 NUniq=   81 SFac= 1.00D+00 NAtFMM=   60 NAOKFM=T Big=T
 Integral buffers will be    131072 words long.
 Raffenetti 2 integral format.
 Two-electron integral symmetry is turned off.
 Nuclear repulsion after empirical dispersion term =     5825.1571650840 Hartrees.
 One-electron integrals computed using PRISM.
 NBasis=   708 RedAO= T EigKep=  3.50D-04  NBF=   708
 NBsUse=   708 1.00D-06 EigRej= -1.00D+00 NBFU=   708
 Initial guess from the checkpoint file:  "conf-474.chk"
 B after Tr=     0.000000    0.000000    0.000000
         Rot=    1.000000    0.000000    0.000000    0.000000 Ang=   0.00 deg.
 Requested convergence on RMS density matrix=1.00D-08 within 128 cycles.
 Requested convergence on MAX density matrix=1.00D-06.
 Requested convergence on             energy=1.00D-06.
 No special actions if energy rises.
 SCF Done:  E(RB3LYP) =  -2054.00420297     A.U. after    3 cycles
            NFock=  3  Conv=0.91D-09     -V/T= 2.0093

 **********************************************************************

            Population analysis using the SCF Density.

 **********************************************************************

 Alpha  occ. eigenvalues --  -19.32297 -19.30431 -19.27193 -19.24539 -19.24148
 Alpha  occ. eigenvalues --  -19.23688 -19.22026 -19.21029 -14.58995 -14.50990
 Alpha  occ. eigenvalues --  -14.49392 -14.47938 -14.46206 -14.45935 -14.45303
 Alpha  occ. eigenvalues --  -14.41047 -10.45551 -10.42934 -10.42137 -10.40603
 Alpha  occ. eigenvalues --  -10.40015 -10.39742 -10.38870 -10.36765 -10.36246
 Alpha  occ. eigenvalues --  -10.35693 -10.34683 -10.34634 -10.34468 -10.34086
 Alpha  occ. eigenvalues --  -10.34005 -10.33760 -10.32966 -10.32592 -10.31612
 Alpha  occ. eigenvalues --  -10.31377 -10.31211 -10.31040 -10.30389 -10.30300
 Alpha  occ. eigenvalues --  -10.30039 -10.25982  -1.23141  -1.21076  -1.16379
 Alpha  occ. eigenvalues --   -1.14523  -1.14316  -1.13558  -1.13402  -1.12763
 Alpha  occ. eigenvalues --   -1.11733  -1.10682  -1.09675  -1.04651  -1.02997
 Alpha  occ. eigenvalues --   -1.02728  -1.01356  -0.96387  -0.96103  -0.95061
 Alpha  occ. eigenvalues --   -0.92916  -0.92505  -0.88538  -0.87521  -0.86836
 Alpha  occ. eigenvalues --   -0.85818  -0.85693  -0.84082  -0.81173  -0.80070
 Alpha  occ. eigenvalues --   -0.79116  -0.78449  -0.74681  -0.74362  -0.73873
 Alpha  occ. eigenvalues --   -0.73717  -0.73364  -0.72585  -0.72268  -0.71366
 Alpha  occ. eigenvalues --   -0.70942  -0.70365  -0.69239  -0.68237  -0.68026
 Alpha  occ. eigenvalues --   -0.67226  -0.65935  -0.65836  -0.64332  -0.64024
 Alpha  occ. eigenvalues --   -0.63068  -0.62711  -0.61768  -0.61291  -0.60870
 Alpha  occ. eigenvalues --   -0.60392  -0.59956  -0.59572  -0.59458  -0.59119
 Alpha  occ. eigenvalues --   -0.58931  -0.57891  -0.57347  -0.57217  -0.56805
 Alpha  occ. eigenvalues --   -0.56273  -0.56033  -0.55722  -0.55236  -0.55219
 Alpha  occ. eigenvalues --   -0.54902  -0.54487  -0.54374  -0.54004  -0.53532
 Alpha  occ. eigenvalues --   -0.53441  -0.53133  -0.52784  -0.52517  -0.52083
 Alpha  occ. eigenvalues --   -0.51326  -0.50736  -0.50378  -0.50336  -0.50033
 Alpha  occ. eigenvalues --   -0.49526  -0.49173  -0.49145  -0.48482  -0.48147
 Alpha  occ. eigenvalues --   -0.48003  -0.47578  -0.47350  -0.47035  -0.46690
 Alpha  occ. eigenvalues --   -0.45929  -0.45545  -0.45334  -0.45107  -0.45071
 Alpha  occ. eigenvalues --   -0.42887  -0.41798  -0.41643  -0.40355  -0.40248
 Alpha  occ. eigenvalues --   -0.38521  -0.38049  -0.37803  -0.37743  -0.37189
 Alpha  occ. eigenvalues --   -0.36043  -0.35936  -0.35208  -0.35017  -0.34807
 Alpha  occ. eigenvalues --   -0.33990  -0.32986
 Alpha virt. eigenvalues --   -0.14057  -0.13106  -0.11693  -0.10874  -0.10596
 Alpha virt. eigenvalues --   -0.10047  -0.08921  -0.08446  -0.08065  -0.07102
 Alpha virt. eigenvalues --   -0.06207  -0.05084  -0.04114  -0.03297  -0.03001
 Alpha virt. eigenvalues --   -0.02632  -0.02375  -0.01810  -0.00948  -0.00378
 Alpha virt. eigenvalues --   -0.00069   0.00172   0.00520   0.00877   0.01113
 Alpha virt. eigenvalues --    0.01626   0.02108   0.02407   0.02516   0.03009
 Alpha virt. eigenvalues --    0.03605   0.03815   0.03930   0.04470   0.04741
 Alpha virt. eigenvalues --    0.05065   0.05431   0.05837   0.06201   0.06558
 Alpha virt. eigenvalues --    0.06775   0.07164   0.07550   0.07627   0.07933
 Alpha virt. eigenvalues --    0.08277   0.08751   0.09345   0.09412   0.09548
 Alpha virt. eigenvalues --    0.10122   0.10262   0.10388   0.10960   0.11642
 Alpha virt. eigenvalues --    0.11689   0.12034   0.12372   0.12896   0.12976
 Alpha virt. eigenvalues --    0.13495   0.13895   0.14395   0.14753   0.14972
 Alpha virt. eigenvalues --    0.15362   0.15962   0.16976   0.17135   0.17815
 Alpha virt. eigenvalues --    0.18573   0.18734   0.19592   0.20965   0.21358
 Alpha virt. eigenvalues --    0.22521   0.22731   0.23402   0.24563   0.25123
 Alpha virt. eigenvalues --    0.25974   0.26646   0.26981   0.27595   0.28242
 Alpha virt. eigenvalues --    0.29276   0.31331   0.31497   0.32610   0.32922
 Alpha virt. eigenvalues --    0.33775   0.35601   0.36601   0.37589   0.38121
 Alpha virt. eigenvalues --    0.38713   0.39016   0.39511   0.39668   0.40650
 Alpha virt. eigenvalues --    0.41605   0.41739   0.42486   0.43015   0.43324
 Alpha virt. eigenvalues --    0.43660   0.43766   0.44200   0.44496   0.44819
 Alpha virt. eigenvalues --    0.45894   0.46240   0.46729   0.47052   0.47524
 Alpha virt. eigenvalues --    0.47791   0.47915   0.48332   0.48550   0.49079
 Alpha virt. eigenvalues --    0.49250   0.49626   0.50252   0.50440   0.50470
 Alpha virt. eigenvalues --    0.51180   0.51509   0.52233   0.52401   0.52607
 Alpha virt. eigenvalues --    0.53068   0.53438   0.53879   0.54260   0.54565
 Alpha virt. eigenvalues --    0.55011   0.55498   0.55815   0.55996   0.57003
 Alpha virt. eigenvalues --    0.57150   0.57912   0.58068   0.58327   0.58813
 Alpha virt. eigenvalues --    0.59479   0.60311   0.60598   0.61220   0.61826
 Alpha virt. eigenvalues --    0.62109   0.62745   0.63120   0.63740   0.64076
 Alpha virt. eigenvalues --    0.64793   0.64956   0.65293   0.66141   0.67128
 Alpha virt. eigenvalues --    0.67993   0.68171   0.69180   0.69495   0.69959
 Alpha virt. eigenvalues --    0.69980   0.70357   0.70952   0.71222   0.71476
 Alpha virt. eigenvalues --    0.72042   0.72355   0.72617   0.73032   0.73487
 Alpha virt. eigenvalues --    0.73726   0.73946   0.74074   0.74313   0.74857
 Alpha virt. eigenvalues --    0.75150   0.75523   0.75772   0.76098   0.76433
 Alpha virt. eigenvalues --    0.76927   0.77236   0.77430   0.77719   0.78175
 Alpha virt. eigenvalues --    0.78279   0.78991   0.79245   0.79489   0.80317
 Alpha virt. eigenvalues --    0.80831   0.80915   0.81901   0.82375   0.82471
 Alpha virt. eigenvalues --    0.82858   0.82887   0.83564   0.84029   0.84447
 Alpha virt. eigenvalues --    0.84908   0.85412   0.85710   0.85953   0.86039
 Alpha virt. eigenvalues --    0.86417   0.87278   0.87739   0.88050   0.88197
 Alpha virt. eigenvalues --    0.88665   0.88997   0.89615   0.90300   0.90664
 Alpha virt. eigenvalues --    0.91096   0.91491   0.92545   0.93170   0.93945
 Alpha virt. eigenvalues --    0.94419   0.94729   0.95023   0.95777   0.96530
 Alpha virt. eigenvalues --    0.96940   0.97207   0.97722   0.98083   0.99066
 Alpha virt. eigenvalues --    0.99506   1.00193   1.00836   1.01141   1.01696
 Alpha virt. eigenvalues --    1.02688   1.03177   1.04007   1.04999   1.05263
 Alpha virt. eigenvalues --    1.05513   1.06034   1.06768   1.07532   1.08574
 Alpha virt. eigenvalues --    1.09011   1.09966   1.10691   1.11032   1.12631
 Alpha virt. eigenvalues --    1.13451   1.13796   1.14048   1.14545   1.15669
 Alpha virt. eigenvalues --    1.16720   1.17743   1.18334   1.19134   1.19986
 Alpha virt. eigenvalues --    1.20769   1.22225   1.22291   1.23335   1.24057
 Alpha virt. eigenvalues --    1.24288   1.26231   1.26717   1.27112   1.27576
 Alpha virt. eigenvalues --    1.28219   1.28418   1.28770   1.29518   1.30268
 Alpha virt. eigenvalues --    1.31103   1.32312   1.32688   1.33451   1.34336
 Alpha virt. eigenvalues --    1.35349   1.35575   1.35907   1.36506   1.37029
 Alpha virt. eigenvalues --    1.37945   1.38245   1.38827   1.39378   1.40548
 Alpha virt. eigenvalues --    1.41410   1.42059   1.42345   1.43833   1.44899
 Alpha virt. eigenvalues --    1.45460   1.46516   1.46835   1.47410   1.47898
 Alpha virt. eigenvalues --    1.49175   1.49738   1.50511   1.50994   1.52044
 Alpha virt. eigenvalues --    1.53166   1.54078   1.54688   1.55317   1.56404
 Alpha virt. eigenvalues --    1.57662   1.58659   1.59084   1.60175   1.60540
 Alpha virt. eigenvalues --    1.61393   1.61889   1.62829   1.63038   1.63850
 Alpha virt. eigenvalues --    1.64360   1.64953   1.65570   1.66060   1.66191
 Alpha virt. eigenvalues --    1.67060   1.67272   1.67751   1.67890   1.68304
 Alpha virt. eigenvalues --    1.69070   1.69427   1.69855   1.70230   1.70884
 Alpha virt. eigenvalues --    1.71303   1.71775   1.72231   1.72613   1.73524
 Alpha virt. eigenvalues --    1.73907   1.74376   1.75376   1.75485   1.75744
 Alpha virt. eigenvalues --    1.75922   1.76841   1.77227   1.77612   1.77944
 Alpha virt. eigenvalues --    1.78438   1.78671   1.79626   1.80209   1.80596
 Alpha virt. eigenvalues --    1.80970   1.81382   1.81672   1.82241   1.82777
 Alpha virt. eigenvalues --    1.83351   1.83849   1.84834   1.85556   1.85960
 Alpha virt. eigenvalues --    1.86053   1.87315   1.87632   1.88067   1.88815
 Alpha virt. eigenvalues --    1.89366   1.89940   1.90355   1.91070   1.91626
 Alpha virt. eigenvalues --    1.92144   1.92438   1.92922   1.93701   1.94328
 Alpha virt. eigenvalues --    1.95147   1.96071   1.96361   1.97054   1.97548
 Alpha virt. eigenvalues --    1.98561   1.99687   2.00200   2.00992   2.01956
 Alpha virt. eigenvalues --    2.03061   2.03386   2.04835   2.05135   2.05972
 Alpha virt. eigenvalues --    2.06890   2.07068   2.07386   2.09564   2.10396
 Alpha virt. eigenvalues --    2.10549   2.11672   2.11728   2.12706   2.13301
 Alpha virt. eigenvalues --    2.13395   2.14150   2.14705   2.15247   2.15370
 Alpha virt. eigenvalues --    2.16039   2.18200   2.18881   2.19824   2.21127
 Alpha virt. eigenvalues --    2.21827   2.22131   2.23347   2.24111   2.24699
 Alpha virt. eigenvalues --    2.26366   2.26658   2.27186   2.27772   2.28264
 Alpha virt. eigenvalues --    2.28620   2.30259   2.31490   2.31953   2.32296
 Alpha virt. eigenvalues --    2.32945   2.33601   2.34708   2.35747   2.36146
 Alpha virt. eigenvalues --    2.37315   2.37823   2.39260   2.40530   2.41340
 Alpha virt. eigenvalues --    2.41849   2.42675   2.43147   2.43650   2.44313
 Alpha virt. eigenvalues --    2.44978   2.45158   2.46073   2.47327   2.47953
 Alpha virt. eigenvalues --    2.48971   2.49653   2.50921   2.51501   2.51626
 Alpha virt. eigenvalues --    2.51861   2.53023   2.53290   2.53837   2.54295
 Alpha virt. eigenvalues --    2.54663   2.55680   2.56147   2.56498   2.56938
 Alpha virt. eigenvalues --    2.57578   2.59207   2.60007   2.60684   2.61191
 Alpha virt. eigenvalues --    2.62229   2.63958   2.64235   2.65380   2.66486
 Alpha virt. eigenvalues --    2.68029   2.68599   2.70731   2.71146   2.72058
 Alpha virt. eigenvalues --    2.73522   2.76191   2.79113   2.81748   2.83031
 Alpha virt. eigenvalues --    2.84500   2.85487   2.86789   2.87122   2.87535
 Alpha virt. eigenvalues --    2.88428   2.89264   2.90569   2.92353   2.94911
 Alpha virt. eigenvalues --    2.95067   2.98041   2.98341   2.99569   3.00492
 Alpha virt. eigenvalues --    3.04830   3.10582   3.12925   3.31480   3.73988
 Alpha virt. eigenvalues --    3.74785   3.78600   3.84421   3.85900   3.86879
 Alpha virt. eigenvalues --    3.92315   3.92661   3.93654   3.95902   3.98066
 Alpha virt. eigenvalues --    4.00152   4.00287   4.01614   4.03924   4.05169
 Alpha virt. eigenvalues --    4.06979   4.09607   4.11794   4.14052   4.15216
 Alpha virt. eigenvalues --    4.16908   4.19308   4.21977   4.23070   4.25984
 Alpha virt. eigenvalues --    4.28025   4.29957   4.30542   4.33377   4.35704
 Alpha virt. eigenvalues --    4.37032   4.38201   4.44548   4.47560   4.48864
 Alpha virt. eigenvalues --    4.53223   4.57300   4.58919   4.61570   4.68432
 Alpha virt. eigenvalues --    4.69697
          Condensed to atoms (all electrons):
 Mulliken charges:
               1
     1  N   -0.837186
     2  C   -0.078229
     3  C    0.566763
     4  O   -0.477203
     5  C   -0.320622
     6  C   -0.373506
     7  C    0.611266
     8  O   -0.462496
     9  O   -0.672676
    10  H    0.494141
    11  H    0.408571
    12  H    0.217219
    13  H    0.194017
    14  H    0.229128
    15  H    0.184008
    16  H    0.224814
    17  H    0.425515
    18  H    0.451157
    19  N   -0.569349
    20  C   -0.105848
    21  C    0.618638
    22  O   -0.490031
    23  C   -0.365116
    24  C   -0.001895
    25  C   -0.013046
    26  C    0.030930
    27  C    0.283623
    28  C   -0.243203
    29  N   -0.680730
    30  C   -0.171034
    31  C   -0.191447
    32  C   -0.147975
    33  H    0.376127
    34  H    0.130779
    35  H    0.210819
    36  H    0.192350
    37  H    0.209096
    38  H    0.357041
    39  H    0.215776
    40  H    0.156582
    41  H    0.168411
    42  H    0.161199
    43  N   -0.595954
    44  C   -0.103483
    45  C    0.634754
    46  O   -0.506440
    47  C    0.154653
    48  C   -0.516038
    49  O   -0.654325
    50  H    0.435875
    51  H    0.368622
    52  H    0.144961
    53  H    0.153594
    54  H    0.175890
    55  H    0.197923
    56  H    0.180646
    57  N   -0.604547
    58  C   -0.054551
    59  C    0.615029
    60  O   -0.449532
    61  C   -0.376509
    62  C   -0.296295
    63  C   -0.147623
    64  N   -0.704916
    65  C    0.583498
    66  N   -0.622836
    67  N   -0.761676
    68  O   -0.577764
    69  H    0.431375
    70  H    0.374538
    71  H    0.185649
    72  H    0.161795
    73  H    0.182812
    74  H    0.147813
    75  H    0.166080
    76  H    0.182750
    77  H    0.165328
    78  H    0.370788
    79  H    0.299351
    80  H    0.377857
    81  H    0.364526
 Sum of Mulliken charges =   1.00000
 Mulliken charges with hydrogens summed into heavy atoms:
               1
     1  N    0.448057
     2  C    0.138990
     3  C    0.566763
     4  O   -0.477203
     5  C    0.102523
     6  C    0.035317
     7  C    0.611266
     8  O   -0.462496
     9  O   -0.178535
    19  N   -0.193222
    20  C    0.024931
    21  C    0.618638
    22  O   -0.490031
    23  C    0.038052
    24  C   -0.001895
    25  C    0.196050
    26  C    0.030930
    27  C    0.283623
    28  C   -0.027427
    29  N   -0.323689
    30  C   -0.014452
    31  C   -0.023036
    32  C    0.013224
    43  N   -0.227332
    44  C    0.041478
    45  C    0.634754
    46  O   -0.506440
    47  C    0.308247
    48  C    0.038422
    49  O   -0.218450
    57  N   -0.230009
    58  C    0.131098
    59  C    0.615029
    60  O   -0.449532
    61  C   -0.031902
    62  C    0.017597
    63  C    0.200455
    64  N   -0.334128
    65  C    0.583498
    66  N   -0.323484
    67  N   -0.019293
    68  O   -0.146389
 Electronic spatial extent (au):  <R**2>=        1392682.3787
 Charge=              1.0000 electrons
 Dipole moment (field-independent basis, Debye):
    X=             47.1853    Y=            146.9478    Z=             44.0031  Tot=            160.4880
 Quadrupole moment (field-independent basis, Debye-Ang):
   XX=            232.8503   YY=           4274.5947   ZZ=            158.6738
   XY=           1427.7343   XZ=            433.1048   YZ=           1335.4700
 Traceless Quadrupole moment (field-independent basis, Debye-Ang):
   XX=          -1322.5226   YY=           2719.2218   ZZ=          -1396.6991
   XY=           1427.7343   XZ=            433.1048   YZ=           1335.4700
 Octapole moment (field-independent basis, Debye-Ang**2):
  XXX=          -2378.5431  YYY=         116683.4903  ZZZ=          -5011.6630  XYY=          41049.7975
  XXY=           6626.6872  XXZ=           1387.5264  XZZ=           1590.9062  YZZ=           4385.2883
  YYZ=          37758.5106  XYZ=          12981.5510
 Hexadecapole moment (field-independent basis, Debye-Ang**3):
 XXXX=        -103152.4168 YYYY=        2888708.4324 ZZZZ=        -179908.2165 XXXY=         -82344.6872
 XXXZ=         -43561.7974 YYYX=        1104919.5034 YYYZ=         969009.9623 ZZZX=         -47973.7993
 ZZZY=        -165455.4536 XXYY=         164060.6553 XXZZ=         -22385.2152 YYZZ=          82535.8908
 XXYZ=          35830.8432 YYXZ=         362248.6327 ZZXY=          42570.2808
 N-N= 5.825157165084D+03 E-N=-1.640182872556D+04  KE= 2.035171850394D+03
 Unable to Open any file for archive entry.
 1\1\GINC-VIM-002\SP\RB3LYP\6-31G(d)\C26H39N8O8(1+)\KENGMITH\27-May-202
 2\0\\# B3LYP/6-31G* empiricaldispersion=gd3 guess=read geom=check nosy
 mm integral(ultrafinegrid)\\Candidate Structure: Conf:474 Charge calc 
 in gas phase\\1,1\N,0,11.5146849984,30.7195527613,9.8822514441\C,0,12.
 8970183421,31.3804592272,9.9057475278\C,0,13.8263292153,31.0191333539,
 11.0933526211\O,0,14.9936212566,30.8060049091,10.797122856\C,0,12.8087
 068832,32.9125203324,9.8270291279\C,0,12.1870919966,33.4928796294,8.53
 24465181\C,0,10.74074619,33.9080942661,8.6893399436\O,0,10.2977305192,
 34.9930148651,8.3747757079\O,0,9.9654984583,32.9471227357,9.2450218103
 \H,0,9.0038766022,33.3236281785,9.3622947072\H,0,11.4519922596,30.0332
 415034,9.1252970166\H,0,13.4204747333,30.9970478749,9.0300571823\H,0,1
 2.2999672323,33.3009513486,10.7167370313\H,0,13.8456394392,33.25368838
 98,9.8979454234\H,0,12.2572425475,32.7710391479,7.7070384533\H,0,12.73
 14281944,34.384201179,8.2157918978\H,0,11.3319889522,30.166691143,10.7
 387279289\H,0,10.7655120355,31.43051337,9.7399299829\N,0,13.4135950374
 ,31.1807440591,12.3779656756\C,0,12.1116221989,31.075354365,13.0189167
 862\C,0,12.1643286261,32.0253394676,14.2445012697\O,0,13.2503441064,32
 .3265161787,14.7219124363\C,0,11.8281035264,29.5947856033,13.432675460
 3\C,0,11.6831498166,28.6940114081,12.2402629084\C,0,12.6891396591,28.2
 09834362,11.4277159668\C,0,10.4347548474,28.2359497892,11.6614574288\C
 ,0,10.7593960344,27.5166785486,10.4776704625\C,0,9.086751515,28.318787
 7256,12.0677720649\N,0,12.1391835334,27.5463408765,10.3454281321\C,0,9
 .782316604,26.9224952292,9.6686696214\C,0,8.1196240519,27.7101186643,1
 1.2753536765\C,0,8.4609879758,27.0339970765,10.0823497401\H,0,14.17807
 31277,31.2042030297,13.0514964786\H,0,11.3313876005,31.4391957609,12.3
 423440656\H,0,10.9205022501,29.538468753,14.0386700343\H,0,12.65775983
 73,29.2796230975,14.0746602916\H,0,13.7617789904,28.3044815456,11.5235
 579346\H,0,12.6670722811,26.9568228384,9.7165320235\H,0,8.8221843612,2
 8.7900315978,13.0111933718\H,0,10.0484656194,26.369949173,8.7720956359
 \H,0,7.0843050063,27.7010350143,11.6056209689\H,0,7.6787333131,26.5631
 79791,9.4948094304\N,0,10.9855951871,32.53112162,14.6904784197\C,0,9.6
 430537786,32.0005409042,14.4894365122\C,0,8.7035874902,33.2217696535,1
 4.4321389887\O,0,8.9772242174,34.2048692412,15.1088504469\C,0,9.287445
 1846,30.9682228503,15.6217378881\C,0,8.5751897518,31.5745207111,16.824
 3474505\O,0,8.5737358536,29.8767180999,15.043217104\H,0,7.6570069064,2
 9.8849231081,15.3644874747\H,0,11.0631601702,33.2299107677,15.42451794
 64\H,0,9.617574748,31.4461692276,13.552893928\H,0,10.2546545108,30.565
 4531074,15.9479928164\H,0,8.4698542193,30.819159674,17.6090272321\H,0,
 7.580690951,31.9370979196,16.5455680882\H,0,9.1421800206,32.4194928043
 ,17.2253651982\N,0,7.5979544684,33.2071971998,13.6305184285\C,0,7.0423
 157483,32.1881354389,12.7568827652\C,0,6.4356731382,31.0147947448,13.5
 58520478\O,0,6.0358513417,31.1356060759,14.6889593107\C,0,7.9579812126
 ,31.7982479589,11.5649426698\C,0,7.2425155344,31.5349953376,10.2216047
 187\C,0,6.5729704042,32.7536539192,9.5542172865\N,0,7.4771541421,33.92
 3553628,9.5099044644\C,0,7.3999712214,34.8799298546,10.6190310773\N,0,
 6.4393099169,35.028244411,11.4501151672\N,0,8.5650170484,35.5829983,10
 .7401843464\O,0,6.277665041,29.8402040426,12.9069401289\H,0,6.76965122
 15,29.8181976285,12.0714181107\H,0,7.110123366,34.0979840887,13.619399
 156\H,0,6.1570351944,32.6698651075,12.3328672242\H,0,8.5526679311,30.9
 099530431,11.8101891707\H,0,8.6723407895,32.6159192254,11.4401763997\H
 ,0,7.9827769828,31.1213963661,9.5255381265\H,0,6.4706477104,30.7607745
 592,10.3246412186\H,0,6.3188707429,32.4911534338,8.523849384\H,0,5.623
 5998849,32.9975055245,10.0439731169\H,0,7.3879161411,34.4320956463,8.6
 295425147\H,0,5.612464395,34.4906859876,11.2009980155\H,0,9.1723182794
 ,35.6575453688,9.9306405552\H,0,8.5103969582,36.3991656102,11.33651014
 67\\Version=ES64L-G16RevC.01\HF=-2054.004203\RMSD=9.077e-10\Dipole=-0.
 026776,-1.5270479,-5.2075977\Quadrupole=-983.2631667,2021.6747469,-103
 8.4115802,1061.4854709,322.0028267,992.8892127\PG=C01 [X(C26H39N8O8)]\
 \@
 The archive entry for this job was punched.


 ONLY THE DAY DAWNS TO WHICH YOU ARE AWAKE.

                                 -- THOREAU
 Job cpu time:       0 days  0 hours  7 minutes 56.1 seconds.
 Elapsed time:       0 days  0 hours  2 minutes  0.2 seconds.
 File lengths (MBytes):  RWF=    376 Int=      0 D2E=      0 Chk=     56 Scr=     16
 Normal termination of Gaussian 16 at Fri May 27 05:14:59 2022.
