 Entering Gaussian System, Link 0=/opt/software/Gaussian/g16-AVX2-C.01/g16/g16
 Input=charge-conf-472.com
 Output=charge-conf-472.log
 Initial command:
 /opt/software/Gaussian/g16-AVX2-C.01/g16/l1.exe "/mnt/gs18/scratch/users/kengmith/Gau-28987.inp" -scrdir="/mnt/gs18/scratch/users/kengmith/"
 Entering Link 1 = /opt/software/Gaussian/g16-AVX2-C.01/g16/l1.exe PID=     28998.
  
 Copyright (c) 1988-2019, Gaussian, Inc.  All Rights Reserved.
  
 This is part of the Gaussian(R) 16 program.  It is based on
 the Gaussian(R) 09 system (copyright 2009, Gaussian, Inc.),
 the Gaussian(R) 03 system (copyright 2003, Gaussian, Inc.),
 the Gaussian(R) 98 system (copyright 1998, Gaussian, Inc.),
 the Gaussian(R) 94 system (copyright 1995, Gaussian, Inc.),
 the Gaussian 92(TM) system (copyright 1992, Gaussian, Inc.),
 the Gaussian 90(TM) system (copyright 1990, Gaussian, Inc.),
 the Gaussian 88(TM) system (copyright 1988, Gaussian, Inc.),
 the Gaussian 86(TM) system (copyright 1986, Carnegie Mellon
 University), and the Gaussian 82(TM) system (copyright 1983,
 Carnegie Mellon University). Gaussian is a federally registered
 trademark of Gaussian, Inc.
  
 This software contains proprietary and confidential information,
 including trade secrets, belonging to Gaussian, Inc.
  
 This software is provided under written license and may be
 used, copied, transmitted, or stored only in accord with that
 written license.
  
 The following legend is applicable only to US Government
 contracts under FAR:
  
                    RESTRICTED RIGHTS LEGEND
  
 Use, reproduction and disclosure by the US Government is
 subject to restrictions as set forth in subparagraphs (a)
 and (c) of the Commercial Computer Software - Restricted
 Rights clause in FAR 52.227-19.
  
 Gaussian, Inc.
 340 Quinnipiac St., Bldg. 40, Wallingford CT 06492
  
  
 ---------------------------------------------------------------
 Warning -- This program may not be used in any manner that
 competes with the business of Gaussian, Inc. or will provide
 assistance to any competitor of Gaussian, Inc.  The licensee
 of this program is prohibited from giving any competitor of
 Gaussian, Inc. access to this program.  By using this program,
 the user acknowledges that Gaussian, Inc. is engaged in the
 business of creating and licensing software in the field of
 computational chemistry and represents and warrants to the
 licensee that it is not a competitor of Gaussian, Inc. and that
 it will not use this program in any manner prohibited above.
 ---------------------------------------------------------------
  

 Cite this work as:
 Gaussian 16, Revision C.01,
 M. J. Frisch, G. W. Trucks, H. B. Schlegel, G. E. Scuseria, 
 M. A. Robb, J. R. Cheeseman, G. Scalmani, V. Barone, 
 G. A. Petersson, H. Nakatsuji, X. Li, M. Caricato, A. V. Marenich, 
 J. Bloino, B. G. Janesko, R. Gomperts, B. Mennucci, H. P. Hratchian, 
 J. V. Ortiz, A. F. Izmaylov, J. L. Sonnenberg, D. Williams-Young, 
 F. Ding, F. Lipparini, F. Egidi, J. Goings, B. Peng, A. Petrone, 
 T. Henderson, D. Ranasinghe, V. G. Zakrzewski, J. Gao, N. Rega, 
 G. Zheng, W. Liang, M. Hada, M. Ehara, K. Toyota, R. Fukuda, 
 J. Hasegawa, M. Ishida, T. Nakajima, Y. Honda, O. Kitao, H. Nakai, 
 T. Vreven, K. Throssell, J. A. Montgomery, Jr., J. E. Peralta, 
 F. Ogliaro, M. J. Bearpark, J. J. Heyd, E. N. Brothers, K. N. Kudin, 
 V. N. Staroverov, T. A. Keith, R. Kobayashi, J. Normand, 
 K. Raghavachari, A. P. Rendell, J. C. Burant, S. S. Iyengar, 
 J. Tomasi, M. Cossi, J. M. Millam, M. Klene, C. Adamo, R. Cammi, 
 J. W. Ochterski, R. L. Martin, K. Morokuma, O. Farkas, 
 J. B. Foresman, and D. J. Fox, Gaussian, Inc., Wallingford CT, 2019.
 
 ******************************************
 Gaussian 16:  ES64L-G16RevC.01  3-Jul-2019
                27-May-2022 
 ******************************************
 %mem=8gb
 %nproc=4
 Will use up to    4 processors via shared memory.
 %chk=conf-472.chk
 ----------------------------------------------------------------------
 # B3LYP/6-31G* empiricaldispersion=gd3 guess=read geom=check nosymm in
 tegral(ultrafinegrid)
 ----------------------------------------------------------------------
 1/29=2,38=1,172=1/1;
 2/12=2,15=1,40=1/2;
 3/5=1,6=6,7=1,11=2,14=-4,25=1,30=1,74=-5,75=-5,116=-2,124=31/1,2,3;
 4/5=1/1;
 5/5=2,38=6/2;
 6/7=2,8=2,9=2,10=2,28=1/1;
 99/5=1,9=1/99;
 ------------------------------------------------------
 Candidate Structure: Conf:472 Charge calc in gas phase
 ------------------------------------------------------
 Structure from the checkpoint file:  "conf-472.chk"
 Charge =  1 Multiplicity = 1
 Redundant internal coordinates found in file.  (old form).
 N,0,11.3276233101,31.647064627,9.6452238286
 C,0,12.6293460188,32.3083134407,10.0883856635
 C,0,13.7138119284,31.2598237544,10.4565537919
 O,0,14.6491667402,31.124264455,9.6814296878
 C,0,12.4410036785,33.3922475847,11.1612410809
 C,0,11.7634682623,34.7059629602,10.7006742981
 C,0,10.2525015247,34.644522535,10.696098008
 O,0,9.5346083487,35.1384724716,11.5361304692
 O,0,9.7446076164,33.9282670537,9.6500512436
 H,0,8.7187773903,33.8861120383,9.7585963356
 H,0,11.4817103564,31.0528933431,8.8225397491
 H,0,13.0156211128,32.7676835106,9.1765783476
 H,0,11.9537504481,33.0208923556,12.0666334228
 H,0,13.4587242456,33.6471974715,11.4757335681
 H,0,12.1211733813,34.9927035649,9.7047197136
 H,0,12.035438953,35.4940333967,11.4053253694
 H,0,10.9403869555,31.0159908784,10.3573661229
 H,0,10.6238652359,32.3890262042,9.4315713518
 N,0,13.6563858689,30.6413521318,11.6664880893
 C,0,12.5166218415,30.3242407129,12.5064413505
 C,0,12.877815342,30.6046301943,13.9781025826
 O,0,14.0448136362,30.6322547121,14.3279240972
 C,0,12.1050748305,28.8317565335,12.3270151752
 C,0,11.4084463927,28.5864438815,11.0233241182
 C,0,11.960185962,28.5709840385,9.7626667538
 C,0,9.9869784196,28.3678229105,10.8562205041
 C,0,9.740975175,28.2525361947,9.462307222
 C,0,8.9181537385,28.1974934693,11.7599363304
 N,0,10.9543142196,28.4350632264,8.8098553819
 C,0,8.4679216031,27.9775089198,8.947359328
 C,0,7.6559585592,27.9110431975,11.2516126199
 C,0,7.4340115788,27.8028005902,9.8593038829
 H,0,14.5193505871,30.1747604137,11.9332282498
 H,0,11.6809682243,30.9617493595,12.2183419194
 H,0,11.4547789495,28.5336270422,13.1551694069
 H,0,13.0144548135,28.2284795361,12.4246722664
 H,0,12.9950997877,28.6574385194,9.4582968238
 H,0,11.1276065263,28.1261241761,7.8623002644
 H,0,9.0679505702,28.2663647593,12.8342718436
 H,0,8.2993245945,27.8756046765,7.8791776734
 H,0,6.8291815182,27.7373541372,11.9355103202
 H,0,6.4389645597,27.5637624798,9.4966561324
 N,0,11.8227983217,30.7039690606,14.8443669115
 C,0,10.4365104953,30.9540107501,14.4797113465
 C,0,10.23545425,32.4677529996,14.1995141312
 O,0,11.1660635693,33.2342048258,14.4297102553
 C,0,9.4973645584,30.3468396002,15.5570199231
 C,0,9.0919195488,31.3080076679,16.6690428557
 O,0,8.3778148069,29.8460678153,14.8181211292
 H,0,7.5933961726,29.829109022,15.3907906994
 H,0,12.1090813417,31.0400473951,15.7587630841
 H,0,10.2100640809,30.383432082,13.5793542093
 H,0,10.0471352662,29.4966730466,15.9839467045
 H,0,8.5329607816,30.7732936498,17.4447035205
 H,0,8.4644393161,32.1137743522,16.2796937943
 H,0,9.9772291559,31.7460564021,17.1438151761
 N,0,9.0414316766,32.9665192443,13.7422461439
 C,0,7.9843219361,32.3911583555,12.9057451308
 C,0,6.8827628078,31.6717304736,13.7104589728
 O,0,6.4287967763,32.1392704805,14.7209718136
 C,0,8.5580634845,31.6818751867,11.6623381926
 C,0,7.6302539696,31.4271505201,10.4499005391
 C,0,6.5296278498,32.4533439345,10.16054932
 N,0,7.021636987,33.8188292775,9.8570753667
 C,0,6.5436694908,34.9358037819,10.6576158017
 N,0,5.8231495001,34.9215193494,11.7069640751
 N,0,6.9515913189,36.1317622431,10.0916337456
 O,0,6.3101375114,30.5801505956,13.1339600219
 H,0,6.9545556001,30.1006598828,12.5866534852
 H,0,9.1075139646,33.9767312334,13.6590681018
 H,0,7.4550389097,33.2806934904,12.5523875762
 H,0,9.0071727225,30.724984681,11.944332325
 H,0,9.375269332,32.3311459295,11.3535807031
 H,0,8.2627049327,31.310206193,9.5584721312
 H,0,7.1294716206,30.4611644434,10.554813722
 H,0,5.9391667051,32.0963143961,9.3111523417
 H,0,5.841152366,32.4826054987,11.0082961761
 H,0,6.8313423397,34.0570024275,8.8838974278
 H,0,5.4127134617,34.0186152788,11.9361807395
 H,0,7.9375798601,36.1869627982,9.8619761978
 H,0,6.6590849252,36.9209204266,10.6586651887
 Recover connectivity data from disk.
                           ----------------------------
                           !    Current Parameters    !
                           ! (Angstroms and Degrees)  !
 --------------------------                            --------------------------
 ! Name  Definition              Value                                          !
 --------------------------------------------------------------------------------
 ! R1    R(1,2)                  1.5258                                         !
 ! R2    R(1,11)                 1.0264                                         !
 ! R3    R(1,17)                 1.0273                                         !
 ! R4    R(1,18)                 1.0447                                         !
 ! R5    R(2,3)                  1.5527                                         !
 ! R6    R(2,5)                  1.5367                                         !
 ! R7    R(2,12)                 1.0916                                         !
 ! R8    R(3,4)                  1.2223                                         !
 ! R9    R(3,19)                 1.3601                                         !
 ! R10   R(5,6)                  1.5482                                         !
 ! R11   R(5,13)                 1.0932                                         !
 ! R12   R(5,14)                 1.0953                                         !
 ! R13   R(6,7)                  1.5122                                         !
 ! R14   R(6,15)                 1.0964                                         !
 ! R15   R(6,16)                 1.0916                                         !
 ! R16   R(7,8)                  1.2104                                         !
 ! R17   R(7,9)                  1.3657                                         !
 ! R18   R(9,10)                 1.0324                                         !
 ! R19   R(19,20)                1.4509                                         !
 ! R20   R(19,33)                1.0166                                         !
 ! R21   R(20,21)                1.5411                                         !
 ! R22   R(20,23)                1.5585                                         !
 ! R23   R(20,34)                1.0898                                         !
 ! R24   R(21,22)                1.2186                                         !
 ! R25   R(21,43)                1.3687                                         !
 ! R26   R(23,24)                1.4984                                         !
 ! R27   R(23,35)                1.0944                                         !
 ! R28   R(23,36)                1.0957                                         !
 ! R29   R(24,25)                1.3762                                         !
 ! R30   R(24,26)                1.4479                                         !
 ! R31   R(25,29)                1.3922                                         !
 ! R32   R(25,37)                1.0822                                         !
 ! R33   R(26,27)                1.4201                                         !
 ! R34   R(26,28)                1.41                                           !
 ! R35   R(27,29)                1.3897                                         !
 ! R36   R(27,30)                1.4005                                         !
 ! R37   R(28,31)                1.3905                                         !
 ! R38   R(28,39)                1.0869                                         !
 ! R39   R(29,38)                1.0116                                         !
 ! R40   R(30,32)                1.3897                                         !
 ! R41   R(30,40)                1.0862                                         !
 ! R42   R(31,32)                1.414                                          !
 ! R43   R(31,41)                1.0869                                         !
 ! R44   R(32,42)                1.0857                                         !
 ! R45   R(43,44)                1.4551                                         !
 ! R46   R(43,51)                1.0154                                         !
 ! R47   R(44,45)                1.5525                                         !
 ! R48   R(44,47)                1.5528                                         !
 ! R49   R(44,52)                1.0897                                         !
 ! R50   R(45,46)                1.2274                                         !
 ! R51   R(45,57)                1.3724                                         !
 ! R52   R(47,48)                1.5247                                         !
 ! R53   R(47,49)                1.4318                                         !
 ! R54   R(47,53)                1.0988                                         !
 ! R55   R(48,54)                1.0954                                         !
 ! R56   R(48,55)                1.093                                          !
 ! R57   R(48,56)                1.0959                                         !
 ! R58   R(49,50)                0.9714                                         !
 ! R59   R(57,58)                1.4657                                         !
 ! R60   R(57,70)                1.0158                                         !
 ! R61   R(58,59)                1.5423                                         !
 ! R62   R(58,61)                1.5422                                         !
 ! R63   R(58,71)                1.0937                                         !
 ! R64   R(59,60)                1.2024                                         !
 ! R65   R(59,68)                1.3608                                         !
 ! R66   R(61,62)                1.5478                                         !
 ! R67   R(61,72)                1.094                                          !
 ! R68   R(61,73)                1.0884                                         !
 ! R69   R(62,63)                1.5324                                         !
 ! R70   R(62,74)                1.0992                                         !
 ! R71   R(62,75)                1.0931                                         !
 ! R72   R(63,64)                1.4828                                         !
 ! R73   R(63,76)                1.0943                                         !
 ! R74   R(63,77)                1.0925                                         !
 ! R75   R(64,65)                1.455                                          !
 ! R76   R(64,78)                1.0198                                         !
 ! R77   R(65,66)                1.273                                          !
 ! R78   R(65,67)                1.3846                                         !
 ! R79   R(66,79)                1.018                                          !
 ! R80   R(67,80)                1.0139                                         !
 ! R81   R(67,81)                1.0148                                         !
 ! R82   R(68,69)                0.972                                          !
 ! A1    A(2,1,11)             110.829                                          !
 ! A2    A(2,1,17)             112.7348                                         !
 ! A3    A(2,1,18)             109.0452                                         !
 ! A4    A(11,1,17)            104.868                                          !
 ! A5    A(11,1,18)            110.3849                                         !
 ! A6    A(17,1,18)            108.9125                                         !
 ! A7    A(1,2,3)              111.8439                                         !
 ! A8    A(1,2,5)              113.8223                                         !
 ! A9    A(1,2,12)             103.9843                                         !
 ! A10   A(3,2,5)              113.3513                                         !
 ! A11   A(3,2,12)             103.5959                                         !
 ! A12   A(5,2,12)             109.2506                                         !
 ! A13   A(2,3,4)              117.3214                                         !
 ! A14   A(2,3,19)             119.2432                                         !
 ! A15   A(4,3,19)             123.0945                                         !
 ! A16   A(2,5,6)              116.3897                                         !
 ! A17   A(2,5,13)             113.1564                                         !
 ! A18   A(2,5,14)             104.523                                          !
 ! A19   A(6,5,13)             109.8504                                         !
 ! A20   A(6,5,14)             107.1294                                         !
 ! A21   A(13,5,14)            104.7983                                         !
 ! A22   A(5,6,7)              113.8085                                         !
 ! A23   A(5,6,15)             110.4484                                         !
 ! A24   A(5,6,16)             108.1514                                         !
 ! A25   A(7,6,15)             109.5032                                         !
 ! A26   A(7,6,16)             106.274                                          !
 ! A27   A(15,6,16)            108.4388                                         !
 ! A28   A(6,7,8)              125.0256                                         !
 ! A29   A(6,7,9)              113.2787                                         !
 ! A30   A(8,7,9)              121.6703                                         !
 ! A31   A(7,9,10)             108.0834                                         !
 ! A32   A(3,19,20)            130.3588                                         !
 ! A33   A(3,19,33)            113.9712                                         !
 ! A34   A(20,19,33)           114.4943                                         !
 ! A35   A(19,20,21)           109.2057                                         !
 ! A36   A(19,20,23)           110.4922                                         !
 ! A37   A(19,20,34)           108.7508                                         !
 ! A38   A(21,20,23)           110.2467                                         !
 ! A39   A(21,20,34)           109.0099                                         !
 ! A40   A(23,20,34)           109.1025                                         !
 ! A41   A(20,21,22)           120.1797                                         !
 ! A42   A(20,21,43)           115.9094                                         !
 ! A43   A(22,21,43)           123.6994                                         !
 ! A44   A(20,23,24)           112.3161                                         !
 ! A45   A(20,23,35)           109.3094                                         !
 ! A46   A(20,23,36)           107.3282                                         !
 ! A47   A(24,23,35)           109.7283                                         !
 ! A48   A(24,23,36)           111.9187                                         !
 ! A49   A(35,23,36)           106.0069                                         !
 ! A50   A(23,24,25)           127.7686                                         !
 ! A51   A(23,24,26)           125.5628                                         !
 ! A52   A(25,24,26)           106.6299                                         !
 ! A53   A(24,25,29)           109.7781                                         !
 ! A54   A(24,25,37)           129.8022                                         !
 ! A55   A(29,25,37)           120.4153                                         !
 ! A56   A(24,26,27)           107.194                                          !
 ! A57   A(24,26,28)           133.5101                                         !
 ! A58   A(27,26,28)           119.2079                                         !
 ! A59   A(26,27,29)           107.3928                                         !
 ! A60   A(26,27,30)           122.2958                                         !
 ! A61   A(29,27,30)           130.3013                                         !
 ! A62   A(26,28,31)           118.5976                                         !
 ! A63   A(26,28,39)           121.4256                                         !
 ! A64   A(31,28,39)           119.9657                                         !
 ! A65   A(25,29,27)           108.8043                                         !
 ! A66   A(25,29,38)           123.1702                                         !
 ! A67   A(27,29,38)           123.3143                                         !
 ! A68   A(27,30,32)           117.367                                          !
 ! A69   A(27,30,40)           121.4059                                         !
 ! A70   A(32,30,40)           121.2034                                         !
 ! A71   A(28,31,32)           121.2106                                         !
 ! A72   A(28,31,41)           119.5611                                         !
 ! A73   A(32,31,41)           119.2028                                         !
 ! A74   A(30,32,31)           121.3156                                         !
 ! A75   A(30,32,42)           119.3642                                         !
 ! A76   A(31,32,42)           119.3137                                         !
 ! A77   A(21,43,44)           126.0314                                         !
 ! A78   A(21,43,51)           112.1265                                         !
 ! A79   A(44,43,51)           115.9391                                         !
 ! A80   A(43,44,45)           109.6427                                         !
 ! A81   A(43,44,47)           109.5815                                         !
 ! A82   A(43,44,52)           108.3645                                         !
 ! A83   A(45,44,47)           115.349                                          !
 ! A84   A(45,44,52)           109.5418                                         !
 ! A85   A(47,44,52)           104.0521                                         !
 ! A86   A(44,45,46)           118.4779                                         !
 ! A87   A(44,45,57)           121.8124                                         !
 ! A88   A(46,45,57)           119.6825                                         !
 ! A89   A(44,47,48)           114.8549                                         !
 ! A90   A(44,47,49)           104.5736                                         !
 ! A91   A(44,47,53)           105.6343                                         !
 ! A92   A(48,47,49)           112.8875                                         !
 ! A93   A(48,47,53)           109.7201                                         !
 ! A94   A(49,47,53)           108.731                                          !
 ! A95   A(47,48,54)           110.1448                                         !
 ! A96   A(47,48,55)           110.9523                                         !
 ! A97   A(47,48,56)           110.6777                                         !
 ! A98   A(54,48,55)           108.6119                                         !
 ! A99   A(54,48,56)           107.4906                                         !
 ! A100  A(55,48,56)           108.87                                           !
 ! A101  A(47,49,50)           109.4683                                         !
 ! A102  A(45,57,58)           132.4522                                         !
 ! A103  A(45,57,70)           109.3969                                         !
 ! A104  A(58,57,70)           112.991                                          !
 ! A105  A(57,58,59)           113.6076                                         !
 ! A106  A(57,58,61)           111.862                                          !
 ! A107  A(57,58,71)           102.3652                                         !
 ! A108  A(59,58,61)           118.1558                                         !
 ! A109  A(59,58,71)           101.6723                                         !
 ! A110  A(61,58,71)           107.0738                                         !
 ! A111  A(58,59,60)           121.788                                          !
 ! A112  A(58,59,68)           116.9809                                         !
 ! A113  A(60,59,68)           120.6016                                         !
 ! A114  A(58,61,62)           118.9632                                         !
 ! A115  A(58,61,72)           110.3148                                         !
 ! A116  A(58,61,73)           103.5142                                         !
 ! A117  A(62,61,72)           107.7007                                         !
 ! A118  A(62,61,73)           109.0274                                         !
 ! A119  A(72,61,73)           106.6575                                         !
 ! A120  A(61,62,63)           117.9204                                         !
 ! A121  A(61,62,74)           107.9303                                         !
 ! A122  A(61,62,75)           110.1734                                         !
 ! A123  A(63,62,74)           109.3516                                         !
 ! A124  A(63,62,75)           106.3119                                         !
 ! A125  A(74,62,75)           104.3238                                         !
 ! A126  A(62,63,64)           114.6461                                         !
 ! A127  A(62,63,76)           108.3979                                         !
 ! A128  A(62,63,77)           108.9078                                         !
 ! A129  A(64,63,76)           108.7001                                         !
 ! A130  A(64,63,77)           110.0751                                         !
 ! A131  A(76,63,77)           105.7241                                         !
 ! A132  A(63,64,65)           119.035                                          !
 ! A133  A(63,64,78)           110.3929                                         !
 ! A134  A(65,64,78)           106.5265                                         !
 ! A135  A(64,65,66)           129.1145                                         !
 ! A136  A(64,65,67)           109.9632                                         !
 ! A137  A(66,65,67)           120.8914                                         !
 ! A138  A(65,66,79)           115.0736                                         !
 ! A139  A(65,67,80)           115.2224                                         !
 ! A140  A(65,67,81)           111.0005                                         !
 ! A141  A(80,67,81)           111.3787                                         !
 ! A142  A(59,68,69)           110.8105                                         !
 ! D1    D(11,1,2,3)           -59.6776                                         !
 ! D2    D(11,1,2,5)           170.2477                                         !
 ! D3    D(11,1,2,12)           51.4729                                         !
 ! D4    D(17,1,2,3)            57.521                                          !
 ! D5    D(17,1,2,5)           -72.5537                                         !
 ! D6    D(17,1,2,12)          168.6715                                         !
 ! D7    D(18,1,2,3)           178.6141                                         !
 ! D8    D(18,1,2,5)            48.5394                                         !
 ! D9    D(18,1,2,12)          -70.2354                                         !
 ! D10   D(1,2,3,4)            107.6339                                         !
 ! D11   D(1,2,3,19)           -78.8601                                         !
 ! D12   D(5,2,3,4)           -122.0481                                         !
 ! D13   D(5,2,3,19)            51.4579                                         !
 ! D14   D(12,2,3,4)            -3.7615                                         !
 ! D15   D(12,2,3,19)          169.7445                                         !
 ! D16   D(1,2,5,6)            -70.6486                                         !
 ! D17   D(1,2,5,13)            57.9968                                         !
 ! D18   D(1,2,5,14)           171.4352                                         !
 ! D19   D(3,2,5,6)            160.0326                                         !
 ! D20   D(3,2,5,13)           -71.322                                          !
 ! D21   D(3,2,5,14)            42.1163                                         !
 ! D22   D(12,2,5,6)            45.0728                                         !
 ! D23   D(12,2,5,13)          173.7183                                         !
 ! D24   D(12,2,5,14)          -72.8434                                         !
 ! D25   D(2,3,19,20)           29.2437                                         !
 ! D26   D(2,3,19,33)         -164.0239                                         !
 ! D27   D(4,3,19,20)         -157.645                                          !
 ! D28   D(4,3,19,33)            9.0874                                         !
 ! D29   D(2,5,6,7)             83.8547                                         !
 ! D30   D(2,5,6,15)           -39.7852                                         !
 ! D31   D(2,5,6,16)          -158.3061                                         !
 ! D32   D(13,5,6,7)           -46.3747                                         !
 ! D33   D(13,5,6,15)         -170.0145                                         !
 ! D34   D(13,5,6,16)           71.4645                                         !
 ! D35   D(14,5,6,7)          -159.667                                          !
 ! D36   D(14,5,6,15)           76.6931                                         !
 ! D37   D(14,5,6,16)          -41.8278                                         !
 ! D38   D(5,6,7,8)            102.9338                                         !
 ! D39   D(5,6,7,9)            -75.2513                                         !
 ! D40   D(15,6,7,8)          -132.915                                          !
 ! D41   D(15,6,7,9)            48.9                                            !
 ! D42   D(16,6,7,8)           -15.9821                                         !
 ! D43   D(16,6,7,9)           165.8328                                         !
 ! D44   D(6,7,9,10)           176.3649                                         !
 ! D45   D(8,7,9,10)            -1.8888                                         !
 ! D46   D(3,19,20,21)        -139.0991                                         !
 ! D47   D(3,19,20,23)          99.4745                                         !
 ! D48   D(3,19,20,34)         -20.2492                                         !
 ! D49   D(33,19,20,21)         54.2242                                         !
 ! D50   D(33,19,20,23)        -67.2022                                         !
 ! D51   D(33,19,20,34)        173.0741                                         !
 ! D52   D(19,20,21,22)        -22.0896                                         !
 ! D53   D(19,20,21,43)        163.0012                                         !
 ! D54   D(23,20,21,22)         99.4856                                         !
 ! D55   D(23,20,21,43)        -75.4236                                         !
 ! D56   D(34,20,21,22)       -140.778                                          !
 ! D57   D(34,20,21,43)         44.3128                                         !
 ! D58   D(19,20,23,24)        -74.2222                                         !
 ! D59   D(19,20,23,35)        163.7417                                         !
 ! D60   D(19,20,23,36)         49.1971                                         !
 ! D61   D(21,20,23,24)        164.9698                                         !
 ! D62   D(21,20,23,35)         42.9337                                         !
 ! D63   D(21,20,23,36)        -71.611                                          !
 ! D64   D(34,20,23,24)         45.2894                                         !
 ! D65   D(34,20,23,35)        -76.7467                                         !
 ! D66   D(34,20,23,36)        168.7087                                         !
 ! D67   D(20,21,43,44)        -18.8541                                         !
 ! D68   D(20,21,43,51)       -170.4533                                         !
 ! D69   D(22,21,43,44)        166.4361                                         !
 ! D70   D(22,21,43,51)         14.8369                                         !
 ! D71   D(20,23,24,25)         72.3099                                         !
 ! D72   D(20,23,24,26)       -105.1192                                         !
 ! D73   D(35,23,24,25)       -165.8924                                         !
 ! D74   D(35,23,24,26)         16.6785                                         !
 ! D75   D(36,23,24,25)        -48.5008                                         !
 ! D76   D(36,23,24,26)        134.0701                                         !
 ! D77   D(23,24,25,29)       -174.2784                                         !
 ! D78   D(23,24,25,37)          4.9361                                         !
 ! D79   D(26,24,25,29)          3.5392                                         !
 ! D80   D(26,24,25,37)       -177.2464                                         !
 ! D81   D(23,24,26,27)        176.8016                                         !
 ! D82   D(23,24,26,28)         -6.7622                                         !
 ! D83   D(25,24,26,27)         -1.0776                                         !
 ! D84   D(25,24,26,28)        175.3585                                         !
 ! D85   D(24,25,29,27)         -4.7514                                         !
 ! D86   D(24,25,29,38)       -161.0595                                         !
 ! D87   D(37,25,29,27)        175.9484                                         !
 ! D88   D(37,25,29,38)         19.6403                                         !
 ! D89   D(24,26,27,29)         -1.7514                                         !
 ! D90   D(24,26,27,30)        177.202                                          !
 ! D91   D(28,26,27,29)       -178.7907                                         !
 ! D92   D(28,26,27,30)          0.1626                                         !
 ! D93   D(24,26,28,31)       -175.6174                                         !
 ! D94   D(24,26,28,39)          3.1723                                         !
 ! D95   D(27,26,28,31)          0.4815                                         !
 ! D96   D(27,26,28,39)        179.2713                                         !
 ! D97   D(26,27,29,25)          3.9364                                         !
 ! D98   D(26,27,29,38)        160.203                                          !
 ! D99   D(30,27,29,25)       -174.9035                                         !
 ! D100  D(30,27,29,38)        -18.6369                                         !
 ! D101  D(26,27,30,32)         -0.6918                                         !
 ! D102  D(26,27,30,40)       -178.9414                                         !
 ! D103  D(29,27,30,32)        177.9985                                         !
 ! D104  D(29,27,30,40)         -0.2511                                         !
 ! D105  D(26,28,31,32)         -0.5873                                         !
 ! D106  D(26,28,31,41)        177.5621                                         !
 ! D107  D(39,28,31,32)       -179.3952                                         !
 ! D108  D(39,28,31,41)         -1.2458                                         !
 ! D109  D(27,30,32,31)          0.5878                                         !
 ! D110  D(27,30,32,42)       -178.4854                                         !
 ! D111  D(40,30,32,31)        178.8412                                         !
 ! D112  D(40,30,32,42)         -0.232                                          !
 ! D113  D(28,31,32,30)          0.044                                          !
 ! D114  D(28,31,32,42)        179.1176                                         !
 ! D115  D(41,31,32,30)       -178.1119                                         !
 ! D116  D(41,31,32,42)          0.9617                                         !
 ! D117  D(21,43,44,45)        -79.3028                                         !
 ! D118  D(21,43,44,47)        153.1471                                         !
 ! D119  D(21,43,44,52)         40.2159                                         !
 ! D120  D(51,43,44,45)         71.3587                                         !
 ! D121  D(51,43,44,47)        -56.1913                                         !
 ! D122  D(51,43,44,52)       -169.1225                                         !
 ! D123  D(43,44,45,46)         -6.6174                                         !
 ! D124  D(43,44,45,57)        175.2848                                         !
 ! D125  D(47,44,45,46)        117.6364                                         !
 ! D126  D(47,44,45,57)        -60.4613                                         !
 ! D127  D(52,44,45,46)       -125.4114                                         !
 ! D128  D(52,44,45,57)         56.4908                                         !
 ! D129  D(43,44,47,48)         92.549                                          !
 ! D130  D(43,44,47,49)       -143.1662                                         !
 ! D131  D(43,44,47,53)        -28.5015                                         !
 ! D132  D(45,44,47,48)        -31.7369                                         !
 ! D133  D(45,44,47,49)         92.548                                          !
 ! D134  D(45,44,47,53)       -152.7873                                         !
 ! D135  D(52,44,47,48)       -151.7452                                         !
 ! D136  D(52,44,47,49)        -27.4603                                         !
 ! D137  D(52,44,47,53)         87.2044                                         !
 ! D138  D(44,45,57,58)        -30.1554                                         !
 ! D139  D(44,45,57,70)        177.7999                                         !
 ! D140  D(46,45,57,58)        151.7692                                         !
 ! D141  D(46,45,57,70)         -0.2755                                         !
 ! D142  D(44,47,48,54)       -173.2471                                         !
 ! D143  D(44,47,48,55)         66.4557                                         !
 ! D144  D(44,47,48,56)        -54.5207                                         !
 ! D145  D(49,47,48,54)         66.98                                           !
 ! D146  D(49,47,48,55)        -53.3172                                         !
 ! D147  D(49,47,48,56)       -174.2936                                         !
 ! D148  D(53,47,48,54)        -54.4601                                         !
 ! D149  D(53,47,48,55)       -174.7573                                         !
 ! D150  D(53,47,48,56)         64.2663                                         !
 ! D151  D(44,47,49,50)       -154.0346                                         !
 ! D152  D(48,47,49,50)        -28.5021                                         !
 ! D153  D(53,47,49,50)         93.4961                                         !
 ! D154  D(45,57,58,59)         90.6545                                         !
 ! D155  D(45,57,58,61)        -46.2509                                         !
 ! D156  D(45,57,58,71)       -160.5707                                         !
 ! D157  D(70,57,58,59)       -118.0524                                         !
 ! D158  D(70,57,58,61)        105.0421                                         !
 ! D159  D(70,57,58,71)         -9.2776                                         !
 ! D160  D(57,58,59,60)         42.8591                                         !
 ! D161  D(57,58,59,68)       -146.1889                                         !
 ! D162  D(61,58,59,60)        176.873                                          !
 ! D163  D(61,58,59,68)        -12.175                                          !
 ! D164  D(71,58,59,60)        -66.3444                                         !
 ! D165  D(71,58,59,68)        104.6076                                         !
 ! D166  D(57,58,61,62)       -160.1314                                         !
 ! D167  D(57,58,61,72)         74.7373                                         !
 ! D168  D(57,58,61,73)        -39.05                                           !
 ! D169  D(59,58,61,62)         65.1074                                         !
 ! D170  D(59,58,61,72)        -60.0239                                         !
 ! D171  D(59,58,61,73)       -173.8112                                         !
 ! D172  D(71,58,61,62)        -48.748                                          !
 ! D173  D(71,58,61,72)       -173.8793                                         !
 ! D174  D(71,58,61,73)         72.3334                                         !
 ! D175  D(58,59,68,69)         33.0264                                         !
 ! D176  D(60,59,68,69)       -155.9079                                         !
 ! D177  D(58,61,62,63)         32.8163                                         !
 ! D178  D(58,61,62,74)        157.2625                                         !
 ! D179  D(58,61,62,75)        -89.4149                                         !
 ! D180  D(72,61,62,63)        159.1984                                         !
 ! D181  D(72,61,62,74)        -76.3554                                         !
 ! D182  D(72,61,62,75)         36.9672                                         !
 ! D183  D(73,61,62,63)        -85.4388                                         !
 ! D184  D(73,61,62,74)         39.0075                                         !
 ! D185  D(73,61,62,75)        152.33                                           !
 ! D186  D(61,62,63,64)         61.3223                                         !
 ! D187  D(61,62,63,76)       -177.0526                                         !
 ! D188  D(61,62,63,77)        -62.4814                                         !
 ! D189  D(74,62,63,64)        -62.4155                                         !
 ! D190  D(74,62,63,76)         59.2095                                         !
 ! D191  D(74,62,63,77)        173.7807                                         !
 ! D192  D(75,62,63,64)       -174.5012                                         !
 ! D193  D(75,62,63,76)        -52.8761                                         !
 ! D194  D(75,62,63,77)         61.695                                          !
 ! D195  D(62,63,64,65)       -123.947                                          !
 ! D196  D(62,63,64,78)        112.4478                                         !
 ! D197  D(76,63,64,65)        114.5931                                         !
 ! D198  D(76,63,64,78)         -9.0121                                         !
 ! D199  D(77,63,64,65)         -0.7676                                         !
 ! D200  D(77,63,64,78)       -124.3729                                         !
 ! D201  D(63,64,65,66)          7.1919                                         !
 ! D202  D(63,64,65,67)       -170.768                                          !
 ! D203  D(78,64,65,66)        132.6726                                         !
 ! D204  D(78,64,65,67)        -45.2873                                         !
 ! D205  D(64,65,66,79)        -10.0744                                         !
 ! D206  D(67,65,66,79)        167.691                                          !
 ! D207  D(64,65,67,80)        -49.8922                                         !
 ! D208  D(64,65,67,81)       -177.6581                                         !
 ! D209  D(66,65,67,80)        131.9523                                         !
 ! D210  D(66,65,67,81)          4.1864                                         !
 --------------------------------------------------------------------------------
 Symmetry turned off by external request.
 Stoichiometry    C26H39N8O8(1+)
 Framework group  C1[X(C26H39N8O8)]
 Deg. of freedom   237
 Full point group                 C1      NOp   1
                          Input orientation:                          
 ---------------------------------------------------------------------
 Center     Atomic      Atomic             Coordinates (Angstroms)
 Number     Number       Type             X           Y           Z
 ---------------------------------------------------------------------
      1          7           0       11.327623   31.647065    9.645224
      2          6           0       12.629346   32.308313   10.088386
      3          6           0       13.713812   31.259824   10.456554
      4          8           0       14.649167   31.124264    9.681430
      5          6           0       12.441004   33.392248   11.161241
      6          6           0       11.763468   34.705963   10.700674
      7          6           0       10.252502   34.644523   10.696098
      8          8           0        9.534608   35.138472   11.536130
      9          8           0        9.744608   33.928267    9.650051
     10          1           0        8.718777   33.886112    9.758596
     11          1           0       11.481710   31.052893    8.822540
     12          1           0       13.015621   32.767684    9.176578
     13          1           0       11.953750   33.020892   12.066633
     14          1           0       13.458724   33.647197   11.475734
     15          1           0       12.121173   34.992704    9.704720
     16          1           0       12.035439   35.494033   11.405325
     17          1           0       10.940387   31.015991   10.357366
     18          1           0       10.623865   32.389026    9.431571
     19          7           0       13.656386   30.641352   11.666488
     20          6           0       12.516622   30.324241   12.506441
     21          6           0       12.877815   30.604630   13.978103
     22          8           0       14.044814   30.632255   14.327924
     23          6           0       12.105075   28.831757   12.327015
     24          6           0       11.408446   28.586444   11.023324
     25          6           0       11.960186   28.570984    9.762667
     26          6           0        9.986978   28.367823   10.856221
     27          6           0        9.740975   28.252536    9.462307
     28          6           0        8.918154   28.197493   11.759936
     29          7           0       10.954314   28.435063    8.809855
     30          6           0        8.467922   27.977509    8.947359
     31          6           0        7.655959   27.911043   11.251613
     32          6           0        7.434012   27.802801    9.859304
     33          1           0       14.519351   30.174760   11.933228
     34          1           0       11.680968   30.961749   12.218342
     35          1           0       11.454779   28.533627   13.155169
     36          1           0       13.014455   28.228480   12.424672
     37          1           0       12.995100   28.657439    9.458297
     38          1           0       11.127607   28.126124    7.862300
     39          1           0        9.067951   28.266365   12.834272
     40          1           0        8.299325   27.875605    7.879178
     41          1           0        6.829182   27.737354   11.935510
     42          1           0        6.438965   27.563762    9.496656
     43          7           0       11.822798   30.703969   14.844367
     44          6           0       10.436510   30.954011   14.479711
     45          6           0       10.235454   32.467753   14.199514
     46          8           0       11.166064   33.234205   14.429710
     47          6           0        9.497365   30.346840   15.557020
     48          6           0        9.091920   31.308008   16.669043
     49          8           0        8.377815   29.846068   14.818121
     50          1           0        7.593396   29.829109   15.390791
     51          1           0       12.109081   31.040047   15.758763
     52          1           0       10.210064   30.383432   13.579354
     53          1           0       10.047135   29.496673   15.983947
     54          1           0        8.532961   30.773294   17.444704
     55          1           0        8.464439   32.113774   16.279694
     56          1           0        9.977229   31.746056   17.143815
     57          7           0        9.041432   32.966519   13.742246
     58          6           0        7.984322   32.391158   12.905745
     59          6           0        6.882763   31.671730   13.710459
     60          8           0        6.428797   32.139270   14.720972
     61          6           0        8.558063   31.681875   11.662338
     62          6           0        7.630254   31.427151   10.449901
     63          6           0        6.529628   32.453344   10.160549
     64          7           0        7.021637   33.818829    9.857075
     65          6           0        6.543669   34.935804   10.657616
     66          7           0        5.823150   34.921519   11.706964
     67          7           0        6.951591   36.131762   10.091634
     68          8           0        6.310138   30.580151   13.133960
     69          1           0        6.954556   30.100660   12.586653
     70          1           0        9.107514   33.976731   13.659068
     71          1           0        7.455039   33.280693   12.552388
     72          1           0        9.007173   30.724985   11.944332
     73          1           0        9.375269   32.331146   11.353581
     74          1           0        8.262705   31.310206    9.558472
     75          1           0        7.129472   30.461164   10.554814
     76          1           0        5.939167   32.096314    9.311152
     77          1           0        5.841152   32.482605   11.008296
     78          1           0        6.831342   34.057002    8.883897
     79          1           0        5.412713   34.018615   11.936181
     80          1           0        7.937580   36.186963    9.861976
     81          1           0        6.659085   36.920920   10.658665
 ---------------------------------------------------------------------
 Rotational constants (GHZ):           0.0986998           0.0780596           0.0769417
 Standard basis: 6-31G(d) (6D, 7F)
   708 basis functions,  1332 primitive gaussians,   708 cartesian basis functions
   157 alpha electrons      157 beta electrons
       nuclear repulsion energy      5932.8609588971 Hartrees.
 NAtoms=   81 NActive=   81 NUniq=   81 SFac= 1.00D+00 NAtFMM=   60 NAOKFM=T Big=T
 Integral buffers will be    131072 words long.
 Raffenetti 2 integral format.
 Two-electron integral symmetry is turned off.
 Nuclear repulsion after empirical dispersion term =     5932.7143876952 Hartrees.
 One-electron integrals computed using PRISM.
 NBasis=   708 RedAO= T EigKep=  3.68D-04  NBF=   708
 NBsUse=   708 1.00D-06 EigRej= -1.00D+00 NBFU=   708
 Initial guess from the checkpoint file:  "conf-472.chk"
 B after Tr=     0.000000    0.000000    0.000000
         Rot=    1.000000    0.000000    0.000000    0.000000 Ang=   0.00 deg.
 Requested convergence on RMS density matrix=1.00D-08 within 128 cycles.
 Requested convergence on MAX density matrix=1.00D-06.
 Requested convergence on             energy=1.00D-06.
 No special actions if energy rises.
 SCF Done:  E(RB3LYP) =  -2053.99769918     A.U. after    3 cycles
            NFock=  3  Conv=0.78D-09     -V/T= 2.0092

 **********************************************************************

            Population analysis using the SCF Density.

 **********************************************************************

 Alpha  occ. eigenvalues --  -19.32385 -19.28977 -19.27300 -19.26314 -19.24575
 Alpha  occ. eigenvalues --  -19.23113 -19.22667 -19.22424 -14.60163 -14.51202
 Alpha  occ. eigenvalues --  -14.48819 -14.48670 -14.46773 -14.46668 -14.44138
 Alpha  occ. eigenvalues --  -14.40090 -10.45400 -10.42720 -10.41955 -10.40476
 Alpha  occ. eigenvalues --  -10.40043 -10.39904 -10.39340 -10.37041 -10.35625
 Alpha  occ. eigenvalues --  -10.35346 -10.35147 -10.34949 -10.34879 -10.34751
 Alpha  occ. eigenvalues --  -10.34419 -10.33386 -10.32457 -10.32288 -10.32108
 Alpha  occ. eigenvalues --  -10.31771 -10.31473 -10.31334 -10.30981 -10.30698
 Alpha  occ. eigenvalues --  -10.30431 -10.27228  -1.23117  -1.19640  -1.17167
 Alpha  occ. eigenvalues --   -1.15152  -1.14918  -1.14286  -1.14052  -1.13393
 Alpha  occ. eigenvalues --   -1.11619  -1.10759  -1.08704  -1.05563  -1.03628
 Alpha  occ. eigenvalues --   -1.03164  -1.00313  -0.96448  -0.95300  -0.95123
 Alpha  occ. eigenvalues --   -0.93392  -0.92286  -0.89104  -0.88195  -0.87502
 Alpha  occ. eigenvalues --   -0.86037  -0.85518  -0.84444  -0.81762  -0.80260
 Alpha  occ. eigenvalues --   -0.79583  -0.78921  -0.75852  -0.74641  -0.74187
 Alpha  occ. eigenvalues --   -0.73591  -0.72859  -0.72273  -0.71824  -0.71601
 Alpha  occ. eigenvalues --   -0.71380  -0.70035  -0.68944  -0.68768  -0.68337
 Alpha  occ. eigenvalues --   -0.66508  -0.66121  -0.66090  -0.64255  -0.63720
 Alpha  occ. eigenvalues --   -0.63151  -0.62533  -0.61934  -0.61479  -0.61109
 Alpha  occ. eigenvalues --   -0.60620  -0.59946  -0.59733  -0.59572  -0.59040
 Alpha  occ. eigenvalues --   -0.58923  -0.58405  -0.57928  -0.57482  -0.57117
 Alpha  occ. eigenvalues --   -0.56354  -0.56204  -0.55837  -0.55458  -0.55146
 Alpha  occ. eigenvalues --   -0.54902  -0.54528  -0.54300  -0.54269  -0.53799
 Alpha  occ. eigenvalues --   -0.53704  -0.53527  -0.52979  -0.52530  -0.51928
 Alpha  occ. eigenvalues --   -0.51764  -0.51246  -0.50760  -0.50416  -0.50243
 Alpha  occ. eigenvalues --   -0.49868  -0.49633  -0.49137  -0.48907  -0.48470
 Alpha  occ. eigenvalues --   -0.47723  -0.47491  -0.47464  -0.47048  -0.46591
 Alpha  occ. eigenvalues --   -0.46478  -0.46460  -0.45826  -0.45504  -0.45400
 Alpha  occ. eigenvalues --   -0.43891  -0.41209  -0.40527  -0.40454  -0.39130
 Alpha  occ. eigenvalues --   -0.38874  -0.38620  -0.37898  -0.37530  -0.36978
 Alpha  occ. eigenvalues --   -0.36663  -0.36259  -0.35790  -0.35519  -0.35263
 Alpha  occ. eigenvalues --   -0.34762  -0.33318
 Alpha virt. eigenvalues --   -0.14409  -0.13958  -0.12690  -0.11245  -0.10605
 Alpha virt. eigenvalues --   -0.09922  -0.09183  -0.08860  -0.07806  -0.06958
 Alpha virt. eigenvalues --   -0.05477  -0.05171  -0.04307  -0.03608  -0.03069
 Alpha virt. eigenvalues --   -0.02538  -0.02022  -0.01801  -0.01412  -0.01067
 Alpha virt. eigenvalues --   -0.00741  -0.00172  -0.00120   0.00197   0.00269
 Alpha virt. eigenvalues --    0.00926   0.01052   0.01729   0.02010   0.02558
 Alpha virt. eigenvalues --    0.02983   0.03858   0.03948   0.04242   0.04497
 Alpha virt. eigenvalues --    0.04757   0.05231   0.05757   0.05966   0.06481
 Alpha virt. eigenvalues --    0.06806   0.07035   0.07042   0.07435   0.07991
 Alpha virt. eigenvalues --    0.08241   0.08547   0.08699   0.09045   0.09357
 Alpha virt. eigenvalues --    0.09670   0.09925   0.10426   0.10522   0.10982
 Alpha virt. eigenvalues --    0.11247   0.11726   0.12087   0.12310   0.12734
 Alpha virt. eigenvalues --    0.13239   0.13774   0.14069   0.14298   0.14915
 Alpha virt. eigenvalues --    0.15228   0.15853   0.16404   0.16974   0.17477
 Alpha virt. eigenvalues --    0.18214   0.19448   0.20034   0.20211   0.20698
 Alpha virt. eigenvalues --    0.21457   0.22229   0.22922   0.23475   0.24456
 Alpha virt. eigenvalues --    0.25209   0.26519   0.26750   0.26902   0.28594
 Alpha virt. eigenvalues --    0.29227   0.29645   0.31264   0.31614   0.33317
 Alpha virt. eigenvalues --    0.34833   0.35788   0.36512   0.36906   0.37354
 Alpha virt. eigenvalues --    0.38170   0.38462   0.39967   0.40224   0.40866
 Alpha virt. eigenvalues --    0.41748   0.42022   0.42333   0.43009   0.43563
 Alpha virt. eigenvalues --    0.43701   0.44101   0.44287   0.45045   0.45334
 Alpha virt. eigenvalues --    0.45667   0.46218   0.46469   0.47030   0.47613
 Alpha virt. eigenvalues --    0.47750   0.48062   0.48539   0.48889   0.49430
 Alpha virt. eigenvalues --    0.49905   0.49930   0.50409   0.50700   0.51432
 Alpha virt. eigenvalues --    0.52126   0.52161   0.52818   0.53166   0.53410
 Alpha virt. eigenvalues --    0.53904   0.54014   0.54188   0.54594   0.55175
 Alpha virt. eigenvalues --    0.55273   0.55896   0.56634   0.57197   0.57600
 Alpha virt. eigenvalues --    0.58045   0.58319   0.58362   0.59066   0.59132
 Alpha virt. eigenvalues --    0.59817   0.60039   0.60536   0.61001   0.61293
 Alpha virt. eigenvalues --    0.61753   0.62587   0.62965   0.63166   0.63598
 Alpha virt. eigenvalues --    0.64107   0.64523   0.65351   0.66051   0.66933
 Alpha virt. eigenvalues --    0.67018   0.67430   0.68108   0.68639   0.68963
 Alpha virt. eigenvalues --    0.69291   0.70041   0.70587   0.70666   0.71182
 Alpha virt. eigenvalues --    0.71433   0.71602   0.72033   0.72609   0.73037
 Alpha virt. eigenvalues --    0.73562   0.74060   0.74159   0.74425   0.74664
 Alpha virt. eigenvalues --    0.74751   0.75283   0.75384   0.75846   0.76250
 Alpha virt. eigenvalues --    0.76482   0.76659   0.77489   0.77704   0.78313
 Alpha virt. eigenvalues --    0.78984   0.79122   0.79351   0.79712   0.80269
 Alpha virt. eigenvalues --    0.80732   0.80786   0.81340   0.81846   0.81981
 Alpha virt. eigenvalues --    0.82316   0.82805   0.83330   0.83575   0.83834
 Alpha virt. eigenvalues --    0.84427   0.84901   0.85446   0.85885   0.86084
 Alpha virt. eigenvalues --    0.87099   0.87260   0.87339   0.87883   0.88513
 Alpha virt. eigenvalues --    0.89222   0.89808   0.90485   0.91091   0.91333
 Alpha virt. eigenvalues --    0.91924   0.92321   0.93004   0.93309   0.93626
 Alpha virt. eigenvalues --    0.94622   0.94760   0.95303   0.96083   0.96251
 Alpha virt. eigenvalues --    0.97085   0.97638   0.98102   0.98839   1.00052
 Alpha virt. eigenvalues --    1.00272   1.01130   1.01236   1.02374   1.02924
 Alpha virt. eigenvalues --    1.03782   1.03960   1.04376   1.04636   1.05913
 Alpha virt. eigenvalues --    1.06184   1.06981   1.07495   1.07785   1.08315
 Alpha virt. eigenvalues --    1.08814   1.09017   1.10585   1.10991   1.12423
 Alpha virt. eigenvalues --    1.12748   1.13908   1.14492   1.15101   1.16486
 Alpha virt. eigenvalues --    1.16792   1.17720   1.18305   1.18639   1.19494
 Alpha virt. eigenvalues --    1.20282   1.21111   1.22145   1.23265   1.23674
 Alpha virt. eigenvalues --    1.24807   1.25754   1.26056   1.26922   1.27937
 Alpha virt. eigenvalues --    1.28477   1.28816   1.29069   1.29402   1.30335
 Alpha virt. eigenvalues --    1.30828   1.31338   1.32066   1.32841   1.32968
 Alpha virt. eigenvalues --    1.33431   1.34276   1.35529   1.36751   1.37590
 Alpha virt. eigenvalues --    1.38265   1.38405   1.39198   1.39771   1.40164
 Alpha virt. eigenvalues --    1.40991   1.42414   1.43019   1.43339   1.44279
 Alpha virt. eigenvalues --    1.45241   1.46566   1.47606   1.47945   1.48437
 Alpha virt. eigenvalues --    1.48810   1.50385   1.50989   1.52200   1.53125
 Alpha virt. eigenvalues --    1.54029   1.54771   1.55067   1.55261   1.55573
 Alpha virt. eigenvalues --    1.57068   1.57904   1.58581   1.60381   1.60846
 Alpha virt. eigenvalues --    1.61451   1.62314   1.62504   1.63242   1.63346
 Alpha virt. eigenvalues --    1.64473   1.64830   1.65389   1.65827   1.66267
 Alpha virt. eigenvalues --    1.66637   1.67364   1.67529   1.68371   1.68503
 Alpha virt. eigenvalues --    1.68601   1.69095   1.69845   1.70577   1.70988
 Alpha virt. eigenvalues --    1.71776   1.72274   1.72618   1.73108   1.73789
 Alpha virt. eigenvalues --    1.74460   1.74728   1.75401   1.75891   1.76217
 Alpha virt. eigenvalues --    1.76259   1.76761   1.77292   1.77787   1.78170
 Alpha virt. eigenvalues --    1.78782   1.79037   1.79653   1.80045   1.80801
 Alpha virt. eigenvalues --    1.81340   1.81888   1.82726   1.83230   1.84182
 Alpha virt. eigenvalues --    1.84466   1.84786   1.85462   1.85517   1.86293
 Alpha virt. eigenvalues --    1.86688   1.87137   1.88351   1.88868   1.89130
 Alpha virt. eigenvalues --    1.89910   1.90041   1.90348   1.90795   1.91898
 Alpha virt. eigenvalues --    1.91978   1.92371   1.93102   1.93920   1.94942
 Alpha virt. eigenvalues --    1.95199   1.95930   1.96764   1.96999   1.98103
 Alpha virt. eigenvalues --    1.98713   1.99060   1.99275   1.99821   2.00555
 Alpha virt. eigenvalues --    2.01821   2.03063   2.03146   2.03803   2.05343
 Alpha virt. eigenvalues --    2.05985   2.06147   2.07754   2.08388   2.09147
 Alpha virt. eigenvalues --    2.10150   2.11046   2.11397   2.12529   2.12822
 Alpha virt. eigenvalues --    2.13204   2.14101   2.14609   2.15519   2.16644
 Alpha virt. eigenvalues --    2.17617   2.17853   2.18227   2.18310   2.19225
 Alpha virt. eigenvalues --    2.21012   2.22300   2.22632   2.23476   2.24945
 Alpha virt. eigenvalues --    2.25320   2.25644   2.27343   2.28395   2.29154
 Alpha virt. eigenvalues --    2.29469   2.30744   2.31462   2.31699   2.33069
 Alpha virt. eigenvalues --    2.33414   2.33880   2.34522   2.35261   2.36178
 Alpha virt. eigenvalues --    2.36737   2.37487   2.38708   2.39116   2.39781
 Alpha virt. eigenvalues --    2.40293   2.40651   2.41378   2.41914   2.43750
 Alpha virt. eigenvalues --    2.43859   2.44334   2.46200   2.46514   2.46873
 Alpha virt. eigenvalues --    2.49400   2.50482   2.51154   2.51686   2.52422
 Alpha virt. eigenvalues --    2.52632   2.52704   2.53239   2.54359   2.55012
 Alpha virt. eigenvalues --    2.56074   2.56497   2.56691   2.57979   2.58341
 Alpha virt. eigenvalues --    2.58747   2.58918   2.59655   2.60865   2.61487
 Alpha virt. eigenvalues --    2.61759   2.63468   2.64808   2.65713   2.66149
 Alpha virt. eigenvalues --    2.67041   2.67160   2.70510   2.70813   2.73625
 Alpha virt. eigenvalues --    2.74632   2.75135   2.80285   2.80448   2.83205
 Alpha virt. eigenvalues --    2.85173   2.86449   2.87889   2.88203   2.88392
 Alpha virt. eigenvalues --    2.90032   2.90849   2.91303   2.92711   2.93357
 Alpha virt. eigenvalues --    2.95101   2.96419   2.97492   2.99174   3.00561
 Alpha virt. eigenvalues --    3.04468   3.09010   3.11767   3.31369   3.72050
 Alpha virt. eigenvalues --    3.75722   3.76147   3.81121   3.84245   3.85091
 Alpha virt. eigenvalues --    3.88769   3.91589   3.92887   3.96788   3.98861
 Alpha virt. eigenvalues --    3.99495   4.01012   4.01854   4.05394   4.07139
 Alpha virt. eigenvalues --    4.08320   4.11173   4.12154   4.12992   4.15202
 Alpha virt. eigenvalues --    4.16956   4.22490   4.23230   4.24269   4.26188
 Alpha virt. eigenvalues --    4.27904   4.29288   4.29665   4.31812   4.35763
 Alpha virt. eigenvalues --    4.38773   4.41487   4.44919   4.48040   4.49275
 Alpha virt. eigenvalues --    4.53168   4.55906   4.61214   4.65337   4.67691
 Alpha virt. eigenvalues --    4.70162
          Condensed to atoms (all electrons):
 Mulliken charges:
               1
     1  N   -0.805747
     2  C   -0.115586
     3  C    0.577965
     4  O   -0.469885
     5  C   -0.341159
     6  C   -0.350349
     7  C    0.583810
     8  O   -0.443243
     9  O   -0.669136
    10  H    0.474807
    11  H    0.414310
    12  H    0.226366
    13  H    0.216888
    14  H    0.228452
    15  H    0.188225
    16  H    0.224875
    17  H    0.424666
    18  H    0.445513
    19  N   -0.554428
    20  C   -0.091614
    21  C    0.629733
    22  O   -0.481257
    23  C   -0.360168
    24  C    0.051291
    25  C   -0.065005
    26  C    0.066888
    27  C    0.286044
    28  C   -0.239529
    29  N   -0.692358
    30  C   -0.162441
    31  C   -0.179666
    32  C   -0.148539
    33  H    0.370832
    34  H    0.108539
    35  H    0.189492
    36  H    0.194367
    37  H    0.202905
    38  H    0.357117
    39  H    0.180876
    40  H    0.156618
    41  H    0.170401
    42  H    0.164426
    43  N   -0.583789
    44  C   -0.108615
    45  C    0.581198
    46  O   -0.496101
    47  C    0.146545
    48  C   -0.513633
    49  O   -0.655971
    50  H    0.427481
    51  H    0.357302
    52  H    0.165278
    53  H    0.161347
    54  H    0.174291
    55  H    0.212005
    56  H    0.168596
    57  N   -0.584485
    58  C   -0.059253
    59  C    0.622898
    60  O   -0.433972
    61  C   -0.376616
    62  C   -0.286996
    63  C   -0.149103
    64  N   -0.690790
    65  C    0.587332
    66  N   -0.593040
    67  N   -0.735123
    68  O   -0.598953
    69  H    0.428834
    70  H    0.371790
    71  H    0.200092
    72  H    0.176189
    73  H    0.119032
    74  H    0.119619
    75  H    0.175245
    76  H    0.180514
    77  H    0.171635
    78  H    0.360599
    79  H    0.301702
    80  H    0.330259
    81  H    0.361360
 Sum of Mulliken charges =   1.00000
 Mulliken charges with hydrogens summed into heavy atoms:
               1
     1  N    0.478743
     2  C    0.110781
     3  C    0.577965
     4  O   -0.469885
     5  C    0.104181
     6  C    0.062751
     7  C    0.583810
     8  O   -0.443243
     9  O   -0.194329
    19  N   -0.183597
    20  C    0.016925
    21  C    0.629733
    22  O   -0.481257
    23  C    0.023691
    24  C    0.051291
    25  C    0.137900
    26  C    0.066888
    27  C    0.286044
    28  C   -0.058652
    29  N   -0.335241
    30  C   -0.005823
    31  C   -0.009265
    32  C    0.015887
    43  N   -0.226487
    44  C    0.056663
    45  C    0.581198
    46  O   -0.496101
    47  C    0.307892
    48  C    0.041260
    49  O   -0.228490
    57  N   -0.212695
    58  C    0.140840
    59  C    0.622898
    60  O   -0.433972
    61  C   -0.081395
    62  C    0.007869
    63  C    0.203045
    64  N   -0.330191
    65  C    0.587332
    66  N   -0.291338
    67  N   -0.043503
    68  O   -0.170120
 Electronic spatial extent (au):  <R**2>=        1392943.0465
 Charge=              1.0000 electrons
 Dipole moment (field-independent basis, Debye):
    X=             47.3093    Y=            148.1483    Z=             46.2210  Tot=            162.2420
 Quadrupole moment (field-independent basis, Debye-Ang):
   XX=            214.8379   YY=           4352.7947   ZZ=            223.4997
   XY=           1466.4660   XZ=            459.0899   YZ=           1410.4477
 Traceless Quadrupole moment (field-independent basis, Debye-Ang):
   XX=          -1382.2062   YY=           2755.7506   ZZ=          -1373.5444
   XY=           1466.4660   XZ=            459.0899   YZ=           1410.4477
 Octapole moment (field-independent basis, Debye-Ang**2):
  XXX=          -2895.8912  YYY=         120590.1137  ZZZ=          -3573.3469  XYY=          43369.3966
  XXY=           6592.9048  XXZ=           1494.5242  XZZ=           2275.5575  YZZ=           6345.3544
  YYZ=          40358.2926  XYZ=          14119.4633
 Hexadecapole moment (field-independent basis, Debye-Ang**3):
 XXXX=        -112924.0250 YYYY=        3065695.9849 ZZZZ=        -150246.9538 XXXY=         -91475.7226
 XXXZ=         -45699.1452 YYYX=        1213796.4745 YYYZ=        1061351.6910 ZZZX=         -34143.0658
 ZZZY=        -123257.3185 XXYY=         179532.6532 XXZZ=         -16930.8481 YYZZ=         143508.4771
 XXYZ=          44559.3413 YYXZ=         408459.7856 ZZXY=          66622.8964
 N-N= 5.932714387695D+03 E-N=-1.661645382475D+04  KE= 2.035222070177D+03
 Unable to Open any file for archive entry.
 1\1\GINC-LAC-308\SP\RB3LYP\6-31G(d)\C26H39N8O8(1+)\KENGMITH\27-May-202
 2\0\\# B3LYP/6-31G* empiricaldispersion=gd3 guess=read geom=check nosy
 mm integral(ultrafinegrid)\\Candidate Structure: Conf:472 Charge calc 
 in gas phase\\1,1\N,0,11.3276233101,31.647064627,9.6452238286\C,0,12.6
 293460188,32.3083134407,10.0883856635\C,0,13.7138119284,31.2598237544,
 10.4565537919\O,0,14.6491667402,31.124264455,9.6814296878\C,0,12.44100
 36785,33.3922475847,11.1612410809\C,0,11.7634682623,34.7059629602,10.7
 006742981\C,0,10.2525015247,34.644522535,10.696098008\O,0,9.5346083487
 ,35.1384724716,11.5361304692\O,0,9.7446076164,33.9282670537,9.65005124
 36\H,0,8.7187773903,33.8861120383,9.7585963356\H,0,11.4817103564,31.05
 28933431,8.8225397491\H,0,13.0156211128,32.7676835106,9.1765783476\H,0
 ,11.9537504481,33.0208923556,12.0666334228\H,0,13.4587242456,33.647197
 4715,11.4757335681\H,0,12.1211733813,34.9927035649,9.7047197136\H,0,12
 .035438953,35.4940333967,11.4053253694\H,0,10.9403869555,31.0159908784
 ,10.3573661229\H,0,10.6238652359,32.3890262042,9.4315713518\N,0,13.656
 3858689,30.6413521318,11.6664880893\C,0,12.5166218415,30.3242407129,12
 .5064413505\C,0,12.877815342,30.6046301943,13.9781025826\O,0,14.044813
 6362,30.6322547121,14.3279240972\C,0,12.1050748305,28.8317565335,12.32
 70151752\C,0,11.4084463927,28.5864438815,11.0233241182\C,0,11.96018596
 2,28.5709840385,9.7626667538\C,0,9.9869784196,28.3678229105,10.8562205
 041\C,0,9.740975175,28.2525361947,9.462307222\C,0,8.9181537385,28.1974
 934693,11.7599363304\N,0,10.9543142196,28.4350632264,8.8098553819\C,0,
 8.4679216031,27.9775089198,8.947359328\C,0,7.6559585592,27.9110431975,
 11.2516126199\C,0,7.4340115788,27.8028005902,9.8593038829\H,0,14.51935
 05871,30.1747604137,11.9332282498\H,0,11.6809682243,30.9617493595,12.2
 183419194\H,0,11.4547789495,28.5336270422,13.1551694069\H,0,13.0144548
 135,28.2284795361,12.4246722664\H,0,12.9950997877,28.6574385194,9.4582
 968238\H,0,11.1276065263,28.1261241761,7.8623002644\H,0,9.0679505702,2
 8.2663647593,12.8342718436\H,0,8.2993245945,27.8756046765,7.8791776734
 \H,0,6.8291815182,27.7373541372,11.9355103202\H,0,6.4389645597,27.5637
 624798,9.4966561324\N,0,11.8227983217,30.7039690606,14.8443669115\C,0,
 10.4365104953,30.9540107501,14.4797113465\C,0,10.23545425,32.467752999
 6,14.1995141312\O,0,11.1660635693,33.2342048258,14.4297102553\C,0,9.49
 73645584,30.3468396002,15.5570199231\C,0,9.0919195488,31.3080076679,16
 .6690428557\O,0,8.3778148069,29.8460678153,14.8181211292\H,0,7.5933961
 726,29.829109022,15.3907906994\H,0,12.1090813417,31.0400473951,15.7587
 630841\H,0,10.2100640809,30.383432082,13.5793542093\H,0,10.0471352662,
 29.4966730466,15.9839467045\H,0,8.5329607816,30.7732936498,17.44470352
 05\H,0,8.4644393161,32.1137743522,16.2796937943\H,0,9.9772291559,31.74
 60564021,17.1438151761\N,0,9.0414316766,32.9665192443,13.7422461439\C,
 0,7.9843219361,32.3911583555,12.9057451308\C,0,6.8827628078,31.6717304
 736,13.7104589728\O,0,6.4287967763,32.1392704805,14.7209718136\C,0,8.5
 580634845,31.6818751867,11.6623381926\C,0,7.6302539696,31.4271505201,1
 0.4499005391\C,0,6.5296278498,32.4533439345,10.16054932\N,0,7.02163698
 7,33.8188292775,9.8570753667\C,0,6.5436694908,34.9358037819,10.6576158
 017\N,0,5.8231495001,34.9215193494,11.7069640751\N,0,6.9515913189,36.1
 317622431,10.0916337456\O,0,6.3101375114,30.5801505956,13.1339600219\H
 ,0,6.9545556001,30.1006598828,12.5866534852\H,0,9.1075139646,33.976731
 2334,13.6590681018\H,0,7.4550389097,33.2806934904,12.5523875762\H,0,9.
 0071727225,30.724984681,11.944332325\H,0,9.375269332,32.3311459295,11.
 3535807031\H,0,8.2627049327,31.310206193,9.5584721312\H,0,7.1294716206
 ,30.4611644434,10.554813722\H,0,5.9391667051,32.0963143961,9.311152341
 7\H,0,5.841152366,32.4826054987,11.0082961761\H,0,6.8313423397,34.0570
 024275,8.8838974278\H,0,5.4127134617,34.0186152788,11.9361807395\H,0,7
 .9375798601,36.1869627982,9.8619761978\H,0,6.6590849252,36.9209204266,
 10.6586651887\\Version=ES64L-G16RevC.01\HF=-2053.9976992\RMSD=7.837e-1
 0\Dipole=0.0489831,-1.1283187,-4.249111\Quadrupole=-1027.6364222,2048.
 8330368,-1021.1966147,1090.2815034,341.3221168,1048.6333056\PG=C01 [X(
 C26H39N8O8)]\\@
 The archive entry for this job was punched.


 MICRO CREDO - NEVER TRUST A COMPUTER BIGGER
               BIGGER THAN YOU CAN LIFT.
 Job cpu time:       0 days  0 hours  7 minutes 44.6 seconds.
 Elapsed time:       0 days  0 hours  1 minutes 57.4 seconds.
 File lengths (MBytes):  RWF=    376 Int=      0 D2E=      0 Chk=     56 Scr=     16
 Normal termination of Gaussian 16 at Fri May 27 05:14:56 2022.
