 Entering Gaussian System, Link 0=/opt/software/Gaussian/g16-AVX2-C.01/g16/g16
 Input=charge-conf-472.com
 Output=charge-conf-472.log
 Initial command:
 /opt/software/Gaussian/g16-AVX2-C.01/g16/l1.exe "/mnt/gs18/scratch/users/kengmith/Gau-56872.inp" -scrdir="/mnt/gs18/scratch/users/kengmith/"
 Entering Link 1 = /opt/software/Gaussian/g16-AVX2-C.01/g16/l1.exe PID=     56890.
  
 Copyright (c) 1988-2019, Gaussian, Inc.  All Rights Reserved.
  
 This is part of the Gaussian(R) 16 program.  It is based on
 the Gaussian(R) 09 system (copyright 2009, Gaussian, Inc.),
 the Gaussian(R) 03 system (copyright 2003, Gaussian, Inc.),
 the Gaussian(R) 98 system (copyright 1998, Gaussian, Inc.),
 the Gaussian(R) 94 system (copyright 1995, Gaussian, Inc.),
 the Gaussian 92(TM) system (copyright 1992, Gaussian, Inc.),
 the Gaussian 90(TM) system (copyright 1990, Gaussian, Inc.),
 the Gaussian 88(TM) system (copyright 1988, Gaussian, Inc.),
 the Gaussian 86(TM) system (copyright 1986, Carnegie Mellon
 University), and the Gaussian 82(TM) system (copyright 1983,
 Carnegie Mellon University). Gaussian is a federally registered
 trademark of Gaussian, Inc.
  
 This software contains proprietary and confidential information,
 including trade secrets, belonging to Gaussian, Inc.
  
 This software is provided under written license and may be
 used, copied, transmitted, or stored only in accord with that
 written license.
  
 The following legend is applicable only to US Government
 contracts under FAR:
  
                    RESTRICTED RIGHTS LEGEND
  
 Use, reproduction and disclosure by the US Government is
 subject to restrictions as set forth in subparagraphs (a)
 and (c) of the Commercial Computer Software - Restricted
 Rights clause in FAR 52.227-19.
  
 Gaussian, Inc.
 340 Quinnipiac St., Bldg. 40, Wallingford CT 06492
  
  
 ---------------------------------------------------------------
 Warning -- This program may not be used in any manner that
 competes with the business of Gaussian, Inc. or will provide
 assistance to any competitor of Gaussian, Inc.  The licensee
 of this program is prohibited from giving any competitor of
 Gaussian, Inc. access to this program.  By using this program,
 the user acknowledges that Gaussian, Inc. is engaged in the
 business of creating and licensing software in the field of
 computational chemistry and represents and warrants to the
 licensee that it is not a competitor of Gaussian, Inc. and that
 it will not use this program in any manner prohibited above.
 ---------------------------------------------------------------
  

 Cite this work as:
 Gaussian 16, Revision C.01,
 M. J. Frisch, G. W. Trucks, H. B. Schlegel, G. E. Scuseria, 
 M. A. Robb, J. R. Cheeseman, G. Scalmani, V. Barone, 
 G. A. Petersson, H. Nakatsuji, X. Li, M. Caricato, A. V. Marenich, 
 J. Bloino, B. G. Janesko, R. Gomperts, B. Mennucci, H. P. Hratchian, 
 J. V. Ortiz, A. F. Izmaylov, J. L. Sonnenberg, D. Williams-Young, 
 F. Ding, F. Lipparini, F. Egidi, J. Goings, B. Peng, A. Petrone, 
 T. Henderson, D. Ranasinghe, V. G. Zakrzewski, J. Gao, N. Rega, 
 G. Zheng, W. Liang, M. Hada, M. Ehara, K. Toyota, R. Fukuda, 
 J. Hasegawa, M. Ishida, T. Nakajima, Y. Honda, O. Kitao, H. Nakai, 
 T. Vreven, K. Throssell, J. A. Montgomery, Jr., J. E. Peralta, 
 F. Ogliaro, M. J. Bearpark, J. J. Heyd, E. N. Brothers, K. N. Kudin, 
 V. N. Staroverov, T. A. Keith, R. Kobayashi, J. Normand, 
 K. Raghavachari, A. P. Rendell, J. C. Burant, S. S. Iyengar, 
 J. Tomasi, M. Cossi, J. M. Millam, M. Klene, C. Adamo, R. Cammi, 
 J. W. Ochterski, R. L. Martin, K. Morokuma, O. Farkas, 
 J. B. Foresman, and D. J. Fox, Gaussian, Inc., Wallingford CT, 2019.
 
 ******************************************
 Gaussian 16:  ES64L-G16RevC.01  3-Jul-2019
                24-May-2022 
 ******************************************
 %mem=8gb
 %nproc=4
 Will use up to    4 processors via shared memory.
 %chk=conf-472.chk
 ----------------------------------------------------------------------
 # B3LYP/6-31G* empiricaldispersion=gd3 guess=read geom=check nosymm in
 tegral(ultrafinegrid)
 ----------------------------------------------------------------------
 1/29=2,38=1,172=1/1;
 2/12=2,15=1,40=1/2;
 3/5=1,6=6,7=1,11=2,14=-4,25=1,30=1,74=-5,75=-5,116=-2,124=31/1,2,3;
 4/5=1/1;
 5/5=2,38=6/2;
 6/7=2,8=2,9=2,10=2,28=1/1;
 99/5=1,9=1/99;
 ------------------------------------------------------
 Candidate Structure: Conf:472 Charge calc in gas phase
 ------------------------------------------------------
 Structure from the checkpoint file:  "conf-472.chk"
 Charge =  1 Multiplicity = 1
 Redundant internal coordinates found in file.  (old form).
 N,0,-6.4965688718,-87.13785689,129.6690248292
 C,0,-5.3170389171,-87.3240982416,128.7333916502
 C,0,-4.4095738393,-88.4648210868,129.2216874201
 O,0,-4.8379681521,-89.6094899585,129.2924777389
 C,0,-5.8337438084,-87.6265674891,127.3170492517
 C,0,-6.9283138364,-86.6580850192,126.794949544
 C,0,-6.4971692056,-85.2366290824,127.1053227262
 O,0,-6.5740443249,-84.8031143306,128.2666156643
 O,0,-5.9336259115,-84.6171050828,126.1090555318
 H,0,-5.2673011693,-83.8411898786,126.4169494475
 H,0,-6.927926089,-86.224080757,129.3663344779
 H,0,-4.8055491332,-86.3612334446,128.7634503047
 H,0,-6.1983972175,-88.6589339135,127.2950616506
 H,0,-4.9617714996,-87.5830246946,126.655254959
 H,0,-7.8902454875,-86.8571913903,127.2796473611
 H,0,-7.0568954276,-86.8068468852,125.7213633854
 H,0,-7.1528781823,-87.9236150066,129.5994970515
 H,0,-6.2034025141,-87.0642146051,130.6487960708
 N,0,-3.1471406776,-88.0475605453,129.4471908049
 C,0,-1.9665361163,-88.9187996562,129.608823345
 C,0,-0.7818127849,-87.9602004007,129.32781798
 O,0,0.0666242653,-87.6783344499,130.1530192826
 C,0,-1.8753150566,-89.5988410359,130.9855294871
 C,0,-0.9098835212,-90.7641508195,130.9673567091
 C,0,-1.3466118965,-92.0257216981,130.5342239388
 C,0,0.43125783,-90.6156816452,131.3361531524
 C,0,-0.4788526163,-93.1101328256,130.4729659891
 C,0,1.3118827608,-91.695415754,131.2840608513
 C,0,0.8596643815,-92.9474328863,130.8519156867
 O,0,1.664998693,-94.0447703222,130.7757618957
 H,0,-2.9680099076,-87.0496715854,129.4955651946
 H,0,-2.0275712705,-89.6927399597,128.83376936
 H,0,-1.5816313533,-88.8503585511,131.727608011
 H,0,-2.8817751116,-89.9519355073,131.233740853
 H,0,-2.3878674329,-92.1619130789,130.2475805407
 H,0,0.7929622771,-89.6431603941,131.6542432875
 H,0,-0.8155621643,-94.088738555,130.1466984333
 H,0,2.3510354293,-91.5650497615,131.5797596616
 H,0,2.5566641517,-93.8155039075,131.0810906859
 N,0,-0.8613470176,-87.3337950635,128.1014409641
 C,0,-0.265696622,-86.0277321553,127.8939288769
 C,0,-0.9216282665,-84.9066348741,128.7185910107
 O,0,-0.5824344865,-83.750529251,128.6713531515
 C,0,-0.2116380789,-85.6299112248,126.4016608164
 C,0,-1.5222012838,-85.8026428736,125.6059579699
 C,0,-2.7886129534,-85.12841499,126.1663771702
 C,0,-2.7795126101,-83.5960107908,126.1005240999
 N,0,-3.9897107032,-83.03569248,126.7681704998
 O,0,-1.9485615978,-85.3109623151,129.5378578256
 H,0,-2.1684286211,-84.5342305188,130.087654516
 H,0,-1.6479201332,-87.5729273258,127.5141862889
 H,0,0.7591282286,-86.0640723985,128.2786301419
 H,0,0.1353158354,-84.5934011433,126.3608412613
 H,0,0.5601957046,-86.2410480636,125.9231058443
 H,0,-1.7300938015,-86.8746421305,125.4838002746
 H,0,-1.3436209569,-85.4356136102,124.5875704893
 H,0,-3.6564396527,-85.4890832335,125.6040735663
 H,0,-2.9527825175,-85.4402714966,127.2083200156
 H,0,-1.8684812751,-83.1875147668,126.5510288744
 H,0,-2.8061906426,-83.2786792575,125.0533374485
 H,0,-4.0861044444,-82.0439218281,126.5485867143
 H,0,-3.8803051257,-83.0867998626,127.7818620146
 Recover connectivity data from disk.
                           ----------------------------
                           !    Current Parameters    !
                           ! (Angstroms and Degrees)  !
 --------------------------                            --------------------------
 ! Name  Definition              Value                                          !
 --------------------------------------------------------------------------------
 ! R1    R(1,2)                  1.517                                          !
 ! R2    R(1,11)                 1.0548                                         !
 ! R3    R(1,17)                 1.0262                                         !
 ! R4    R(1,18)                 1.0253                                         !
 ! R5    R(2,3)                  1.5373                                         !
 ! R6    R(2,5)                  1.5377                                         !
 ! R7    R(2,12)                 1.0907                                         !
 ! R8    R(3,4)                  1.2243                                         !
 ! R9    R(3,19)                 1.3486                                         !
 ! R10   R(5,6)                  1.552                                          !
 ! R11   R(5,13)                 1.0951                                         !
 ! R12   R(5,14)                 1.0955                                         !
 ! R13   R(6,7)                  1.5175                                         !
 ! R14   R(6,15)                 1.0954                                         !
 ! R15   R(6,16)                 1.0914                                         !
 ! R16   R(7,8)                  1.242                                          !
 ! R17   R(7,9)                  1.3015                                         !
 ! R18   R(9,10)                 1.0681                                         !
 ! R19   R(19,20)                1.4761                                         !
 ! R20   R(19,31)                1.015                                          !
 ! R21   R(20,21)                1.5497                                         !
 ! R22   R(20,23)                1.5382                                         !
 ! R23   R(20,32)                1.097                                          !
 ! R24   R(21,22)                1.2167                                         !
 ! R25   R(21,40)                1.3794                                         !
 ! R26   R(23,24)                1.5134                                         !
 ! R27   R(23,33)                1.0941                                         !
 ! R28   R(23,34)                1.0951                                         !
 ! R29   R(24,25)                1.4035                                         !
 ! R30   R(24,26)                1.3988                                         !
 ! R31   R(25,27)                1.3902                                         !
 ! R32   R(25,35)                1.0885                                         !
 ! R33   R(26,28)                1.3943                                         !
 ! R34   R(26,36)                1.0853                                         !
 ! R35   R(27,29)                1.4006                                         !
 ! R36   R(27,37)                1.0851                                         !
 ! R37   R(28,29)                1.3996                                         !
 ! R38   R(28,38)                1.0882                                         !
 ! R39   R(29,30)                1.3633                                         !
 ! R40   R(30,39)                0.97                                           !
 ! R41   R(40,41)                1.4504                                         !
 ! R42   R(40,51)                1.0103                                         !
 ! R43   R(41,42)                1.5386                                         !
 ! R44   R(41,44)                1.5453                                         !
 ! R45   R(41,52)                1.0953                                         !
 ! R46   R(42,43)                1.2058                                         !
 ! R47   R(42,49)                1.3745                                         !
 ! R48   R(44,45)                1.5429                                         !
 ! R49   R(44,53)                1.0938                                         !
 ! R50   R(44,54)                1.0946                                         !
 ! R51   R(45,46)                1.5403                                         !
 ! R52   R(45,55)                1.0988                                         !
 ! R53   R(45,56)                1.0971                                         !
 ! R54   R(46,47)                1.5338                                         !
 ! R55   R(46,57)                1.0952                                         !
 ! R56   R(46,58)                1.0999                                         !
 ! R57   R(47,48)                1.4914                                         !
 ! R58   R(47,59)                1.0954                                         !
 ! R59   R(47,60)                1.0945                                         !
 ! R60   R(48,61)                1.0204                                         !
 ! R61   R(48,62)                1.0209                                         !
 ! R62   R(49,50)                0.9767                                         !
 ! A1    A(2,1,11)             104.3193                                         !
 ! A2    A(2,1,17)             111.1921                                         !
 ! A3    A(2,1,18)             112.0768                                         !
 ! A4    A(11,1,17)            112.4789                                         !
 ! A5    A(11,1,18)            109.2025                                         !
 ! A6    A(17,1,18)            107.6145                                         !
 ! A7    A(1,2,3)              110.743                                          !
 ! A8    A(1,2,5)              109.3271                                         !
 ! A9    A(1,2,12)             103.8422                                         !
 ! A10   A(3,2,5)              110.18                                           !
 ! A11   A(3,2,12)             111.6843                                         !
 ! A12   A(5,2,12)             110.8923                                         !
 ! A13   A(2,3,4)              120.372                                          !
 ! A14   A(2,3,19)             112.0935                                         !
 ! A15   A(4,3,19)             127.3866                                         !
 ! A16   A(2,5,6)              115.0939                                         !
 ! A17   A(2,5,13)             108.4104                                         !
 ! A18   A(2,5,14)             106.3281                                         !
 ! A19   A(6,5,13)             110.2846                                         !
 ! A20   A(6,5,14)             109.4709                                         !
 ! A21   A(13,5,14)            106.8804                                         !
 ! A22   A(5,6,7)              108.3822                                         !
 ! A23   A(5,6,15)             110.9197                                         !
 ! A24   A(5,6,16)             109.2044                                         !
 ! A25   A(7,6,15)             109.2241                                         !
 ! A26   A(7,6,16)             111.2433                                         !
 ! A27   A(15,6,16)            107.8796                                         !
 ! A28   A(6,7,8)              120.0418                                         !
 ! A29   A(6,7,9)              114.3519                                         !
 ! A30   A(8,7,9)              125.1979                                         !
 ! A31   A(7,9,10)             113.2817                                         !
 ! A32   A(3,19,20)            125.7597                                         !
 ! A33   A(3,19,31)            118.5138                                         !
 ! A34   A(20,19,31)           115.7151                                         !
 ! A35   A(19,20,21)           103.0905                                         !
 ! A36   A(19,20,23)           113.9765                                         !
 ! A37   A(19,20,32)           107.1298                                         !
 ! A38   A(21,20,23)           112.9814                                         !
 ! A39   A(21,20,32)           110.5384                                         !
 ! A40   A(23,20,32)           108.8889                                         !
 ! A41   A(20,21,22)           123.6039                                         !
 ! A42   A(20,21,40)           113.4563                                         !
 ! A43   A(22,21,40)           122.5489                                         !
 ! A44   A(20,23,24)           111.5616                                         !
 ! A45   A(20,23,33)           108.6933                                         !
 ! A46   A(20,23,34)           106.9119                                         !
 ! A47   A(24,23,33)           111.325                                          !
 ! A48   A(24,23,34)           109.9221                                         !
 ! A49   A(33,23,34)           108.2722                                         !
 ! A50   A(23,24,25)           119.8232                                         !
 ! A51   A(23,24,26)           121.7847                                         !
 ! A52   A(25,24,26)           118.3657                                         !
 ! A53   A(24,25,27)           121.3662                                         !
 ! A54   A(24,25,35)           119.4306                                         !
 ! A55   A(27,25,35)           119.2012                                         !
 ! A56   A(24,26,28)           120.8976                                         !
 ! A57   A(24,26,36)           119.4674                                         !
 ! A58   A(28,26,36)           119.6299                                         !
 ! A59   A(25,27,29)           119.6029                                         !
 ! A60   A(25,27,37)           121.5354                                         !
 ! A61   A(29,27,37)           118.8587                                         !
 ! A62   A(26,28,29)           120.0142                                         !
 ! A63   A(26,28,38)           120.0121                                         !
 ! A64   A(29,28,38)           119.9736                                         !
 ! A65   A(27,29,28)           119.752                                          !
 ! A66   A(27,29,30)           117.1248                                         !
 ! A67   A(28,29,30)           123.1232                                         !
 ! A68   A(29,30,39)           109.5849                                         !
 ! A69   A(21,40,41)           120.8271                                         !
 ! A70   A(21,40,51)           117.0124                                         !
 ! A71   A(41,40,51)           116.7246                                         !
 ! A72   A(40,41,42)           113.8524                                         !
 ! A73   A(40,41,44)           112.6029                                         !
 ! A74   A(40,41,52)           107.7065                                         !
 ! A75   A(42,41,44)           110.177                                          !
 ! A76   A(42,41,52)           103.5813                                         !
 ! A77   A(44,41,52)           108.3603                                         !
 ! A78   A(41,42,43)           123.8988                                         !
 ! A79   A(41,42,49)           115.0654                                         !
 ! A80   A(43,42,49)           121.0358                                         !
 ! A81   A(41,44,45)           116.0704                                         !
 ! A82   A(41,44,53)           106.9229                                         !
 ! A83   A(41,44,54)           107.6445                                         !
 ! A84   A(45,44,53)           110.8717                                         !
 ! A85   A(45,44,54)           108.1171                                         !
 ! A86   A(53,44,54)           106.8031                                         !
 ! A87   A(44,45,46)           117.4994                                         !
 ! A88   A(44,45,55)           109.1031                                         !
 ! A89   A(44,45,56)           107.6373                                         !
 ! A90   A(46,45,55)           108.1768                                         !
 ! A91   A(46,45,56)           108.9728                                         !
 ! A92   A(55,45,56)           104.7131                                         !
 ! A93   A(45,46,47)           114.6341                                         !
 ! A94   A(45,46,57)           108.6964                                         !
 ! A95   A(45,46,58)           110.0763                                         !
 ! A96   A(47,46,57)           108.1602                                         !
 ! A97   A(47,46,58)           108.9542                                         !
 ! A98   A(57,46,58)           105.9458                                         !
 ! A99   A(46,47,48)           110.5675                                         !
 ! A100  A(46,47,59)           111.0917                                         !
 ! A101  A(46,47,60)           109.3041                                         !
 ! A102  A(48,47,59)           110.5284                                         !
 ! A103  A(48,47,60)           107.4333                                         !
 ! A104  A(59,47,60)           107.7969                                         !
 ! A105  A(47,48,61)           110.212                                          !
 ! A106  A(47,48,62)           109.8006                                         !
 ! A107  A(61,48,62)           105.8118                                         !
 ! A108  A(42,49,50)           105.6509                                         !
 ! D1    D(11,1,2,3)           168.4472                                         !
 ! D2    D(11,1,2,5)           -69.9694                                         !
 ! D3    D(11,1,2,12)           48.4313                                         !
 ! D4    D(17,1,2,3)           -70.0735                                         !
 ! D5    D(17,1,2,5)            51.5099                                         !
 ! D6    D(17,1,2,12)          169.9106                                         !
 ! D7    D(18,1,2,3)            50.4233                                         !
 ! D8    D(18,1,2,5)           172.0068                                         !
 ! D9    D(18,1,2,12)          -69.5926                                         !
 ! D10   D(1,2,3,4)             62.5423                                         !
 ! D11   D(1,2,3,19)          -121.56                                           !
 ! D12   D(5,2,3,4)            -58.538                                          !
 ! D13   D(5,2,3,19)           117.3596                                         !
 ! D14   D(12,2,3,4)           177.7505                                         !
 ! D15   D(12,2,3,19)           -6.3519                                         !
 ! D16   D(1,2,5,6)             49.2478                                         !
 ! D17   D(1,2,5,13)           -74.7627                                         !
 ! D18   D(1,2,5,14)           170.629                                          !
 ! D19   D(3,2,5,6)            171.1707                                         !
 ! D20   D(3,2,5,13)            47.1602                                         !
 ! D21   D(3,2,5,14)           -67.4481                                         !
 ! D22   D(12,2,5,6)           -64.6593                                         !
 ! D23   D(12,2,5,13)          171.3302                                         !
 ! D24   D(12,2,5,14)           56.7219                                         !
 ! D25   D(2,3,19,20)         -164.6513                                         !
 ! D26   D(2,3,19,31)           14.0646                                         !
 ! D27   D(4,3,19,20)           10.8935                                         !
 ! D28   D(4,3,19,31)         -170.3906                                         !
 ! D29   D(2,5,6,7)             45.547                                          !
 ! D30   D(2,5,6,15)           -74.3526                                         !
 ! D31   D(2,5,6,16)           166.8835                                         !
 ! D32   D(13,5,6,7)           168.5638                                         !
 ! D33   D(13,5,6,15)           48.6642                                         !
 ! D34   D(13,5,6,16)          -70.0997                                         !
 ! D35   D(14,5,6,7)           -74.112                                          !
 ! D36   D(14,5,6,15)          165.9884                                         !
 ! D37   D(14,5,6,16)           47.2245                                         !
 ! D38   D(5,6,7,8)            -75.1197                                         !
 ! D39   D(5,6,7,9)             97.921                                          !
 ! D40   D(15,6,7,8)            45.8348                                         !
 ! D41   D(15,6,7,9)          -141.1244                                         !
 ! D42   D(16,6,7,8)           164.8088                                         !
 ! D43   D(16,6,7,9)           -22.1505                                         !
 ! D44   D(6,7,9,10)          -154.243                                          !
 ! D45   D(8,7,9,10)            18.3825                                         !
 ! D46   D(3,19,20,21)         160.3542                                         !
 ! D47   D(3,19,20,23)         -76.8178                                         !
 ! D48   D(3,19,20,32)          43.7013                                         !
 ! D49   D(31,19,20,21)        -18.3935                                         !
 ! D50   D(31,19,20,23)        104.4346                                         !
 ! D51   D(31,19,20,32)       -135.0464                                         !
 ! D52   D(19,20,21,22)        117.1284                                         !
 ! D53   D(19,20,21,40)        -55.8457                                         !
 ! D54   D(23,20,21,22)         -6.3612                                         !
 ! D55   D(23,20,21,40)       -179.3353                                         !
 ! D56   D(32,20,21,22)       -128.6644                                         !
 ! D57   D(32,20,21,40)         58.3615                                         !
 ! D58   D(19,20,23,24)        163.3202                                         !
 ! D59   D(19,20,23,33)        -73.5528                                         !
 ! D60   D(19,20,23,34)         43.1158                                         !
 ! D61   D(21,20,23,24)        -79.4308                                         !
 ! D62   D(21,20,23,33)         43.6962                                         !
 ! D63   D(21,20,23,34)        160.3648                                         !
 ! D64   D(32,20,23,24)         43.7908                                         !
 ! D65   D(32,20,23,33)        166.9178                                         !
 ! D66   D(32,20,23,34)        -76.4136                                         !
 ! D67   D(20,21,40,41)        151.6015                                         !
 ! D68   D(20,21,40,51)         -1.5299                                         !
 ! D69   D(22,21,40,41)        -21.4568                                         !
 ! D70   D(22,21,40,51)       -174.5882                                         !
 ! D71   D(20,23,24,25)        -84.307                                          !
 ! D72   D(20,23,24,26)         93.7951                                         !
 ! D73   D(33,23,24,25)        154.078                                          !
 ! D74   D(33,23,24,26)        -27.8199                                         !
 ! D75   D(34,23,24,25)         34.1119                                         !
 ! D76   D(34,23,24,26)       -147.786                                          !
 ! D77   D(23,24,25,27)        178.3807                                         !
 ! D78   D(23,24,25,35)         -2.1228                                         !
 ! D79   D(26,24,25,27)          0.214                                          !
 ! D80   D(26,24,25,35)        179.7105                                         !
 ! D81   D(23,24,26,28)       -178.5572                                         !
 ! D82   D(23,24,26,36)          0.6161                                         !
 ! D83   D(25,24,26,28)         -0.4283                                         !
 ! D84   D(25,24,26,36)        178.7449                                         !
 ! D85   D(24,25,27,29)          0.1006                                         !
 ! D86   D(24,25,27,37)        179.4635                                         !
 ! D87   D(35,25,27,29)       -179.397                                          !
 ! D88   D(35,25,27,37)         -0.0341                                         !
 ! D89   D(24,26,28,29)          0.3281                                         !
 ! D90   D(24,26,28,38)       -179.6493                                         !
 ! D91   D(36,26,28,29)       -178.8438                                         !
 ! D92   D(36,26,28,38)          1.1788                                         !
 ! D93   D(25,27,29,28)         -0.2067                                         !
 ! D94   D(25,27,29,30)        179.8154                                         !
 ! D95   D(37,27,29,28)       -179.5867                                         !
 ! D96   D(37,27,29,30)          0.4355                                         !
 ! D97   D(26,28,29,27)         -0.0045                                         !
 ! D98   D(26,28,29,30)        179.972                                          !
 ! D99   D(38,28,29,27)        179.973                                          !
 ! D100  D(38,28,29,30)         -0.0506                                         !
 ! D101  D(27,29,30,39)       -178.6939                                         !
 ! D102  D(28,29,30,39)          1.3291                                         !
 ! D103  D(21,40,41,42)        -65.292                                          !
 ! D104  D(21,40,41,44)        168.3676                                         !
 ! D105  D(21,40,41,52)         48.9558                                         !
 ! D106  D(51,40,41,42)         87.9132                                         !
 ! D107  D(51,40,41,44)        -38.4273                                         !
 ! D108  D(51,40,41,52)       -157.839                                          !
 ! D109  D(40,41,42,43)       -178.9256                                         !
 ! D110  D(40,41,42,49)          1.0721                                         !
 ! D111  D(44,41,42,43)        -51.3228                                         !
 ! D112  D(44,41,42,49)        128.675                                          !
 ! D113  D(52,41,42,43)         64.3998                                         !
 ! D114  D(52,41,42,49)       -115.6025                                         !
 ! D115  D(40,41,44,45)         48.9334                                         !
 ! D116  D(40,41,44,53)        173.2278                                         !
 ! D117  D(40,41,44,54)        -72.3245                                         !
 ! D118  D(42,41,44,45)        -79.3572                                         !
 ! D119  D(42,41,44,53)         44.9372                                         !
 ! D120  D(42,41,44,54)        159.3849                                         !
 ! D121  D(52,41,44,45)        167.9646                                         !
 ! D122  D(52,41,44,53)        -67.741                                          !
 ! D123  D(52,41,44,54)         46.7067                                         !
 ! D124  D(41,42,49,50)        171.6012                                         !
 ! D125  D(43,42,49,50)         -8.401                                          !
 ! D126  D(41,44,45,46)         53.8202                                         !
 ! D127  D(41,44,45,55)        -69.7165                                         !
 ! D128  D(41,44,45,56)        177.195                                          !
 ! D129  D(53,44,45,46)        -68.4129                                         !
 ! D130  D(53,44,45,55)        168.0505                                         !
 ! D131  D(53,44,45,56)         54.9619                                         !
 ! D132  D(54,44,45,46)        174.8256                                         !
 ! D133  D(54,44,45,55)         51.289                                          !
 ! D134  D(54,44,45,56)        -61.7996                                         !
 ! D135  D(44,45,46,47)         69.1323                                         !
 ! D136  D(44,45,46,57)       -169.7255                                         !
 ! D137  D(44,45,46,58)        -54.1006                                         !
 ! D138  D(55,45,46,47)       -166.8637                                         !
 ! D139  D(55,45,46,57)        -45.7216                                         !
 ! D140  D(55,45,46,58)         69.9034                                         !
 ! D141  D(56,45,46,47)        -53.563                                          !
 ! D142  D(56,45,46,57)         67.5791                                         !
 ! D143  D(56,45,46,58)       -176.7959                                         !
 ! D144  D(45,46,47,48)       -175.2062                                         !
 ! D145  D(45,46,47,59)        -52.1018                                         !
 ! D146  D(45,46,47,60)         66.7279                                         !
 ! D147  D(57,46,47,48)         63.3577                                         !
 ! D148  D(57,46,47,59)       -173.5379                                         !
 ! D149  D(57,46,47,60)        -54.7082                                         !
 ! D150  D(58,46,47,48)        -51.3732                                         !
 ! D151  D(58,46,47,59)         71.7311                                         !
 ! D152  D(58,46,47,60)       -169.4392                                         !
 ! D153  D(46,47,48,61)       -167.6821                                         !
 ! D154  D(46,47,48,62)         76.1402                                         !
 ! D155  D(59,47,48,61)         68.8872                                         !
 ! D156  D(59,47,48,62)        -47.2905                                         !
 ! D157  D(60,47,48,61)        -48.4784                                         !
 ! D158  D(60,47,48,62)       -164.6561                                         !
 --------------------------------------------------------------------------------
 Symmetry turned off by external request.
 Stoichiometry    C20H31N4O7(1+)
 Framework group  C1[X(C20H31N4O7)]
 Deg. of freedom   180
 Full point group                 C1      NOp   1
                          Input orientation:                          
 ---------------------------------------------------------------------
 Center     Atomic      Atomic             Coordinates (Angstroms)
 Number     Number       Type             X           Y           Z
 ---------------------------------------------------------------------
      1          7           0       -6.496569  -87.137857  129.669025
      2          6           0       -5.317039  -87.324098  128.733392
      3          6           0       -4.409574  -88.464821  129.221687
      4          8           0       -4.837968  -89.609490  129.292478
      5          6           0       -5.833744  -87.626567  127.317049
      6          6           0       -6.928314  -86.658085  126.794950
      7          6           0       -6.497169  -85.236629  127.105323
      8          8           0       -6.574044  -84.803114  128.266616
      9          8           0       -5.933626  -84.617105  126.109056
     10          1           0       -5.267301  -83.841190  126.416949
     11          1           0       -6.927926  -86.224081  129.366334
     12          1           0       -4.805549  -86.361233  128.763450
     13          1           0       -6.198397  -88.658934  127.295062
     14          1           0       -4.961771  -87.583025  126.655255
     15          1           0       -7.890245  -86.857191  127.279647
     16          1           0       -7.056895  -86.806847  125.721363
     17          1           0       -7.152878  -87.923615  129.599497
     18          1           0       -6.203403  -87.064215  130.648796
     19          7           0       -3.147141  -88.047561  129.447191
     20          6           0       -1.966536  -88.918800  129.608823
     21          6           0       -0.781813  -87.960200  129.327818
     22          8           0        0.066624  -87.678334  130.153019
     23          6           0       -1.875315  -89.598841  130.985529
     24          6           0       -0.909884  -90.764151  130.967357
     25          6           0       -1.346612  -92.025722  130.534224
     26          6           0        0.431258  -90.615682  131.336153
     27          6           0       -0.478853  -93.110133  130.472966
     28          6           0        1.311883  -91.695416  131.284061
     29          6           0        0.859664  -92.947433  130.851916
     30          8           0        1.664999  -94.044770  130.775762
     31          1           0       -2.968010  -87.049672  129.495565
     32          1           0       -2.027571  -89.692740  128.833769
     33          1           0       -1.581631  -88.850359  131.727608
     34          1           0       -2.881775  -89.951936  131.233741
     35          1           0       -2.387867  -92.161913  130.247581
     36          1           0        0.792962  -89.643160  131.654243
     37          1           0       -0.815562  -94.088739  130.146698
     38          1           0        2.351035  -91.565050  131.579760
     39          1           0        2.556664  -93.815504  131.081091
     40          7           0       -0.861347  -87.333795  128.101441
     41          6           0       -0.265697  -86.027732  127.893929
     42          6           0       -0.921628  -84.906635  128.718591
     43          8           0       -0.582434  -83.750529  128.671353
     44          6           0       -0.211638  -85.629911  126.401661
     45          6           0       -1.522201  -85.802643  125.605958
     46          6           0       -2.788613  -85.128415  126.166377
     47          6           0       -2.779513  -83.596011  126.100524
     48          7           0       -3.989711  -83.035692  126.768170
     49          8           0       -1.948562  -85.310962  129.537858
     50          1           0       -2.168429  -84.534231  130.087655
     51          1           0       -1.647920  -87.572927  127.514186
     52          1           0        0.759128  -86.064072  128.278630
     53          1           0        0.135316  -84.593401  126.360841
     54          1           0        0.560196  -86.241048  125.923106
     55          1           0       -1.730094  -86.874642  125.483800
     56          1           0       -1.343621  -85.435614  124.587570
     57          1           0       -3.656440  -85.489083  125.604074
     58          1           0       -2.952783  -85.440271  127.208320
     59          1           0       -1.868481  -83.187515  126.551029
     60          1           0       -2.806191  -83.278679  125.053337
     61          1           0       -4.086104  -82.043922  126.548587
     62          1           0       -3.880305  -83.086800  127.781862
 ---------------------------------------------------------------------
 Rotational constants (GHZ):           0.2220966           0.0796584           0.0653222
 Standard basis: 6-31G(d) (6D, 7F)
   527 basis functions,   992 primitive gaussians,   527 cartesian basis functions
   117 alpha electrons      117 beta electrons
       nuclear repulsion energy      3352.8205077288 Hartrees.
 NAtoms=   62 NActive=   62 NUniq=   62 SFac= 1.00D+00 NAtFMM=   60 NAOKFM=T Big=T
 Integral buffers will be    131072 words long.
 Raffenetti 2 integral format.
 Two-electron integral symmetry is turned off.
 Nuclear repulsion after empirical dispersion term =     3352.7359548598 Hartrees.
 One-electron integrals computed using PRISM.
 NBasis=   527 RedAO= T EigKep=  4.35D-04  NBF=   527
 NBsUse=   527 1.00D-06 EigRej= -1.00D+00 NBFU=   527
 Initial guess from the checkpoint file:  "conf-472.chk"
 B after Tr=     0.000000    0.000000    0.000000
         Rot=    1.000000    0.000000    0.000000    0.000000 Ang=   0.00 deg.
 Requested convergence on RMS density matrix=1.00D-08 within 128 cycles.
 Requested convergence on MAX density matrix=1.00D-06.
 Requested convergence on             energy=1.00D-06.
 No special actions if energy rises.
 SCF Done:  E(RB3LYP) =  -1526.29021971     A.U. after    1 cycles
            NFock=  1  Conv=0.85D-08     -V/T= 2.0093

 **********************************************************************

            Population analysis using the SCF Density.

 **********************************************************************

 Alpha  occ. eigenvalues --  -19.33362 -19.29178 -19.26808 -19.26712 -19.25458
 Alpha  occ. eigenvalues --  -19.23654 -19.23093 -14.60882 -14.49599 -14.47739
 Alpha  occ. eigenvalues --  -14.47367 -10.44685 -10.44633 -10.42976 -10.40826
 Alpha  occ. eigenvalues --  -10.40065 -10.35790 -10.35144 -10.34652 -10.33660
 Alpha  occ. eigenvalues --  -10.33550 -10.31047 -10.30960 -10.30585 -10.30455
 Alpha  occ. eigenvalues --  -10.27664 -10.25684 -10.25452 -10.25214 -10.24993
 Alpha  occ. eigenvalues --  -10.24578  -1.23489  -1.21563  -1.17884  -1.15273
 Alpha  occ. eigenvalues --   -1.15015  -1.14455  -1.12709  -1.11766  -1.06492
 Alpha  occ. eigenvalues --   -1.04023  -1.02918  -0.95514  -0.92329  -0.91931
 Alpha  occ. eigenvalues --   -0.89611  -0.87435  -0.86265  -0.82170  -0.81034
 Alpha  occ. eigenvalues --   -0.80883  -0.78465  -0.76566  -0.75711  -0.75068
 Alpha  occ. eigenvalues --   -0.73764  -0.72630  -0.71729  -0.71284  -0.70116
 Alpha  occ. eigenvalues --   -0.69247  -0.68279  -0.66595  -0.65356  -0.64867
 Alpha  occ. eigenvalues --   -0.63648  -0.63231  -0.62097  -0.61615  -0.61058
 Alpha  occ. eigenvalues --   -0.60496  -0.60291  -0.59864  -0.58717  -0.58443
 Alpha  occ. eigenvalues --   -0.58051  -0.56776  -0.56729  -0.56026  -0.55794
 Alpha  occ. eigenvalues --   -0.54823  -0.54282  -0.53858  -0.53186  -0.52820
 Alpha  occ. eigenvalues --   -0.52183  -0.52146  -0.51754  -0.50925  -0.50757
 Alpha  occ. eigenvalues --   -0.50549  -0.49861  -0.49420  -0.48609  -0.48216
 Alpha  occ. eigenvalues --   -0.48153  -0.47969  -0.46593  -0.46314  -0.45444
 Alpha  occ. eigenvalues --   -0.45104  -0.44777  -0.44463  -0.43575  -0.43129
 Alpha  occ. eigenvalues --   -0.42481  -0.41418  -0.41005  -0.39782  -0.39731
 Alpha  occ. eigenvalues --   -0.39491  -0.39197  -0.38468  -0.36683  -0.36057
 Alpha  occ. eigenvalues --   -0.31337  -0.27964
 Alpha virt. eigenvalues --   -0.13750  -0.12185  -0.11960  -0.10252  -0.09910
 Alpha virt. eigenvalues --   -0.08617  -0.06563  -0.06418  -0.05673  -0.05220
 Alpha virt. eigenvalues --   -0.03627  -0.03025  -0.01504  -0.01098  -0.00804
 Alpha virt. eigenvalues --    0.00040   0.01301   0.01374   0.01681   0.02270
 Alpha virt. eigenvalues --    0.02560   0.03471   0.03802   0.03999   0.04642
 Alpha virt. eigenvalues --    0.04855   0.05244   0.05537   0.05651   0.06705
 Alpha virt. eigenvalues --    0.06950   0.07278   0.07578   0.08522   0.08866
 Alpha virt. eigenvalues --    0.09036   0.09499   0.10270   0.10382   0.10727
 Alpha virt. eigenvalues --    0.11210   0.11397   0.11869   0.12070   0.12388
 Alpha virt. eigenvalues --    0.12671   0.12999   0.13803   0.14546   0.15316
 Alpha virt. eigenvalues --    0.15663   0.16320   0.16960   0.18610   0.19582
 Alpha virt. eigenvalues --    0.20539   0.21649   0.21874   0.24625   0.25234
 Alpha virt. eigenvalues --    0.25768   0.26694   0.27451   0.28014   0.28638
 Alpha virt. eigenvalues --    0.29879   0.30344   0.34494   0.35108   0.37774
 Alpha virt. eigenvalues --    0.38348   0.39201   0.39673   0.40262   0.40897
 Alpha virt. eigenvalues --    0.41792   0.42513   0.43178   0.43696   0.44204
 Alpha virt. eigenvalues --    0.44713   0.44878   0.45873   0.46142   0.46691
 Alpha virt. eigenvalues --    0.47475   0.47718   0.47961   0.48999   0.49350
 Alpha virt. eigenvalues --    0.50001   0.50162   0.50929   0.51918   0.52384
 Alpha virt. eigenvalues --    0.52972   0.53060   0.53237   0.54555   0.54611
 Alpha virt. eigenvalues --    0.54964   0.55147   0.55496   0.56108   0.57279
 Alpha virt. eigenvalues --    0.57819   0.58109   0.58162   0.58546   0.58937
 Alpha virt. eigenvalues --    0.59464   0.60283   0.60526   0.61619   0.61662
 Alpha virt. eigenvalues --    0.62332   0.63656   0.64570   0.65115   0.65545
 Alpha virt. eigenvalues --    0.66020   0.66670   0.66801   0.67951   0.68475
 Alpha virt. eigenvalues --    0.69108   0.69472   0.69568   0.69674   0.70099
 Alpha virt. eigenvalues --    0.71655   0.71838   0.72235   0.73332   0.73587
 Alpha virt. eigenvalues --    0.74314   0.74750   0.75290   0.75527   0.75973
 Alpha virt. eigenvalues --    0.76835   0.77429   0.77745   0.78233   0.78642
 Alpha virt. eigenvalues --    0.78865   0.79096   0.79512   0.80089   0.80509
 Alpha virt. eigenvalues --    0.81856   0.82201   0.82548   0.83183   0.83623
 Alpha virt. eigenvalues --    0.84289   0.84837   0.85162   0.85452   0.85805
 Alpha virt. eigenvalues --    0.86917   0.87182   0.87863   0.88232   0.88772
 Alpha virt. eigenvalues --    0.89139   0.89517   0.90504   0.90577   0.90922
 Alpha virt. eigenvalues --    0.92287   0.93436   0.93792   0.94268   0.95426
 Alpha virt. eigenvalues --    0.95655   0.96334   0.98099   0.98639   0.98829
 Alpha virt. eigenvalues --    1.00625   1.00919   1.01567   1.03239   1.03708
 Alpha virt. eigenvalues --    1.04885   1.06785   1.07163   1.08323   1.09434
 Alpha virt. eigenvalues --    1.09840   1.10850   1.12040   1.13056   1.13805
 Alpha virt. eigenvalues --    1.14786   1.15539   1.16762   1.17364   1.18755
 Alpha virt. eigenvalues --    1.20221   1.21202   1.22192   1.23310   1.25075
 Alpha virt. eigenvalues --    1.26138   1.26916   1.27050   1.28616   1.30002
 Alpha virt. eigenvalues --    1.30807   1.31204   1.31609   1.32315   1.34288
 Alpha virt. eigenvalues --    1.34970   1.36434   1.37806   1.38944   1.39492
 Alpha virt. eigenvalues --    1.39694   1.40342   1.42237   1.43597   1.45076
 Alpha virt. eigenvalues --    1.45923   1.46125   1.47505   1.47543   1.48783
 Alpha virt. eigenvalues --    1.51036   1.51559   1.53282   1.53606   1.54346
 Alpha virt. eigenvalues --    1.55166   1.55326   1.57573   1.58533   1.59629
 Alpha virt. eigenvalues --    1.60654   1.61984   1.63607   1.64566   1.65324
 Alpha virt. eigenvalues --    1.66074   1.66830   1.67206   1.67612   1.67760
 Alpha virt. eigenvalues --    1.68645   1.69005   1.69806   1.70145   1.70980
 Alpha virt. eigenvalues --    1.71737   1.72462   1.72951   1.73279   1.73952
 Alpha virt. eigenvalues --    1.74615   1.75456   1.76037   1.76470   1.76987
 Alpha virt. eigenvalues --    1.78490   1.78574   1.79121   1.79900   1.80737
 Alpha virt. eigenvalues --    1.81240   1.82002   1.83631   1.83832   1.84476
 Alpha virt. eigenvalues --    1.85848   1.86394   1.87257   1.88218   1.88831
 Alpha virt. eigenvalues --    1.89161   1.89970   1.90387   1.91701   1.92144
 Alpha virt. eigenvalues --    1.92313   1.92875   1.93173   1.93981   1.94860
 Alpha virt. eigenvalues --    1.95460   1.96688   1.97890   1.99005   2.00225
 Alpha virt. eigenvalues --    2.00571   2.01596   2.02698   2.04056   2.04541
 Alpha virt. eigenvalues --    2.05839   2.07105   2.07778   2.08223   2.08655
 Alpha virt. eigenvalues --    2.12333   2.13223   2.13407   2.14970   2.16057
 Alpha virt. eigenvalues --    2.17678   2.19203   2.19351   2.19918   2.21142
 Alpha virt. eigenvalues --    2.21910   2.23038   2.23330   2.23611   2.25356
 Alpha virt. eigenvalues --    2.25862   2.27417   2.28398   2.29180   2.29957
 Alpha virt. eigenvalues --    2.30427   2.31668   2.32172   2.33331   2.33722
 Alpha virt. eigenvalues --    2.34248   2.35100   2.35732   2.37935   2.40688
 Alpha virt. eigenvalues --    2.41296   2.43571   2.45310   2.45697   2.46597
 Alpha virt. eigenvalues --    2.48807   2.50187   2.51144   2.52730   2.53873
 Alpha virt. eigenvalues --    2.54291   2.54619   2.56580   2.56790   2.59054
 Alpha virt. eigenvalues --    2.59549   2.60516   2.61281   2.62057   2.62990
 Alpha virt. eigenvalues --    2.63881   2.65018   2.66587   2.67215   2.69327
 Alpha virt. eigenvalues --    2.69689   2.72902   2.74257   2.78108   2.79313
 Alpha virt. eigenvalues --    2.82152   2.83114   2.84577   2.86772   2.86900
 Alpha virt. eigenvalues --    2.89469   2.91879   2.94007   2.96135   2.98519
 Alpha virt. eigenvalues --    3.03000   3.05736   3.06529   3.35486   3.63356
 Alpha virt. eigenvalues --    3.73915   3.74559   3.88129   3.91057   3.91852
 Alpha virt. eigenvalues --    3.96396   4.00687   4.03813   4.05241   4.05835
 Alpha virt. eigenvalues --    4.06302   4.08016   4.12409   4.16573   4.16900
 Alpha virt. eigenvalues --    4.17743   4.18283   4.22822   4.27388   4.28760
 Alpha virt. eigenvalues --    4.30347   4.36247   4.37824   4.42230   4.45340
 Alpha virt. eigenvalues --    4.46688   4.52791   4.56400   4.59475   4.70298
          Condensed to atoms (all electrons):
 Mulliken charges:
               1
     1  N   -0.743170
     2  C   -0.141556
     3  C    0.619701
     4  O   -0.500952
     5  C   -0.305571
     6  C   -0.368646
     7  C    0.610155
     8  O   -0.535402
     9  O   -0.565612
    10  H    0.474164
    11  H    0.433955
    12  H    0.201641
    13  H    0.213538
    14  H    0.194558
    15  H    0.171250
    16  H    0.215224
    17  H    0.418110
    18  H    0.414943
    19  N   -0.662168
    20  C   -0.038687
    21  C    0.590073
    22  O   -0.475812
    23  C   -0.352436
    24  C    0.136932
    25  C   -0.194184
    26  C   -0.181555
    27  C   -0.156355
    28  C   -0.194969
    29  C    0.354793
    30  O   -0.633820
    31  H    0.389262
    32  H    0.194087
    33  H    0.166088
    34  H    0.166438
    35  H    0.133508
    36  H    0.156361
    37  H    0.150814
    38  H    0.131263
    39  H    0.413759
    40  N   -0.606140
    41  C   -0.057446
    42  C    0.618482
    43  O   -0.441413
    44  C   -0.295915
    45  C   -0.296728
    46  C   -0.306806
    47  C   -0.156199
    48  N   -0.793561
    49  O   -0.606254
    50  H    0.425564
    51  H    0.334253
    52  H    0.237054
    53  H    0.188735
    54  H    0.183943
    55  H    0.146945
    56  H    0.174709
    57  H    0.173756
    58  H    0.111734
    59  H    0.190386
    60  H    0.181439
    61  H    0.358120
    62  H    0.335622
 Sum of Mulliken charges =   1.00000
 Mulliken charges with hydrogens summed into heavy atoms:
               1
     1  N    0.523838
     2  C    0.060085
     3  C    0.619701
     4  O   -0.500952
     5  C    0.102525
     6  C    0.017828
     7  C    0.610155
     8  O   -0.535402
     9  O   -0.091449
    19  N   -0.272906
    20  C    0.155400
    21  C    0.590073
    22  O   -0.475812
    23  C   -0.019910
    24  C    0.136932
    25  C   -0.060676
    26  C   -0.025194
    27  C   -0.005541
    28  C   -0.063705
    29  C    0.354793
    30  O   -0.220061
    40  N   -0.271887
    41  C    0.179608
    42  C    0.618482
    43  O   -0.441413
    44  C    0.076764
    45  C    0.024926
    46  C   -0.021317
    47  C    0.215626
    48  N   -0.099819
    49  O   -0.180690
 Electronic spatial extent (au):  <R**2>=       20277584.3750
 Charge=              1.0000 electrons
 Dipole moment (field-independent basis, Debye):
    X=            -21.5998    Y=           -413.3363    Z=            616.1337  Tot=            742.2494
 Quadrupole moment (field-independent basis, Debye-Ang):
   XX=            -39.9685   YY=          35400.3203   ZZ=          78876.5459
   XY=           1857.1341   XZ=          -2780.1397   YZ=         -53029.6679
 Traceless Quadrupole moment (field-independent basis, Debye-Ang):
   XX=         -38118.9344   YY=          -2678.6456   ZZ=          40797.5800
   XY=           1857.1341   XZ=          -2780.1397   YZ=         -53029.6679
 Octapole moment (field-independent basis, Debye-Ang**2):
  XXX=            496.8290  YYY=       -3016283.7578  ZZZ=       10077069.2852  XYY=        -159212.1424
  XXY=           3548.6041  XXZ=          -5067.8252  XZZ=        -357457.3787  YZZ=       -6789606.6731
  YYZ=        4542402.7841  XYZ=         239014.9407
 Hexadecapole moment (field-independent basis, Debye-Ang**3):
 XXXX=          -7763.8543 YYYY=      255545081.4779 ZZZZ=     1284729276.6413 XXXY=         -42017.0236
 XXXZ=          62483.4871 YYYX=       13608168.4620 YYYZ=     -387082552.7954 ZZZX=      -45912504.8341
 ZZZY=     -867489213.1556 XXYY=        -318586.7903 XXZZ=        -644860.4442 YYZZ=      581633664.7726
 XXYZ=         450655.2484 YYXZ=      -20489017.9821 ZZXY=       30728675.1607
 N-N= 3.352735954860D+03 E-N=-1.023825579590D+04  KE= 1.512225046698D+03
 Unable to Open any file for archive entry.
 1\1\GINC-VIM-000\SP\RB3LYP\6-31G(d)\C20H31N4O7(1+)\KENGMITH\24-May-202
 2\0\\# B3LYP/6-31G* empiricaldispersion=gd3 guess=read geom=check nosy
 mm integral(ultrafinegrid)\\Candidate Structure: Conf:472 Charge calc 
 in gas phase\\1,1\N,0,-6.4965688718,-87.13785689,129.6690248292\C,0,-5
 .3170389171,-87.3240982416,128.7333916502\C,0,-4.4095738393,-88.464821
 0868,129.2216874201\O,0,-4.8379681521,-89.6094899585,129.2924777389\C,
 0,-5.8337438084,-87.6265674891,127.3170492517\C,0,-6.9283138364,-86.65
 80850192,126.794949544\C,0,-6.4971692056,-85.2366290824,127.1053227262
 \O,0,-6.5740443249,-84.8031143306,128.2666156643\O,0,-5.9336259115,-84
 .6171050828,126.1090555318\H,0,-5.2673011693,-83.8411898786,126.416949
 4475\H,0,-6.927926089,-86.224080757,129.3663344779\H,0,-4.8055491332,-
 86.3612334446,128.7634503047\H,0,-6.1983972175,-88.6589339135,127.2950
 616506\H,0,-4.9617714996,-87.5830246946,126.655254959\H,0,-7.890245487
 5,-86.8571913903,127.2796473611\H,0,-7.0568954276,-86.8068468852,125.7
 213633854\H,0,-7.1528781823,-87.9236150066,129.5994970515\H,0,-6.20340
 25141,-87.0642146051,130.6487960708\N,0,-3.1471406776,-88.0475605453,1
 29.4471908049\C,0,-1.9665361163,-88.9187996562,129.608823345\C,0,-0.78
 18127849,-87.9602004007,129.32781798\O,0,0.0666242653,-87.6783344499,1
 30.1530192826\C,0,-1.8753150566,-89.5988410359,130.9855294871\C,0,-0.9
 098835212,-90.7641508195,130.9673567091\C,0,-1.3466118965,-92.02572169
 81,130.5342239388\C,0,0.43125783,-90.6156816452,131.3361531524\C,0,-0.
 4788526163,-93.1101328256,130.4729659891\C,0,1.3118827608,-91.69541575
 4,131.2840608513\C,0,0.8596643815,-92.9474328863,130.8519156867\O,0,1.
 664998693,-94.0447703222,130.7757618957\H,0,-2.9680099076,-87.04967158
 54,129.4955651946\H,0,-2.0275712705,-89.6927399597,128.83376936\H,0,-1
 .5816313533,-88.8503585511,131.727608011\H,0,-2.8817751116,-89.9519355
 073,131.233740853\H,0,-2.3878674329,-92.1619130789,130.2475805407\H,0,
 0.7929622771,-89.6431603941,131.6542432875\H,0,-0.8155621643,-94.08873
 8555,130.1466984333\H,0,2.3510354293,-91.5650497615,131.5797596616\H,0
 ,2.5566641517,-93.8155039075,131.0810906859\N,0,-0.8613470176,-87.3337
 950635,128.1014409641\C,0,-0.265696622,-86.0277321553,127.8939288769\C
 ,0,-0.9216282665,-84.9066348741,128.7185910107\O,0,-0.5824344865,-83.7
 50529251,128.6713531515\C,0,-0.2116380789,-85.6299112248,126.401660816
 4\C,0,-1.5222012838,-85.8026428736,125.6059579699\C,0,-2.7886129534,-8
 5.12841499,126.1663771702\C,0,-2.7795126101,-83.5960107908,126.1005240
 999\N,0,-3.9897107032,-83.03569248,126.7681704998\O,0,-1.9485615978,-8
 5.3109623151,129.5378578256\H,0,-2.1684286211,-84.5342305188,130.08765
 4516\H,0,-1.6479201332,-87.5729273258,127.5141862889\H,0,0.7591282286,
 -86.0640723985,128.2786301419\H,0,0.1353158354,-84.5934011433,126.3608
 412613\H,0,0.5601957046,-86.2410480636,125.9231058443\H,0,-1.730093801
 5,-86.8746421305,125.4838002746\H,0,-1.3436209569,-85.4356136102,124.5
 875704893\H,0,-3.6564396527,-85.4890832335,125.6040735663\H,0,-2.95278
 25175,-85.4402714966,127.2083200156\H,0,-1.8684812751,-83.1875147668,1
 26.5510288744\H,0,-2.8061906426,-83.2786792575,125.0533374485\H,0,-4.0
 861044444,-82.0439218281,126.5485867143\H,0,-3.8803051257,-83.08679986
 26,127.7818620146\\Version=ES64L-G16RevC.01\HF=-1526.2902197\RMSD=8.50
 2e-09\Dipole=-3.7686803,2.9017392,-0.8274086\Quadrupole=-28340.4934506
 ,-1991.5073381,30332.0007887,1380.7337097,-2066.9657495,-39426.2583849
 \PG=C01 [X(C20H31N4O7)]\\@
 The archive entry for this job was punched.


 ON INDUCTION, OR "WHY DO YOU BELIEVE THE SUN WILL RISE TOMORROW?":

 ... THE FARMER WHO HAS FED THE CHICKEN EVERY DAY THROUGHOUT ITS
 LIFE AT LAST WRINGS ITS NECK INSTEAD, SHOWING THAT MORE REFINED VIEWS
 AS TO THE UNIFORMITY OF NATURE WOULD HAVE BEEN USEFUL TO THE CHICKEN.

                               -- BERTRAND RUSSELL
 Job cpu time:       0 days  0 hours  1 minutes 36.5 seconds.
 Elapsed time:       0 days  0 hours  0 minutes 24.6 seconds.
 File lengths (MBytes):  RWF=    264 Int=      0 D2E=      0 Chk=     40 Scr=     16
 Normal termination of Gaussian 16 at Tue May 24 19:13:22 2022.
