 Entering Gaussian System, Link 0=/opt/software/Gaussian/g16-AVX2-C.01/g16/g16
 Input=charge-conf-197.com
 Output=charge-conf-197.log
 Initial command:
 /opt/software/Gaussian/g16-AVX2-C.01/g16/l1.exe "/mnt/gs18/scratch/users/kengmith/Gau-5249.inp" -scrdir="/mnt/gs18/scratch/users/kengmith/"
 Entering Link 1 = /opt/software/Gaussian/g16-AVX2-C.01/g16/l1.exe PID=      5276.
  
 Copyright (c) 1988-2019, Gaussian, Inc.  All Rights Reserved.
  
 This is part of the Gaussian(R) 16 program.  It is based on
 the Gaussian(R) 09 system (copyright 2009, Gaussian, Inc.),
 the Gaussian(R) 03 system (copyright 2003, Gaussian, Inc.),
 the Gaussian(R) 98 system (copyright 1998, Gaussian, Inc.),
 the Gaussian(R) 94 system (copyright 1995, Gaussian, Inc.),
 the Gaussian 92(TM) system (copyright 1992, Gaussian, Inc.),
 the Gaussian 90(TM) system (copyright 1990, Gaussian, Inc.),
 the Gaussian 88(TM) system (copyright 1988, Gaussian, Inc.),
 the Gaussian 86(TM) system (copyright 1986, Carnegie Mellon
 University), and the Gaussian 82(TM) system (copyright 1983,
 Carnegie Mellon University). Gaussian is a federally registered
 trademark of Gaussian, Inc.
  
 This software contains proprietary and confidential information,
 including trade secrets, belonging to Gaussian, Inc.
  
 This software is provided under written license and may be
 used, copied, transmitted, or stored only in accord with that
 written license.
  
 The following legend is applicable only to US Government
 contracts under FAR:
  
                    RESTRICTED RIGHTS LEGEND
  
 Use, reproduction and disclosure by the US Government is
 subject to restrictions as set forth in subparagraphs (a)
 and (c) of the Commercial Computer Software - Restricted
 Rights clause in FAR 52.227-19.
  
 Gaussian, Inc.
 340 Quinnipiac St., Bldg. 40, Wallingford CT 06492
  
  
 ---------------------------------------------------------------
 Warning -- This program may not be used in any manner that
 competes with the business of Gaussian, Inc. or will provide
 assistance to any competitor of Gaussian, Inc.  The licensee
 of this program is prohibited from giving any competitor of
 Gaussian, Inc. access to this program.  By using this program,
 the user acknowledges that Gaussian, Inc. is engaged in the
 business of creating and licensing software in the field of
 computational chemistry and represents and warrants to the
 licensee that it is not a competitor of Gaussian, Inc. and that
 it will not use this program in any manner prohibited above.
 ---------------------------------------------------------------
  

 Cite this work as:
 Gaussian 16, Revision C.01,
 M. J. Frisch, G. W. Trucks, H. B. Schlegel, G. E. Scuseria, 
 M. A. Robb, J. R. Cheeseman, G. Scalmani, V. Barone, 
 G. A. Petersson, H. Nakatsuji, X. Li, M. Caricato, A. V. Marenich, 
 J. Bloino, B. G. Janesko, R. Gomperts, B. Mennucci, H. P. Hratchian, 
 J. V. Ortiz, A. F. Izmaylov, J. L. Sonnenberg, D. Williams-Young, 
 F. Ding, F. Lipparini, F. Egidi, J. Goings, B. Peng, A. Petrone, 
 T. Henderson, D. Ranasinghe, V. G. Zakrzewski, J. Gao, N. Rega, 
 G. Zheng, W. Liang, M. Hada, M. Ehara, K. Toyota, R. Fukuda, 
 J. Hasegawa, M. Ishida, T. Nakajima, Y. Honda, O. Kitao, H. Nakai, 
 T. Vreven, K. Throssell, J. A. Montgomery, Jr., J. E. Peralta, 
 F. Ogliaro, M. J. Bearpark, J. J. Heyd, E. N. Brothers, K. N. Kudin, 
 V. N. Staroverov, T. A. Keith, R. Kobayashi, J. Normand, 
 K. Raghavachari, A. P. Rendell, J. C. Burant, S. S. Iyengar, 
 J. Tomasi, M. Cossi, J. M. Millam, M. Klene, C. Adamo, R. Cammi, 
 J. W. Ochterski, R. L. Martin, K. Morokuma, O. Farkas, 
 J. B. Foresman, and D. J. Fox, Gaussian, Inc., Wallingford CT, 2019.
 
 ******************************************
 Gaussian 16:  ES64L-G16RevC.01  3-Jul-2019
                24-May-2022 
 ******************************************
 %mem=8gb
 %nproc=4
 Will use up to    4 processors via shared memory.
 %chk=conf-197.chk
 ----------------------------------------------------------------------
 # B3LYP/6-31G* empiricaldispersion=gd3 guess=read geom=check nosymm in
 tegral(ultrafinegrid)
 ----------------------------------------------------------------------
 1/29=2,38=1,172=1/1;
 2/12=2,15=1,40=1/2;
 3/5=1,6=6,7=1,11=2,14=-4,25=1,30=1,74=-5,75=-5,116=-2,124=31/1,2,3;
 4/5=1/1;
 5/5=2,38=6/2;
 6/7=2,8=2,9=2,10=2,28=1/1;
 99/5=1,9=1/99;
 ------------------------------------------------------
 Candidate Structure: Conf:197 Charge calc in gas phase
 ------------------------------------------------------
 Structure from the checkpoint file:  "conf-197.chk"
 Charge =  1 Multiplicity = 1
 Redundant internal coordinates found in file.  (old form).
 N,0,-6.3343652362,-87.7348518112,127.8180257457
 C,0,-5.675895877,-87.8802660861,129.1545153385
 C,0,-4.3149849099,-88.5570304587,128.8767041794
 O,0,-4.0691144448,-88.9691906121,127.7395609671
 C,0,-5.5138408971,-86.5135242347,129.862036598
 C,0,-6.6768462443,-85.5066762791,129.6982558343
 C,0,-8.0391774425,-86.1019987919,129.9915442259
 O,0,-8.5557527555,-86.9701481649,129.3006006848
 O,0,-8.6133226245,-85.5985142982,131.082153007
 H,0,-9.4866046889,-86.0241422207,131.1987131626
 H,0,-7.3180657868,-87.4495118579,127.972917708
 H,0,-6.3141581993,-88.5403182211,129.7501819794
 H,0,-4.6012336631,-86.0285294069,129.5033557384
 H,0,-5.3712073674,-86.7119047607,130.9301260018
 H,0,-6.7047728049,-85.1371640176,128.6664203868
 H,0,-6.4954006993,-84.6486999368,130.3490276337
 H,0,-5.7507176543,-87.0436973249,127.1925482918
 H,0,-6.2954749447,-88.6349717666,127.3298845047
 N,0,-3.4479991736,-88.630480266,129.9042259866
 C,0,-2.0267427541,-88.966642573,129.6827694308
 C,0,-1.3615251873,-87.6584953869,129.1991875215
 O,0,-0.8968493867,-86.8371274992,129.9798287834
 C,0,-1.3699778289,-89.4981650483,130.9614302037
 C,0,0.026728825,-90.0121548904,130.6817250405
 C,0,1.1469512031,-89.1846746592,130.8202686905
 C,0,0.2208411956,-91.3260987053,130.2297086234
 C,0,2.4256674756,-89.6540166502,130.5229777917
 C,0,1.4894761128,-91.8070677935,129.927245481
 C,0,2.6017950903,-90.9684014478,130.075239806
 O,0,3.820212432,-91.4936885361,129.7666753571
 H,0,-3.6634727045,-88.1673712976,130.7783816938
 H,0,-2.0006046396,-89.7315047321,128.9037433402
 H,0,-1.3410351686,-88.6896177082,131.7004633536
 H,0,-2.0031520449,-90.2998008653,131.3593176068
 H,0,1.0168714432,-88.159646726,131.1538131537
 H,0,-0.6348406949,-91.9903575241,130.1236697401
 H,0,3.286871933,-88.9998604762,130.6430994665
 H,0,1.6436180188,-92.8260630651,129.5878085643
 H,0,4.5127845998,-90.8368765869,129.9396799741
 N,0,-1.4535063134,-87.4233986804,127.8609645896
 C,0,-0.9248050074,-86.1973651378,127.2731743921
 C,0,-1.4140304549,-84.9530152947,128.0113601913
 O,0,-0.7559837684,-83.9591074939,128.1692412559
 C,0,-1.2434666163,-86.1560780625,125.7376814024
 C,0,-1.8532115223,-84.8545081219,125.1390774841
 C,0,-3.2823890992,-84.9778914412,124.5724415811
 C,0,-4.4412913883,-85.116254189,125.5726438041
 N,0,-4.4882250275,-86.3903337612,126.3304264608
 O,0,-2.7333294346,-85.016589046,128.3856248969
 H,0,-2.9140018756,-84.1572959027,128.8129845089
 H,0,-1.8414130248,-88.1405010603,127.2625354161
 H,0,0.1588126349,-86.1644539198,127.420188755
 H,0,-0.3080818502,-86.3813592072,125.2196652159
 H,0,-1.9084225288,-86.9956523969,125.5060638898
 H,0,-1.2100995805,-84.5329016189,124.3138778647
 H,0,-1.8165814604,-84.0297942524,125.8582676225
 H,0,-3.4848040192,-84.0791852865,123.9758880306
 H,0,-3.3237507034,-85.8195989083,123.8647650382
 H,0,-4.4054055059,-84.308506487,126.3114462884
 H,0,-5.3892790642,-85.0184390794,125.0322506788
 H,0,-3.7257887638,-86.4055843288,127.006097591
 H,0,-4.3090541117,-87.1758867455,125.7023675149
 Recover connectivity data from disk.
                           ----------------------------
                           !    Current Parameters    !
                           ! (Angstroms and Degrees)  !
 --------------------------                            --------------------------
 ! Name  Definition              Value                                          !
 --------------------------------------------------------------------------------
 ! R1    R(1,2)                  1.497                                          !
 ! R2    R(1,11)                 1.0359                                         !
 ! R3    R(1,17)                 1.0998                                         !
 ! R4    R(1,18)                 1.0247                                         !
 ! R5    R(2,3)                  1.5451                                         !
 ! R6    R(2,5)                  1.5475                                         !
 ! R7    R(2,12)                 1.0945                                         !
 ! R8    R(3,4)                  1.2343                                         !
 ! R9    R(3,19)                 1.3464                                         !
 ! R10   R(5,6)                  1.547                                          !
 ! R11   R(5,13)                 1.0939                                         !
 ! R12   R(5,14)                 1.0957                                         !
 ! R13   R(6,7)                  1.5154                                         !
 ! R14   R(6,15)                 1.0964                                         !
 ! R15   R(6,16)                 1.092                                          !
 ! R16   R(7,8)                  1.2239                                         !
 ! R17   R(7,9)                  1.3314                                         !
 ! R18   R(9,10)                 0.9785                                         !
 ! R19   R(19,20)                1.4772                                         !
 ! R20   R(19,31)                1.0124                                         !
 ! R21   R(20,21)                1.5452                                         !
 ! R22   R(20,23)                1.5326                                         !
 ! R23   R(20,32)                1.0921                                         !
 ! R24   R(21,22)                1.2247                                         !
 ! R25   R(21,40)                1.3618                                         !
 ! R26   R(23,24)                1.5143                                         !
 ! R27   R(23,33)                1.0958                                         !
 ! R28   R(23,34)                1.0963                                         !
 ! R29   R(24,25)                1.3996                                         !
 ! R30   R(24,26)                1.403                                          !
 ! R31   R(25,27)                1.3942                                         !
 ! R32   R(25,35)                1.0858                                         !
 ! R33   R(26,28)                1.3901                                         !
 ! R34   R(26,36)                1.0884                                         !
 ! R35   R(27,29)                1.3997                                         !
 ! R36   R(27,37)                1.0881                                         !
 ! R37   R(28,29)                1.4009                                         !
 ! R38   R(28,38)                1.085                                          !
 ! R39   R(29,30)                1.3622                                         !
 ! R40   R(30,39)                0.97                                           !
 ! R41   R(40,41)                1.4588                                         !
 ! R42   R(40,51)                1.0113                                         !
 ! R43   R(41,42)                1.5273                                         !
 ! R44   R(41,44)                1.5688                                         !
 ! R45   R(41,52)                1.094                                          !
 ! R46   R(42,43)                1.2024                                         !
 ! R47   R(42,49)                1.3728                                         !
 ! R48   R(44,45)                1.557                                          !
 ! R49   R(44,53)                1.0927                                         !
 ! R50   R(44,54)                1.0958                                         !
 ! R51   R(45,46)                1.5424                                         !
 ! R52   R(45,55)                1.0945                                         !
 ! R53   R(45,56)                1.0949                                         !
 ! R54   R(46,47)                1.5371                                         !
 ! R55   R(46,57)                1.0975                                         !
 ! R56   R(46,58)                1.1004                                         !
 ! R57   R(47,48)                1.4831                                         !
 ! R58   R(47,59)                1.0953                                         !
 ! R59   R(47,60)                1.0956                                         !
 ! R60   R(48,61)                1.0189                                         !
 ! R61   R(48,62)                1.0216                                         !
 ! R62   R(49,50)                0.9766                                         !
 ! A1    A(2,1,11)             108.1175                                         !
 ! A2    A(2,1,17)             109.5947                                         !
 ! A3    A(2,1,18)             108.8615                                         !
 ! A4    A(11,1,17)            114.5747                                         !
 ! A5    A(11,1,18)            110.4405                                         !
 ! A6    A(17,1,18)            105.1275                                         !
 ! A7    A(1,2,3)              105.6319                                         !
 ! A8    A(1,2,5)              111.6202                                         !
 ! A9    A(1,2,12)             106.7364                                         !
 ! A10   A(3,2,5)              112.1364                                         !
 ! A11   A(3,2,12)             110.3259                                         !
 ! A12   A(5,2,12)             110.1737                                         !
 ! A13   A(2,3,4)              119.1685                                         !
 ! A14   A(2,3,19)             116.9904                                         !
 ! A15   A(4,3,19)             123.8215                                         !
 ! A16   A(2,5,6)              116.5952                                         !
 ! A17   A(2,5,13)             109.2085                                         !
 ! A18   A(2,5,14)             107.4221                                         !
 ! A19   A(6,5,13)             107.6924                                         !
 ! A20   A(6,5,14)             108.5972                                         !
 ! A21   A(13,5,14)            106.9354                                         !
 ! A22   A(5,6,7)              113.5584                                         !
 ! A23   A(5,6,15)             109.7641                                         !
 ! A24   A(5,6,16)             108.8653                                         !
 ! A25   A(7,6,15)             106.9572                                         !
 ! A26   A(7,6,16)             110.0407                                         !
 ! A27   A(15,6,16)            107.4748                                         !
 ! A28   A(6,7,8)              123.2878                                         !
 ! A29   A(6,7,9)              113.4322                                         !
 ! A30   A(8,7,9)              123.2764                                         !
 ! A31   A(7,9,10)             108.5402                                         !
 ! A32   A(3,19,20)            121.168                                          !
 ! A33   A(3,19,31)            119.7961                                         !
 ! A34   A(20,19,31)           115.9959                                         !
 ! A35   A(19,20,21)           105.5733                                         !
 ! A36   A(19,20,23)           111.4789                                         !
 ! A37   A(19,20,32)           106.82                                           !
 ! A38   A(21,20,23)           111.7297                                         !
 ! A39   A(21,20,32)           111.0626                                         !
 ! A40   A(23,20,32)           109.999                                          !
 ! A41   A(20,21,22)           122.1155                                         !
 ! A42   A(20,21,40)           115.1258                                         !
 ! A43   A(22,21,40)           122.4253                                         !
 ! A44   A(20,23,24)           111.0301                                         !
 ! A45   A(20,23,33)           108.5482                                         !
 ! A46   A(20,23,34)           107.9931                                         !
 ! A47   A(24,23,33)           110.5273                                         !
 ! A48   A(24,23,34)           110.5819                                         !
 ! A49   A(33,23,34)           108.0608                                         !
 ! A50   A(23,24,25)           121.2833                                         !
 ! A51   A(23,24,26)           120.3302                                         !
 ! A52   A(25,24,26)           118.3499                                         !
 ! A53   A(24,25,27)           120.9282                                         !
 ! A54   A(24,25,35)           119.5173                                         !
 ! A55   A(27,25,35)           119.5513                                         !
 ! A56   A(24,26,28)           121.3599                                         !
 ! A57   A(24,26,36)           119.6148                                         !
 ! A58   A(28,26,36)           119.0209                                         !
 ! A59   A(25,27,29)           119.9834                                         !
 ! A60   A(25,27,37)           119.9987                                         !
 ! A61   A(29,27,37)           120.0174                                         !
 ! A62   A(26,28,29)           119.6381                                         !
 ! A63   A(26,28,38)           121.5112                                         !
 ! A64   A(29,28,38)           118.8469                                         !
 ! A65   A(27,29,28)           119.7398                                         !
 ! A66   A(27,29,30)           123.1695                                         !
 ! A67   A(28,29,30)           117.0907                                         !
 ! A68   A(29,30,39)           109.6998                                         !
 ! A69   A(21,40,41)           121.1006                                         !
 ! A70   A(21,40,51)           119.0097                                         !
 ! A71   A(41,40,51)           119.7687                                         !
 ! A72   A(40,41,42)           111.9559                                         !
 ! A73   A(40,41,44)           110.0523                                         !
 ! A74   A(40,41,52)           109.2749                                         !
 ! A75   A(42,41,44)           112.7412                                         !
 ! A76   A(42,41,52)           103.1682                                         !
 ! A77   A(44,41,52)           109.3861                                         !
 ! A78   A(41,42,43)           124.1675                                         !
 ! A79   A(41,42,49)           113.6948                                         !
 ! A80   A(43,42,49)           121.8982                                         !
 ! A81   A(41,44,45)           118.5459                                         !
 ! A82   A(41,44,53)           106.541                                          !
 ! A83   A(41,44,54)           108.059                                          !
 ! A84   A(45,44,53)           108.9848                                         !
 ! A85   A(45,44,54)           108.7592                                         !
 ! A86   A(53,44,54)           105.1471                                         !
 ! A87   A(44,45,46)           115.9289                                         !
 ! A88   A(44,45,55)           107.7815                                         !
 ! A89   A(44,45,56)           111.3486                                         !
 ! A90   A(46,45,55)           106.9166                                         !
 ! A91   A(46,45,56)           109.4258                                         !
 ! A92   A(55,45,56)           104.7293                                         !
 ! A93   A(45,46,47)           117.8254                                         !
 ! A94   A(45,46,57)           107.7633                                         !
 ! A95   A(45,46,58)           109.4068                                         !
 ! A96   A(47,46,57)           106.7596                                         !
 ! A97   A(47,46,58)           108.7399                                         !
 ! A98   A(57,46,58)           105.6552                                         !
 ! A99   A(46,47,48)           115.6999                                         !
 ! A100  A(46,47,59)           110.3559                                         !
 ! A101  A(46,47,60)           108.8684                                         !
 ! A102  A(48,47,59)           106.8538                                         !
 ! A103  A(48,47,60)           107.5377                                         !
 ! A104  A(59,47,60)           107.1713                                         !
 ! A105  A(47,48,61)           109.1479                                         !
 ! A106  A(47,48,62)           109.9315                                         !
 ! A107  A(61,48,62)           105.3639                                         !
 ! A108  A(42,49,50)           104.8537                                         !
 ! D1    D(11,1,2,3)           169.5787                                         !
 ! D2    D(11,1,2,5)           -68.2945                                         !
 ! D3    D(11,1,2,12)           52.1402                                         !
 ! D4    D(17,1,2,3)           -64.9043                                         !
 ! D5    D(17,1,2,5)            57.2224                                         !
 ! D6    D(17,1,2,12)          177.6571                                         !
 ! D7    D(18,1,2,3)            49.5735                                         !
 ! D8    D(18,1,2,5)           171.7002                                         !
 ! D9    D(18,1,2,12)          -67.8651                                         !
 ! D10   D(1,2,3,4)             -7.4443                                         !
 ! D11   D(1,2,3,19)           171.0093                                         !
 ! D12   D(5,2,3,4)           -129.2389                                         !
 ! D13   D(5,2,3,19)            49.2147                                         !
 ! D14   D(12,2,3,4)           107.5503                                         !
 ! D15   D(12,2,3,19)          -73.9961                                         !
 ! D16   D(1,2,5,6)             38.1874                                         !
 ! D17   D(1,2,5,13)           -84.1115                                         !
 ! D18   D(1,2,5,14)           160.254                                          !
 ! D19   D(3,2,5,6)            156.4909                                         !
 ! D20   D(3,2,5,13)            34.192                                          !
 ! D21   D(3,2,5,14)           -81.4424                                         !
 ! D22   D(12,2,5,6)           -80.2126                                         !
 ! D23   D(12,2,5,13)          157.4885                                         !
 ! D24   D(12,2,5,14)           41.8541                                         !
 ! D25   D(2,3,19,20)         -165.8171                                         !
 ! D26   D(2,3,19,31)           -6.3231                                         !
 ! D27   D(4,3,19,20)           12.5575                                         !
 ! D28   D(4,3,19,31)          172.0515                                         !
 ! D29   D(2,5,6,7)             49.5716                                         !
 ! D30   D(2,5,6,15)           -70.0825                                         !
 ! D31   D(2,5,6,16)           172.532                                          !
 ! D32   D(13,5,6,7)           172.6586                                         !
 ! D33   D(13,5,6,15)           53.0045                                         !
 ! D34   D(13,5,6,16)          -64.381                                          !
 ! D35   D(14,5,6,7)           -71.8779                                         !
 ! D36   D(14,5,6,15)          168.4679                                         !
 ! D37   D(14,5,6,16)           51.0825                                         !
 ! D38   D(5,6,7,8)            -66.6297                                         !
 ! D39   D(5,6,7,9)            112.7073                                         !
 ! D40   D(15,6,7,8)            54.6096                                         !
 ! D41   D(15,6,7,9)          -126.0535                                         !
 ! D42   D(16,6,7,8)           171.0582                                         !
 ! D43   D(16,6,7,9)            -9.6048                                         !
 ! D44   D(6,7,9,10)           179.4848                                         !
 ! D45   D(8,7,9,10)            -1.1781                                         !
 ! D46   D(3,19,20,21)          79.744                                          !
 ! D47   D(3,19,20,23)        -158.7433                                         !
 ! D48   D(3,19,20,32)         -38.5509                                         !
 ! D49   D(31,19,20,21)        -80.4879                                         !
 ! D50   D(31,19,20,23)         41.0248                                         !
 ! D51   D(31,19,20,32)        161.2172                                         !
 ! D52   D(19,20,21,22)         88.1838                                         !
 ! D53   D(19,20,21,40)        -85.334                                          !
 ! D54   D(23,20,21,22)        -33.1663                                         !
 ! D55   D(23,20,21,40)        153.3158                                         !
 ! D56   D(32,20,21,22)       -156.3972                                         !
 ! D57   D(32,20,21,40)         30.085                                          !
 ! D58   D(19,20,23,24)        172.404                                          !
 ! D59   D(19,20,23,33)        -65.9103                                         !
 ! D60   D(19,20,23,34)         51.0134                                         !
 ! D61   D(21,20,23,24)        -69.7303                                         !
 ! D62   D(21,20,23,33)         51.9554                                         !
 ! D63   D(21,20,23,34)        168.8791                                         !
 ! D64   D(32,20,23,24)         54.1016                                         !
 ! D65   D(32,20,23,33)        175.7874                                         !
 ! D66   D(32,20,23,34)        -67.2889                                         !
 ! D67   D(20,21,40,41)        177.1609                                         !
 ! D68   D(20,21,40,51)         -6.8473                                         !
 ! D69   D(22,21,40,41)          3.6653                                         !
 ! D70   D(22,21,40,51)        179.6572                                         !
 ! D71   D(20,23,24,25)         92.4568                                         !
 ! D72   D(20,23,24,26)        -85.3061                                         !
 ! D73   D(33,23,24,25)        -28.0648                                         !
 ! D74   D(33,23,24,26)        154.1723                                         !
 ! D75   D(34,23,24,25)       -147.6832                                         !
 ! D76   D(34,23,24,26)         34.5539                                         !
 ! D77   D(23,24,25,27)       -178.0956                                         !
 ! D78   D(23,24,25,35)          1.2448                                         !
 ! D79   D(26,24,25,27)         -0.2897                                         !
 ! D80   D(26,24,25,35)        179.0507                                         !
 ! D81   D(23,24,26,28)        178.0028                                         !
 ! D82   D(23,24,26,36)         -2.7616                                         !
 ! D83   D(25,24,26,28)          0.1751                                         !
 ! D84   D(25,24,26,36)        179.4107                                         !
 ! D85   D(24,25,27,29)          0.1892                                         !
 ! D86   D(24,25,27,37)       -179.5505                                         !
 ! D87   D(35,25,27,29)       -179.1509                                         !
 ! D88   D(35,25,27,37)          1.1093                                         !
 ! D89   D(24,26,28,29)          0.0402                                         !
 ! D90   D(24,26,28,38)        179.3255                                         !
 ! D91   D(36,26,28,29)       -179.1999                                         !
 ! D92   D(36,26,28,38)          0.0855                                         !
 ! D93   D(25,27,29,28)          0.0322                                         !
 ! D94   D(25,27,29,30)       -179.9942                                         !
 ! D95   D(37,27,29,28)        179.7719                                         !
 ! D96   D(37,27,29,30)         -0.2545                                         !
 ! D97   D(26,28,29,27)         -0.1452                                         !
 ! D98   D(26,28,29,30)        179.8797                                         !
 ! D99   D(38,28,29,27)       -179.4496                                         !
 ! D100  D(38,28,29,30)          0.5752                                         !
 ! D101  D(27,29,30,39)          2.2192                                         !
 ! D102  D(28,29,30,39)       -177.8066                                         !
 ! D103  D(21,40,41,42)        -50.4395                                         !
 ! D104  D(21,40,41,44)       -176.6561                                         !
 ! D105  D(21,40,41,52)         63.2129                                         !
 ! D106  D(51,40,41,42)        133.5987                                         !
 ! D107  D(51,40,41,44)          7.3821                                         !
 ! D108  D(51,40,41,52)       -112.7489                                         !
 ! D109  D(40,41,42,43)        145.1996                                         !
 ! D110  D(40,41,42,49)        -40.344                                          !
 ! D111  D(44,41,42,43)        -90.0623                                         !
 ! D112  D(44,41,42,49)         84.3941                                         !
 ! D113  D(52,41,42,43)         27.8226                                         !
 ! D114  D(52,41,42,49)       -157.721                                          !
 ! D115  D(40,41,44,45)        131.9563                                         !
 ! D116  D(40,41,44,53)       -104.8215                                         !
 ! D117  D(40,41,44,54)          7.7315                                         !
 ! D118  D(42,41,44,45)          6.1841                                         !
 ! D119  D(42,41,44,53)        129.4063                                         !
 ! D120  D(42,41,44,54)       -118.0406                                         !
 ! D121  D(52,41,44,45)       -107.98                                           !
 ! D122  D(52,41,44,53)         15.2422                                         !
 ! D123  D(52,41,44,54)        127.7952                                         !
 ! D124  D(41,42,49,50)       -178.1893                                         !
 ! D125  D(43,42,49,50)         -3.5915                                         !
 ! D126  D(41,44,45,46)       -115.2319                                         !
 ! D127  D(41,44,45,55)        125.0517                                         !
 ! D128  D(41,44,45,56)         10.7191                                         !
 ! D129  D(53,44,45,46)        122.7697                                         !
 ! D130  D(53,44,45,55)          3.0532                                         !
 ! D131  D(53,44,45,56)       -111.2793                                         !
 ! D132  D(54,44,45,46)          8.6481                                         !
 ! D133  D(54,44,45,55)       -111.0684                                         !
 ! D134  D(54,44,45,56)        134.599                                          !
 ! D135  D(44,45,46,47)         72.8701                                         !
 ! D136  D(44,45,46,57)       -166.3683                                         !
 ! D137  D(44,45,46,58)        -51.9569                                         !
 ! D138  D(55,45,46,47)       -166.9445                                         !
 ! D139  D(55,45,46,57)        -46.1829                                         !
 ! D140  D(55,45,46,58)         68.2284                                         !
 ! D141  D(56,45,46,47)        -54.0489                                         !
 ! D142  D(56,45,46,57)         66.7126                                         !
 ! D143  D(56,45,46,58)       -178.876                                          !
 ! D144  D(45,46,47,48)        -68.498                                          !
 ! D145  D(45,46,47,59)         52.9519                                         !
 ! D146  D(45,46,47,60)        170.3117                                         !
 ! D147  D(57,46,47,48)        170.2218                                         !
 ! D148  D(57,46,47,59)        -68.3284                                         !
 ! D149  D(57,46,47,60)         49.0315                                         !
 ! D150  D(58,46,47,48)         56.6585                                         !
 ! D151  D(58,46,47,59)        178.1084                                         !
 ! D152  D(58,46,47,60)        -64.5318                                         !
 ! D153  D(46,47,48,61)         71.2531                                         !
 ! D154  D(46,47,48,62)        -43.8497                                         !
 ! D155  D(59,47,48,61)        -52.0563                                         !
 ! D156  D(59,47,48,62)       -167.1591                                         !
 ! D157  D(60,47,48,61)       -166.8438                                         !
 ! D158  D(60,47,48,62)         78.0534                                         !
 --------------------------------------------------------------------------------
 Symmetry turned off by external request.
 Stoichiometry    C20H31N4O7(1+)
 Framework group  C1[X(C20H31N4O7)]
 Deg. of freedom   180
 Full point group                 C1      NOp   1
                          Input orientation:                          
 ---------------------------------------------------------------------
 Center     Atomic      Atomic             Coordinates (Angstroms)
 Number     Number       Type             X           Y           Z
 ---------------------------------------------------------------------
      1          7           0       -6.334365  -87.734852  127.818026
      2          6           0       -5.675896  -87.880266  129.154515
      3          6           0       -4.314985  -88.557030  128.876704
      4          8           0       -4.069114  -88.969191  127.739561
      5          6           0       -5.513841  -86.513524  129.862037
      6          6           0       -6.676846  -85.506676  129.698256
      7          6           0       -8.039177  -86.101999  129.991544
      8          8           0       -8.555753  -86.970148  129.300601
      9          8           0       -8.613323  -85.598514  131.082153
     10          1           0       -9.486605  -86.024142  131.198713
     11          1           0       -7.318066  -87.449512  127.972918
     12          1           0       -6.314158  -88.540318  129.750182
     13          1           0       -4.601234  -86.028529  129.503356
     14          1           0       -5.371207  -86.711905  130.930126
     15          1           0       -6.704773  -85.137164  128.666420
     16          1           0       -6.495401  -84.648700  130.349028
     17          1           0       -5.750718  -87.043697  127.192548
     18          1           0       -6.295475  -88.634972  127.329885
     19          7           0       -3.447999  -88.630480  129.904226
     20          6           0       -2.026743  -88.966643  129.682769
     21          6           0       -1.361525  -87.658495  129.199188
     22          8           0       -0.896849  -86.837127  129.979829
     23          6           0       -1.369978  -89.498165  130.961430
     24          6           0        0.026729  -90.012155  130.681725
     25          6           0        1.146951  -89.184675  130.820269
     26          6           0        0.220841  -91.326099  130.229709
     27          6           0        2.425667  -89.654017  130.522978
     28          6           0        1.489476  -91.807068  129.927245
     29          6           0        2.601795  -90.968401  130.075240
     30          8           0        3.820212  -91.493689  129.766675
     31          1           0       -3.663473  -88.167371  130.778382
     32          1           0       -2.000605  -89.731505  128.903743
     33          1           0       -1.341035  -88.689618  131.700463
     34          1           0       -2.003152  -90.299801  131.359318
     35          1           0        1.016871  -88.159647  131.153813
     36          1           0       -0.634841  -91.990358  130.123670
     37          1           0        3.286872  -88.999860  130.643099
     38          1           0        1.643618  -92.826063  129.587809
     39          1           0        4.512785  -90.836877  129.939680
     40          7           0       -1.453506  -87.423399  127.860965
     41          6           0       -0.924805  -86.197365  127.273174
     42          6           0       -1.414030  -84.953015  128.011360
     43          8           0       -0.755984  -83.959107  128.169241
     44          6           0       -1.243467  -86.156078  125.737681
     45          6           0       -1.853212  -84.854508  125.139077
     46          6           0       -3.282389  -84.977891  124.572442
     47          6           0       -4.441291  -85.116254  125.572644
     48          7           0       -4.488225  -86.390334  126.330426
     49          8           0       -2.733329  -85.016589  128.385625
     50          1           0       -2.914002  -84.157296  128.812985
     51          1           0       -1.841413  -88.140501  127.262535
     52          1           0        0.158813  -86.164454  127.420189
     53          1           0       -0.308082  -86.381359  125.219665
     54          1           0       -1.908423  -86.995652  125.506064
     55          1           0       -1.210100  -84.532902  124.313878
     56          1           0       -1.816581  -84.029794  125.858268
     57          1           0       -3.484804  -84.079185  123.975888
     58          1           0       -3.323751  -85.819599  123.864765
     59          1           0       -4.405406  -84.308506  126.311446
     60          1           0       -5.389279  -85.018439  125.032251
     61          1           0       -3.725789  -86.405584  127.006098
     62          1           0       -4.309054  -87.175887  125.702368
 ---------------------------------------------------------------------
 Rotational constants (GHZ):           0.1941251           0.0819061           0.0667289
 Standard basis: 6-31G(d) (6D, 7F)
   527 basis functions,   992 primitive gaussians,   527 cartesian basis functions
   117 alpha electrons      117 beta electrons
       nuclear repulsion energy      3355.8602268984 Hartrees.
 NAtoms=   62 NActive=   62 NUniq=   62 SFac= 1.00D+00 NAtFMM=   60 NAOKFM=T Big=T
 Integral buffers will be    131072 words long.
 Raffenetti 2 integral format.
 Two-electron integral symmetry is turned off.
 Nuclear repulsion after empirical dispersion term =     3355.7752956168 Hartrees.
 One-electron integrals computed using PRISM.
 NBasis=   527 RedAO= T EigKep=  4.34D-04  NBF=   527
 NBsUse=   527 1.00D-06 EigRej= -1.00D+00 NBFU=   527
 Initial guess from the checkpoint file:  "conf-197.chk"
 B after Tr=     0.000000    0.000000    0.000000
         Rot=    1.000000    0.000000    0.000000    0.000000 Ang=   0.00 deg.
 Requested convergence on RMS density matrix=1.00D-08 within 128 cycles.
 Requested convergence on MAX density matrix=1.00D-06.
 Requested convergence on             energy=1.00D-06.
 No special actions if energy rises.
 SCF Done:  E(RB3LYP) =  -1526.30290241     A.U. after    1 cycles
            NFock=  1  Conv=0.87D-08     -V/T= 2.0093

 **********************************************************************

            Population analysis using the SCF Density.

 **********************************************************************

 Alpha  occ. eigenvalues --  -19.33598 -19.31261 -19.28500 -19.26478 -19.24534
 Alpha  occ. eigenvalues --  -19.24326 -19.22693 -14.55297 -14.50348 -14.47464
 Alpha  occ. eigenvalues --  -14.46504 -10.46634 -10.43762 -10.42761 -10.39983
 Alpha  occ. eigenvalues --  -10.39634 -10.35343 -10.35081 -10.34815 -10.34752
 Alpha  occ. eigenvalues --  -10.32958 -10.31805 -10.30797 -10.29256 -10.29074
 Alpha  occ. eigenvalues --  -10.28745 -10.26597 -10.26311 -10.26047 -10.25753
 Alpha  occ. eigenvalues --  -10.25330  -1.24814  -1.21508  -1.18659  -1.15826
 Alpha  occ. eigenvalues --   -1.14726  -1.12494  -1.12467  -1.10876  -1.06538
 Alpha  occ. eigenvalues --   -1.03852  -1.02102  -0.95212  -0.92896  -0.91063
 Alpha  occ. eigenvalues --   -0.89593  -0.87185  -0.86236  -0.81911  -0.81688
 Alpha  occ. eigenvalues --   -0.80571  -0.79447  -0.76090  -0.75115  -0.73874
 Alpha  occ. eigenvalues --   -0.72966  -0.71800  -0.71393  -0.69969  -0.69453
 Alpha  occ. eigenvalues --   -0.69217  -0.68202  -0.66066  -0.65236  -0.64514
 Alpha  occ. eigenvalues --   -0.63610  -0.62694  -0.61878  -0.61419  -0.61103
 Alpha  occ. eigenvalues --   -0.60506  -0.59849  -0.59402  -0.59010  -0.58259
 Alpha  occ. eigenvalues --   -0.57686  -0.57451  -0.56599  -0.55557  -0.55353
 Alpha  occ. eigenvalues --   -0.54707  -0.54620  -0.53899  -0.52925  -0.52842
 Alpha  occ. eigenvalues --   -0.51914  -0.51710  -0.51392  -0.51125  -0.50910
 Alpha  occ. eigenvalues --   -0.50518  -0.50212  -0.49777  -0.49210  -0.48874
 Alpha  occ. eigenvalues --   -0.47879  -0.47390  -0.47070  -0.46959  -0.45736
 Alpha  occ. eigenvalues --   -0.45430  -0.44510  -0.44219  -0.43600  -0.43145
 Alpha  occ. eigenvalues --   -0.42845  -0.42289  -0.40917  -0.40668  -0.40181
 Alpha  occ. eigenvalues --   -0.39764  -0.38972  -0.38657  -0.36390  -0.35700
 Alpha  occ. eigenvalues --   -0.32127  -0.28759
 Alpha virt. eigenvalues --   -0.13836  -0.12857  -0.09874  -0.08927  -0.07968
 Alpha virt. eigenvalues --   -0.07171  -0.06246  -0.05606  -0.05186  -0.04371
 Alpha virt. eigenvalues --   -0.03457  -0.01542  -0.00780  -0.00740  -0.00152
 Alpha virt. eigenvalues --    0.00647   0.00799   0.00886   0.01942   0.02055
 Alpha virt. eigenvalues --    0.02525   0.02602   0.03628   0.03795   0.04519
 Alpha virt. eigenvalues --    0.04551   0.04837   0.05588   0.05904   0.06236
 Alpha virt. eigenvalues --    0.06582   0.07021   0.07749   0.08098   0.08384
 Alpha virt. eigenvalues --    0.09222   0.09316   0.09566   0.09819   0.10355
 Alpha virt. eigenvalues --    0.10793   0.11453   0.11533   0.12107   0.13143
 Alpha virt. eigenvalues --    0.13433   0.14184   0.15391   0.15993   0.16097
 Alpha virt. eigenvalues --    0.16714   0.17184   0.18302   0.18588   0.18742
 Alpha virt. eigenvalues --    0.21002   0.21377   0.23158   0.23280   0.24561
 Alpha virt. eigenvalues --    0.25223   0.26854   0.27576   0.27927   0.28527
 Alpha virt. eigenvalues --    0.29392   0.30514   0.34566   0.35606   0.37304
 Alpha virt. eigenvalues --    0.38248   0.38929   0.39600   0.40579   0.41967
 Alpha virt. eigenvalues --    0.42382   0.42759   0.43422   0.43740   0.44188
 Alpha virt. eigenvalues --    0.44822   0.45502   0.45952   0.46171   0.46564
 Alpha virt. eigenvalues --    0.46888   0.47447   0.48251   0.48824   0.49373
 Alpha virt. eigenvalues --    0.50066   0.50091   0.50714   0.51153   0.51949
 Alpha virt. eigenvalues --    0.52563   0.52978   0.53011   0.54058   0.54393
 Alpha virt. eigenvalues --    0.54681   0.55041   0.55713   0.55935   0.56519
 Alpha virt. eigenvalues --    0.56817   0.57848   0.57964   0.58364   0.59076
 Alpha virt. eigenvalues --    0.59532   0.59606   0.61058   0.61991   0.62508
 Alpha virt. eigenvalues --    0.62780   0.63328   0.63963   0.65327   0.65757
 Alpha virt. eigenvalues --    0.66635   0.67057   0.67383   0.68627   0.68929
 Alpha virt. eigenvalues --    0.69080   0.69285   0.70359   0.70792   0.71963
 Alpha virt. eigenvalues --    0.72307   0.72644   0.73035   0.73888   0.74816
 Alpha virt. eigenvalues --    0.74909   0.75376   0.75423   0.76494   0.76686
 Alpha virt. eigenvalues --    0.77096   0.77431   0.77713   0.78225   0.78605
 Alpha virt. eigenvalues --    0.78843   0.79759   0.79865   0.80534   0.80604
 Alpha virt. eigenvalues --    0.81324   0.81736   0.82718   0.82878   0.83552
 Alpha virt. eigenvalues --    0.83649   0.84042   0.84401   0.84926   0.85435
 Alpha virt. eigenvalues --    0.86251   0.86917   0.87299   0.87834   0.88006
 Alpha virt. eigenvalues --    0.88698   0.89680   0.89889   0.90260   0.91168
 Alpha virt. eigenvalues --    0.91799   0.93040   0.93373   0.95032   0.96139
 Alpha virt. eigenvalues --    0.96656   0.97303   0.97745   0.98612   0.99238
 Alpha virt. eigenvalues --    1.00445   1.01081   1.02159   1.02774   1.04406
 Alpha virt. eigenvalues --    1.05163   1.07544   1.08177   1.08874   1.09964
 Alpha virt. eigenvalues --    1.11139   1.12529   1.13282   1.13759   1.15388
 Alpha virt. eigenvalues --    1.16194   1.17548   1.18013   1.18849   1.20373
 Alpha virt. eigenvalues --    1.20426   1.21727   1.23149   1.23642   1.24456
 Alpha virt. eigenvalues --    1.25020   1.26170   1.27844   1.28537   1.29899
 Alpha virt. eigenvalues --    1.30530   1.31036   1.31709   1.33490   1.34017
 Alpha virt. eigenvalues --    1.34262   1.34941   1.37831   1.38017   1.38401
 Alpha virt. eigenvalues --    1.39417   1.40318   1.40761   1.41710   1.43815
 Alpha virt. eigenvalues --    1.44385   1.45769   1.46051   1.47934   1.48454
 Alpha virt. eigenvalues --    1.49813   1.52163   1.53259   1.54206   1.55027
 Alpha virt. eigenvalues --    1.55233   1.57213   1.58457   1.59341   1.60822
 Alpha virt. eigenvalues --    1.61986   1.62288   1.63214   1.64234   1.64855
 Alpha virt. eigenvalues --    1.65420   1.66129   1.66511   1.66920   1.67053
 Alpha virt. eigenvalues --    1.67925   1.69011   1.69739   1.70481   1.71004
 Alpha virt. eigenvalues --    1.71520   1.72095   1.72861   1.73170   1.73777
 Alpha virt. eigenvalues --    1.74641   1.75895   1.76584   1.77711   1.78231
 Alpha virt. eigenvalues --    1.78553   1.79416   1.80249   1.80984   1.81324
 Alpha virt. eigenvalues --    1.82658   1.83170   1.83536   1.84663   1.85887
 Alpha virt. eigenvalues --    1.86452   1.87396   1.87951   1.88675   1.89408
 Alpha virt. eigenvalues --    1.89621   1.90050   1.90497   1.90858   1.91829
 Alpha virt. eigenvalues --    1.91983   1.92562   1.93468   1.94038   1.94763
 Alpha virt. eigenvalues --    1.95754   1.96514   1.96868   1.98090   1.98967
 Alpha virt. eigenvalues --    1.99511   2.00302   2.00761   2.03237   2.04657
 Alpha virt. eigenvalues --    2.06688   2.07434   2.08069   2.09930   2.11204
 Alpha virt. eigenvalues --    2.11889   2.14983   2.15781   2.18379   2.18770
 Alpha virt. eigenvalues --    2.19227   2.20662   2.20669   2.21179   2.21697
 Alpha virt. eigenvalues --    2.22453   2.23616   2.24209   2.25144   2.26138
 Alpha virt. eigenvalues --    2.26889   2.27529   2.29163   2.29319   2.29725
 Alpha virt. eigenvalues --    2.29878   2.31602   2.32803   2.33411   2.34705
 Alpha virt. eigenvalues --    2.35030   2.35851   2.36860   2.39004   2.39902
 Alpha virt. eigenvalues --    2.42541   2.43082   2.46230   2.46911   2.48082
 Alpha virt. eigenvalues --    2.48297   2.49769   2.51014   2.53286   2.54013
 Alpha virt. eigenvalues --    2.55224   2.56044   2.57206   2.57750   2.58440
 Alpha virt. eigenvalues --    2.58792   2.59745   2.60034   2.60357   2.62088
 Alpha virt. eigenvalues --    2.62693   2.63222   2.64808   2.66399   2.69297
 Alpha virt. eigenvalues --    2.70685   2.71733   2.73551   2.77135   2.79613
 Alpha virt. eigenvalues --    2.81416   2.82847   2.83943   2.84436   2.88651
 Alpha virt. eigenvalues --    2.89739   2.91253   2.93178   2.93897   2.99601
 Alpha virt. eigenvalues --    3.03072   3.05288   3.09221   3.34647   3.74295
 Alpha virt. eigenvalues --    3.76140   3.77976   3.84611   3.87621   3.93415
 Alpha virt. eigenvalues --    3.95328   3.98743   4.01085   4.02797   4.04489
 Alpha virt. eigenvalues --    4.05065   4.07397   4.09443   4.14260   4.16806
 Alpha virt. eigenvalues --    4.19516   4.22604   4.23275   4.27919   4.29491
 Alpha virt. eigenvalues --    4.34288   4.36246   4.37176   4.40713   4.43071
 Alpha virt. eigenvalues --    4.46400   4.52169   4.58524   4.63981   4.69073
          Condensed to atoms (all electrons):
 Mulliken charges:
               1
     1  N   -0.783989
     2  C   -0.110367
     3  C    0.648234
     4  O   -0.549709
     5  C   -0.331328
     6  C   -0.379937
     7  C    0.607043
     8  O   -0.481863
     9  O   -0.525780
    10  H    0.439273
    11  H    0.418017
    12  H    0.223901
    13  H    0.210454
    14  H    0.187607
    15  H    0.194777
    16  H    0.214970
    17  H    0.433158
    18  H    0.398072
    19  N   -0.597165
    20  C   -0.067416
    21  C    0.649636
    22  O   -0.513400
    23  C   -0.375155
    24  C    0.139735
    25  C   -0.188092
    26  C   -0.190282
    27  C   -0.195811
    28  C   -0.156385
    29  C    0.355450
    30  O   -0.631848
    31  H    0.352437
    32  H    0.191708
    33  H    0.172487
    34  H    0.162675
    35  H    0.160634
    36  H    0.127573
    37  H    0.134597
    38  H    0.154450
    39  H    0.415059
    40  N   -0.645447
    41  C   -0.000044
    42  C    0.614998
    43  O   -0.433852
    44  C   -0.328032
    45  C   -0.285623
    46  C   -0.286145
    47  C   -0.141508
    48  N   -0.810965
    49  O   -0.604821
    50  H    0.420631
    51  H    0.356618
    52  H    0.214680
    53  H    0.191137
    54  H    0.134131
    55  H    0.174516
    56  H    0.173399
    57  H    0.168494
    58  H    0.146221
    59  H    0.153045
    60  H    0.164849
    61  H    0.375537
    62  H    0.334761
 Sum of Mulliken charges =   1.00000
 Mulliken charges with hydrogens summed into heavy atoms:
               1
     1  N    0.465258
     2  C    0.113534
     3  C    0.648234
     4  O   -0.549709
     5  C    0.066733
     6  C    0.029810
     7  C    0.607043
     8  O   -0.481863
     9  O   -0.086507
    19  N   -0.244728
    20  C    0.124292
    21  C    0.649636
    22  O   -0.513400
    23  C   -0.039993
    24  C    0.139735
    25  C   -0.027458
    26  C   -0.062709
    27  C   -0.061214
    28  C   -0.001934
    29  C    0.355450
    30  O   -0.216789
    40  N   -0.288828
    41  C    0.214635
    42  C    0.614998
    43  O   -0.433852
    44  C   -0.002765
    45  C    0.062293
    46  C    0.028569
    47  C    0.176386
    48  N   -0.100668
    49  O   -0.184190
 Electronic spatial extent (au):  <R**2>=       20263410.3792
 Charge=              1.0000 electrons
 Dipole moment (field-independent basis, Debye):
    X=            -24.2387    Y=           -418.0397    Z=            616.1911  Tot=            745.0075
 Quadrupole moment (field-independent basis, Debye-Ang):
   XX=             -7.0404   YY=          36209.9788   ZZ=          78899.0903
   XY=           2098.2467   XZ=          -3124.2949   YZ=         -53636.5369
 Traceless Quadrupole moment (field-independent basis, Debye-Ang):
   XX=         -38374.3833   YY=          -2157.3641   ZZ=          40531.7474
   XY=           2098.2467   XZ=          -3124.2949   YZ=         -53636.5369
 Octapole moment (field-independent basis, Debye-Ang**2):
  XXX=            308.1257  YYY=       -3121000.9562  ZZZ=       10082887.0331  XYY=        -181260.1001
  XXY=            758.2958  XXZ=           -762.5066  XZZ=        -402387.1796  YZZ=       -6868615.8709
  YYZ=        4646469.0683  XYZ=         270463.2626
 Hexadecapole moment (field-independent basis, Debye-Ang**3):
 XXXX=          -9032.6195 YYYY=      267609778.1703 ZZZZ=     1285973265.2374 XXXY=         -26239.5320
 XXXZ=          37941.3262 YYYX=       15626616.5995 YYYZ=     -400527278.7884 ZZZX=      -51783257.8513
 ZZZY=     -877863110.5741 XXYY=         -82331.8608 XXZZ=         -82440.0680 YYZZ=      595073971.7630
 XXYZ=          85545.7507 YYXZ=      -23365051.4732 ZZXY=       34834757.8378
 N-N= 3.355775295617D+03 E-N=-1.024448259502D+04  KE= 1.512226117892D+03
 Unable to Open any file for archive entry.
 1\1\GINC-VIM-001\SP\RB3LYP\6-31G(d)\C20H31N4O7(1+)\KENGMITH\24-May-202
 2\0\\# B3LYP/6-31G* empiricaldispersion=gd3 guess=read geom=check nosy
 mm integral(ultrafinegrid)\\Candidate Structure: Conf:197 Charge calc 
 in gas phase\\1,1\N,0,-6.3343652362,-87.7348518112,127.8180257457\C,0,
 -5.675895877,-87.8802660861,129.1545153385\C,0,-4.3149849099,-88.55703
 04587,128.8767041794\O,0,-4.0691144448,-88.9691906121,127.7395609671\C
 ,0,-5.5138408971,-86.5135242347,129.862036598\C,0,-6.6768462443,-85.50
 66762791,129.6982558343\C,0,-8.0391774425,-86.1019987919,129.991544225
 9\O,0,-8.5557527555,-86.9701481649,129.3006006848\O,0,-8.6133226245,-8
 5.5985142982,131.082153007\H,0,-9.4866046889,-86.0241422207,131.198713
 1626\H,0,-7.3180657868,-87.4495118579,127.972917708\H,0,-6.3141581993,
 -88.5403182211,129.7501819794\H,0,-4.6012336631,-86.0285294069,129.503
 3557384\H,0,-5.3712073674,-86.7119047607,130.9301260018\H,0,-6.7047728
 049,-85.1371640176,128.6664203868\H,0,-6.4954006993,-84.6486999368,130
 .3490276337\H,0,-5.7507176543,-87.0436973249,127.1925482918\H,0,-6.295
 4749447,-88.6349717666,127.3298845047\N,0,-3.4479991736,-88.630480266,
 129.9042259866\C,0,-2.0267427541,-88.966642573,129.6827694308\C,0,-1.3
 615251873,-87.6584953869,129.1991875215\O,0,-0.8968493867,-86.83712749
 92,129.9798287834\C,0,-1.3699778289,-89.4981650483,130.9614302037\C,0,
 0.026728825,-90.0121548904,130.6817250405\C,0,1.1469512031,-89.1846746
 592,130.8202686905\C,0,0.2208411956,-91.3260987053,130.2297086234\C,0,
 2.4256674756,-89.6540166502,130.5229777917\C,0,1.4894761128,-91.807067
 7935,129.927245481\C,0,2.6017950903,-90.9684014478,130.075239806\O,0,3
 .820212432,-91.4936885361,129.7666753571\H,0,-3.6634727045,-88.1673712
 976,130.7783816938\H,0,-2.0006046396,-89.7315047321,128.9037433402\H,0
 ,-1.3410351686,-88.6896177082,131.7004633536\H,0,-2.0031520449,-90.299
 8008653,131.3593176068\H,0,1.0168714432,-88.159646726,131.1538131537\H
 ,0,-0.6348406949,-91.9903575241,130.1236697401\H,0,3.286871933,-88.999
 8604762,130.6430994665\H,0,1.6436180188,-92.8260630651,129.5878085643\
 H,0,4.5127845998,-90.8368765869,129.9396799741\N,0,-1.4535063134,-87.4
 233986804,127.8609645896\C,0,-0.9248050074,-86.1973651378,127.27317439
 21\C,0,-1.4140304549,-84.9530152947,128.0113601913\O,0,-0.7559837684,-
 83.9591074939,128.1692412559\C,0,-1.2434666163,-86.1560780625,125.7376
 814024\C,0,-1.8532115223,-84.8545081219,125.1390774841\C,0,-3.28238909
 92,-84.9778914412,124.5724415811\C,0,-4.4412913883,-85.116254189,125.5
 726438041\N,0,-4.4882250275,-86.3903337612,126.3304264608\O,0,-2.73332
 94346,-85.016589046,128.3856248969\H,0,-2.9140018756,-84.1572959027,12
 8.8129845089\H,0,-1.8414130248,-88.1405010603,127.2625354161\H,0,0.158
 8126349,-86.1644539198,127.420188755\H,0,-0.3080818502,-86.3813592072,
 125.2196652159\H,0,-1.9084225288,-86.9956523969,125.5060638898\H,0,-1.
 2100995805,-84.5329016189,124.3138778647\H,0,-1.8165814604,-84.0297942
 524,125.8582676225\H,0,-3.4848040192,-84.0791852865,123.9758880306\H,0
 ,-3.3237507034,-85.8195989083,123.8647650382\H,0,-4.4054055059,-84.308
 506487,126.3114462884\H,0,-5.3892790642,-85.0184390794,125.0322506788\
 H,0,-3.7257887638,-86.4055843288,127.006097591\H,0,-4.3090541117,-87.1
 758867455,125.7023675149\\Version=ES64L-G16RevC.01\HF=-1526.3029024\RM
 SD=8.658e-09\Dipole=-4.5677868,0.8653199,-0.8084002\Quadrupole=-28530.
 4134651,-1603.947304,30134.3607691,1559.9949578,-2322.8366548,-39877.4
 50575\PG=C01 [X(C20H31N4O7)]\\@
 The archive entry for this job was punched.


 BE NOT THE FIRST BY WHOM THE NEW ARE TRIED,
 NOR YET THE THE LAST TO LAY THE OLD ASIDE.

                          -- ALEXANDER POPE
 Job cpu time:       0 days  0 hours  1 minutes 42.8 seconds.
 Elapsed time:       0 days  0 hours  0 minutes 26.2 seconds.
 File lengths (MBytes):  RWF=    264 Int=      0 D2E=      0 Chk=     40 Scr=     16
 Normal termination of Gaussian 16 at Tue May 24 19:13:23 2022.
