 Entering Gaussian System, Link 0=/opt/software/Gaussian/g16-AVX2-C.01/g16/g16
 Input=charge-conf-962.com
 Output=charge-conf-962.log
 Initial command:
 /opt/software/Gaussian/g16-AVX2-C.01/g16/l1.exe "/mnt/gs18/scratch/users/kengmith/Gau-56798.inp" -scrdir="/mnt/gs18/scratch/users/kengmith/"
 Entering Link 1 = /opt/software/Gaussian/g16-AVX2-C.01/g16/l1.exe PID=     56830.
  
 Copyright (c) 1988-2019, Gaussian, Inc.  All Rights Reserved.
  
 This is part of the Gaussian(R) 16 program.  It is based on
 the Gaussian(R) 09 system (copyright 2009, Gaussian, Inc.),
 the Gaussian(R) 03 system (copyright 2003, Gaussian, Inc.),
 the Gaussian(R) 98 system (copyright 1998, Gaussian, Inc.),
 the Gaussian(R) 94 system (copyright 1995, Gaussian, Inc.),
 the Gaussian 92(TM) system (copyright 1992, Gaussian, Inc.),
 the Gaussian 90(TM) system (copyright 1990, Gaussian, Inc.),
 the Gaussian 88(TM) system (copyright 1988, Gaussian, Inc.),
 the Gaussian 86(TM) system (copyright 1986, Carnegie Mellon
 University), and the Gaussian 82(TM) system (copyright 1983,
 Carnegie Mellon University). Gaussian is a federally registered
 trademark of Gaussian, Inc.
  
 This software contains proprietary and confidential information,
 including trade secrets, belonging to Gaussian, Inc.
  
 This software is provided under written license and may be
 used, copied, transmitted, or stored only in accord with that
 written license.
  
 The following legend is applicable only to US Government
 contracts under FAR:
  
                    RESTRICTED RIGHTS LEGEND
  
 Use, reproduction and disclosure by the US Government is
 subject to restrictions as set forth in subparagraphs (a)
 and (c) of the Commercial Computer Software - Restricted
 Rights clause in FAR 52.227-19.
  
 Gaussian, Inc.
 340 Quinnipiac St., Bldg. 40, Wallingford CT 06492
  
  
 ---------------------------------------------------------------
 Warning -- This program may not be used in any manner that
 competes with the business of Gaussian, Inc. or will provide
 assistance to any competitor of Gaussian, Inc.  The licensee
 of this program is prohibited from giving any competitor of
 Gaussian, Inc. access to this program.  By using this program,
 the user acknowledges that Gaussian, Inc. is engaged in the
 business of creating and licensing software in the field of
 computational chemistry and represents and warrants to the
 licensee that it is not a competitor of Gaussian, Inc. and that
 it will not use this program in any manner prohibited above.
 ---------------------------------------------------------------
  

 Cite this work as:
 Gaussian 16, Revision C.01,
 M. J. Frisch, G. W. Trucks, H. B. Schlegel, G. E. Scuseria, 
 M. A. Robb, J. R. Cheeseman, G. Scalmani, V. Barone, 
 G. A. Petersson, H. Nakatsuji, X. Li, M. Caricato, A. V. Marenich, 
 J. Bloino, B. G. Janesko, R. Gomperts, B. Mennucci, H. P. Hratchian, 
 J. V. Ortiz, A. F. Izmaylov, J. L. Sonnenberg, D. Williams-Young, 
 F. Ding, F. Lipparini, F. Egidi, J. Goings, B. Peng, A. Petrone, 
 T. Henderson, D. Ranasinghe, V. G. Zakrzewski, J. Gao, N. Rega, 
 G. Zheng, W. Liang, M. Hada, M. Ehara, K. Toyota, R. Fukuda, 
 J. Hasegawa, M. Ishida, T. Nakajima, Y. Honda, O. Kitao, H. Nakai, 
 T. Vreven, K. Throssell, J. A. Montgomery, Jr., J. E. Peralta, 
 F. Ogliaro, M. J. Bearpark, J. J. Heyd, E. N. Brothers, K. N. Kudin, 
 V. N. Staroverov, T. A. Keith, R. Kobayashi, J. Normand, 
 K. Raghavachari, A. P. Rendell, J. C. Burant, S. S. Iyengar, 
 J. Tomasi, M. Cossi, J. M. Millam, M. Klene, C. Adamo, R. Cammi, 
 J. W. Ochterski, R. L. Martin, K. Morokuma, O. Farkas, 
 J. B. Foresman, and D. J. Fox, Gaussian, Inc., Wallingford CT, 2019.
 
 ******************************************
 Gaussian 16:  ES64L-G16RevC.01  3-Jul-2019
                24-May-2022 
 ******************************************
 %mem=8gb
 %nproc=4
 Will use up to    4 processors via shared memory.
 %chk=conf-962.chk
 ----------------------------------------------------------------------
 # B3LYP/6-31G* empiricaldispersion=gd3 guess=read geom=check nosymm in
 tegral(ultrafinegrid)
 ----------------------------------------------------------------------
 1/29=2,38=1,172=1/1;
 2/12=2,15=1,40=1/2;
 3/5=1,6=6,7=1,11=2,14=-4,25=1,30=1,74=-5,75=-5,116=-2,124=31/1,2,3;
 4/5=1/1;
 5/5=2,38=6/2;
 6/7=2,8=2,9=2,10=2,28=1/1;
 99/5=1,9=1/99;
 ------------------------------------------------------
 Candidate Structure: Conf:962 Charge calc in gas phase
 ------------------------------------------------------
 Structure from the checkpoint file:  "conf-962.chk"
 Charge =  1 Multiplicity = 1
 Redundant internal coordinates found in file.  (old form).
 N,0,-1.1715125406,-90.4016216467,127.6220135538
 C,0,-2.4614402341,-90.983606077,127.0772994492
 C,0,-3.5564459973,-90.009285995,127.5707477934
 O,0,-4.0418292493,-90.1926800465,128.6733883628
 C,0,-2.3907094437,-91.259975509,125.5684197708
 C,0,-1.1029858652,-91.9477730752,125.0449959954
 C,0,-0.6250741636,-93.0918448691,125.9138272016
 O,0,-0.1858503829,-92.9327173585,127.0453066014
 O,0,-0.7354522105,-94.2855887719,125.3341724817
 H,0,-0.3969773328,-94.9629649281,125.9534863387
 H,0,-0.4254002522,-91.1123729707,127.508331831
 H,0,-2.6068542173,-91.9134387584,127.6279814738
 H,0,-2.5029929372,-90.3361730528,124.9910866507
 H,0,-3.2622217481,-91.8780169728,125.3281462672
 H,0,-0.2818900435,-91.2220683115,125.012219401
 H,0,-1.2746079701,-92.2931342954,124.0236323791
 H,0,-0.9533513258,-89.4890289724,127.1836130574
 H,0,-1.2601132598,-90.1452436041,128.6333229204
 N,0,-3.7960317307,-88.8907325716,126.8026431075
 C,0,-3.9153919352,-87.6330545894,127.5503402625
 C,0,-2.4934794217,-87.3254714655,128.0744256538
 O,0,-1.490128708,-87.6893830552,127.4358105845
 C,0,-4.4914436317,-86.4716298909,126.7178424262
 C,0,-4.5525790417,-85.2278010332,127.5803831443
 C,0,-5.4829464991,-85.1375450772,128.6239488319
 C,0,-3.5908020598,-84.2146492202,127.463510918
 C,0,-5.4491130893,-84.0804177389,129.5346394969
 C,0,-3.5470813132,-83.1500917021,128.3575900759
 C,0,-4.4754208138,-83.0806650351,129.404285147
 O,0,-4.3727620651,-82.0248485131,130.2569212865
 H,0,-3.1821892972,-88.7807358371,126.0031957937
 H,0,-4.5757878144,-87.8313870811,128.3959515754
 H,0,-3.8580869432,-86.2998610021,125.8389380994
 H,0,-5.4823033778,-86.7705227857,126.3579782355
 H,0,-6.2482526803,-85.9034817007,128.7333834735
 H,0,-2.8534339912,-84.2655866098,126.6659841919
 H,0,-6.1868925691,-84.0226478267,130.3322265737
 H,0,-2.8073271497,-82.3620508305,128.2623966193
 H,0,-5.1115944437,-82.0329433766,130.8856320993
 N,0,-2.3990890916,-86.7245542447,129.2649755158
 C,0,-1.1325241201,-86.6358064748,129.9681694036
 C,0,-0.5051237805,-88.0161746713,130.2594705243
 O,0,0.6187443034,-88.0915491188,130.7006399653
 C,0,-1.2846646423,-85.8371584146,131.2873613904
 C,0,-2.4772360269,-86.1983555133,132.2068543002
 C,0,-2.7498237244,-87.6921085262,132.4747641447
 C,0,-1.5904994755,-88.4628639184,133.1447853302
 N,0,-1.4684085907,-89.8327870704,132.5656241564
 O,0,-1.3157320169,-89.0953200771,130.1114391191
 H,0,-1.2970322533,-89.6021572882,131.0615227202
 H,0,-3.2446566844,-86.4029453678,129.716849423
 H,0,-0.4053858143,-86.1148818318,129.3376397504
 H,0,-0.3344756069,-85.9431859388,131.818315757
 H,0,-1.3761788323,-84.7768102928,131.0253447108
 H,0,-3.3980682131,-85.7622965634,131.7934729439
 H,0,-2.3189040071,-85.6730776273,133.1571281011
 H,0,-3.6463644986,-87.7696117223,133.101135626
 H,0,-3.0004288323,-88.1821032604,131.5283508555
 H,0,-0.6311407117,-87.9739903967,132.9620457324
 H,0,-1.7300142287,-88.5041200691,134.2317176871
 H,0,-2.3034912512,-90.3822685513,132.7720805995
 H,0,-0.6776712408,-90.3248500629,132.9813331674
 Recover connectivity data from disk.
                           ----------------------------
                           !    Current Parameters    !
                           ! (Angstroms and Degrees)  !
 --------------------------                            --------------------------
 ! Name  Definition              Value                                          !
 --------------------------------------------------------------------------------
 ! R1    R(1,2)                  1.5164                                         !
 ! R2    R(1,11)                 1.0367                                         !
 ! R3    R(1,17)                 1.0357                                         !
 ! R4    R(1,18)                 1.0471                                         !
 ! R5    R(2,3)                  1.5466                                         !
 ! R6    R(2,5)                  1.5356                                         !
 ! R7    R(2,12)                 1.0904                                         !
 ! R8    R(3,4)                  1.2186                                         !
 ! R9    R(3,19)                 1.3779                                         !
 ! R10   R(5,6)                  1.5509                                         !
 ! R11   R(5,13)                 1.0951                                         !
 ! R12   R(5,14)                 1.0951                                         !
 ! R13   R(6,7)                  1.514                                          !
 ! R14   R(6,15)                 1.0963                                         !
 ! R15   R(6,16)                 1.0917                                         !
 ! R16   R(7,8)                  1.2241                                         !
 ! R17   R(7,9)                  1.3316                                         !
 ! R18   R(9,10)                 0.9782                                         !
 ! R19   R(19,20)                1.468                                          !
 ! R20   R(19,31)                1.0139                                         !
 ! R21   R(20,21)                1.5463                                         !
 ! R22   R(20,23)                1.5407                                         !
 ! R23   R(20,32)                1.0911                                         !
 ! R24   R(21,22)                1.2438                                         !
 ! R25   R(21,40)                1.3369                                         !
 ! R26   R(23,24)                1.5149                                         !
 ! R27   R(23,33)                1.0969                                         !
 ! R28   R(23,34)                1.0957                                         !
 ! R29   R(24,25)                1.401                                          !
 ! R30   R(24,26)                1.4018                                         !
 ! R31   R(25,27)                1.3957                                         !
 ! R32   R(25,35)                1.0883                                         !
 ! R33   R(26,28)                1.3909                                         !
 ! R34   R(26,36)                1.0874                                         !
 ! R35   R(27,29)                1.4016                                         !
 ! R36   R(27,37)                1.088                                          !
 ! R37   R(28,29)                1.4008                                         !
 ! R38   R(28,38)                1.085                                          !
 ! R39   R(29,30)                1.361                                          !
 ! R40   R(30,39)                0.9702                                         !
 ! R41   R(40,41)                1.4514                                         !
 ! R42   R(40,51)                1.0112                                         !
 ! R43   R(41,42)                1.544                                          !
 ! R44   R(41,44)                1.5496                                         !
 ! R45   R(41,52)                1.0944                                         !
 ! R46   R(42,43)                1.2097                                         !
 ! R47   R(42,49)                1.3578                                         !
 ! R48   R(44,45)                1.5486                                         !
 ! R49   R(44,53)                1.0936                                         !
 ! R50   R(44,54)                1.0961                                         !
 ! R51   R(45,46)                1.5419                                         !
 ! R52   R(45,55)                1.0995                                         !
 ! R53   R(45,56)                1.0973                                         !
 ! R54   R(46,47)                1.545                                          !
 ! R55   R(46,57)                1.0964                                         !
 ! R56   R(46,58)                1.0948                                         !
 ! R57   R(47,48)                1.4923                                         !
 ! R58   R(47,59)                1.0921                                         !
 ! R59   R(47,60)                1.0966                                         !
 ! R60   R(48,61)                1.0207                                         !
 ! R61   R(48,62)                1.0199                                         !
 ! R62   R(49,50)                1.077                                          !
 ! A1    A(2,1,11)             108.0413                                         !
 ! A2    A(2,1,17)             111.4276                                         !
 ! A3    A(2,1,18)             111.6512                                         !
 ! A4    A(11,1,17)            113.9594                                         !
 ! A5    A(11,1,18)            109.5531                                         !
 ! A6    A(17,1,18)            102.1761                                         !
 ! A7    A(1,2,3)              104.2346                                         !
 ! A8    A(1,2,5)              112.5113                                         !
 ! A9    A(1,2,12)             105.0292                                         !
 ! A10   A(3,2,5)              117.3551                                         !
 ! A11   A(3,2,12)             106.3596                                         !
 ! A12   A(5,2,12)             110.4204                                         !
 ! A13   A(2,3,4)              118.4178                                         !
 ! A14   A(2,3,19)             117.1727                                         !
 ! A15   A(4,3,19)             123.87                                           !
 ! A16   A(2,5,6)              116.7234                                         !
 ! A17   A(2,5,13)             111.19                                           !
 ! A18   A(2,5,14)             106.2903                                         !
 ! A19   A(6,5,13)             106.3384                                         !
 ! A20   A(6,5,14)             109.6605                                         !
 ! A21   A(13,5,14)            106.1892                                         !
 ! A22   A(5,6,7)              113.8                                            !
 ! A23   A(5,6,15)             109.779                                          !
 ! A24   A(5,6,16)             108.9963                                         !
 ! A25   A(7,6,15)             106.3168                                         !
 ! A26   A(7,6,16)             110.3313                                         !
 ! A27   A(15,6,16)            107.4074                                         !
 ! A28   A(6,7,8)              123.0565                                         !
 ! A29   A(6,7,9)              113.6691                                         !
 ! A30   A(8,7,9)              123.2731                                         !
 ! A31   A(7,9,10)             108.4504                                         !
 ! A32   A(3,19,20)            115.1946                                         !
 ! A33   A(3,19,31)            114.9824                                         !
 ! A34   A(20,19,31)           110.9697                                         !
 ! A35   A(19,20,21)           105.5614                                         !
 ! A36   A(19,20,23)           113.6414                                         !
 ! A37   A(19,20,32)           106.751                                          !
 ! A38   A(21,20,23)           112.1475                                         !
 ! A39   A(21,20,32)           109.2716                                         !
 ! A40   A(23,20,32)           109.2377                                         !
 ! A41   A(20,21,22)           120.6356                                         !
 ! A42   A(20,21,40)           117.1382                                         !
 ! A43   A(22,21,40)           122.1259                                         !
 ! A44   A(20,23,24)           109.0493                                         !
 ! A45   A(20,23,33)           109.5798                                         !
 ! A46   A(20,23,34)           108.0551                                         !
 ! A47   A(24,23,33)           110.5461                                         !
 ! A48   A(24,23,34)           111.9919                                         !
 ! A49   A(33,23,34)           107.5605                                         !
 ! A50   A(23,24,25)           120.253                                          !
 ! A51   A(23,24,26)           121.2158                                         !
 ! A52   A(25,24,26)           118.1093                                         !
 ! A53   A(24,25,27)           121.2467                                         !
 ! A54   A(24,25,35)           119.773                                          !
 ! A55   A(27,25,35)           118.9802                                         !
 ! A56   A(24,26,28)           121.4086                                         !
 ! A57   A(24,26,36)           119.5078                                         !
 ! A58   A(28,26,36)           119.0786                                         !
 ! A59   A(25,27,29)           119.7621                                         !
 ! A60   A(25,27,37)           120.1385                                         !
 ! A61   A(29,27,37)           120.0901                                         !
 ! A62   A(26,28,29)           119.8297                                         !
 ! A63   A(26,28,38)           121.3936                                         !
 ! A64   A(29,28,38)           118.7763                                         !
 ! A65   A(27,29,28)           119.6386                                         !
 ! A66   A(27,29,30)           123.1942                                         !
 ! A67   A(28,29,30)           117.1668                                         !
 ! A68   A(29,30,39)           110.0033                                         !
 ! A69   A(21,40,41)           121.3683                                         !
 ! A70   A(21,40,51)           118.8052                                         !
 ! A71   A(41,40,51)           119.5868                                         !
 ! A72   A(40,41,42)           113.0382                                         !
 ! A73   A(40,41,44)           110.9954                                         !
 ! A74   A(40,41,52)           109.2555                                         !
 ! A75   A(42,41,44)           109.8801                                         !
 ! A76   A(42,41,52)           105.3235                                         !
 ! A77   A(44,41,52)           108.083                                          !
 ! A78   A(41,42,43)           120.1342                                         !
 ! A79   A(41,42,49)           116.5768                                         !
 ! A80   A(43,42,49)           123.017                                          !
 ! A81   A(41,44,45)           117.4434                                         !
 ! A82   A(41,44,53)           106.1433                                         !
 ! A83   A(41,44,54)           107.655                                          !
 ! A84   A(45,44,53)           110.9904                                         !
 ! A85   A(45,44,54)           107.6548                                         !
 ! A86   A(53,44,54)           106.4031                                         !
 ! A87   A(44,45,46)           117.7281                                         !
 ! A88   A(44,45,55)           109.2208                                         !
 ! A89   A(44,45,56)           106.944                                          !
 ! A90   A(46,45,55)           107.5464                                         !
 ! A91   A(46,45,56)           109.804                                          !
 ! A92   A(55,45,56)           104.8678                                         !
 ! A93   A(45,46,47)           115.2137                                         !
 ! A94   A(45,46,57)           108.1983                                         !
 ! A95   A(45,46,58)           108.8964                                         !
 ! A96   A(47,46,57)           109.303                                          !
 ! A97   A(47,46,58)           108.8673                                         !
 ! A98   A(57,46,58)           105.9646                                         !
 ! A99   A(46,47,48)           110.5509                                         !
 ! A100  A(46,47,59)           111.3013                                         !
 ! A101  A(46,47,60)           110.6796                                         !
 ! A102  A(48,47,59)           105.9092                                         !
 ! A103  A(48,47,60)           111.1332                                         !
 ! A104  A(59,47,60)           107.1239                                         !
 ! A105  A(47,48,61)           110.41                                           !
 ! A106  A(47,48,62)           110.3732                                         !
 ! A107  A(61,48,62)           106.9856                                         !
 ! A108  A(42,49,50)           105.515                                          !
 ! D1    D(11,1,2,3)           167.6485                                         !
 ! D2    D(11,1,2,5)           -64.1596                                         !
 ! D3    D(11,1,2,12)           55.9951                                         !
 ! D4    D(17,1,2,3)           -66.4333                                         !
 ! D5    D(17,1,2,5)            61.7585                                         !
 ! D6    D(17,1,2,12)         -178.0868                                         !
 ! D7    D(18,1,2,3)            47.1177                                         !
 ! D8    D(18,1,2,5)           175.3095                                         !
 ! D9    D(18,1,2,12)          -64.5358                                         !
 ! D10   D(1,2,3,4)            -86.9426                                         !
 ! D11   D(1,2,3,19)            84.964                                          !
 ! D12   D(5,2,3,4)            147.8899                                         !
 ! D13   D(5,2,3,19)           -40.2034                                         !
 ! D14   D(12,2,3,4)            23.7456                                         !
 ! D15   D(12,2,3,19)         -164.3478                                         !
 ! D16   D(1,2,5,6)             44.6465                                         !
 ! D17   D(1,2,5,13)           -77.5596                                         !
 ! D18   D(1,2,5,14)           167.3006                                         !
 ! D19   D(3,2,5,6)            165.584                                          !
 ! D20   D(3,2,5,13)            43.3779                                         !
 ! D21   D(3,2,5,14)           -71.762                                          !
 ! D22   D(12,2,5,6)           -72.3426                                         !
 ! D23   D(12,2,5,13)          165.4513                                         !
 ! D24   D(12,2,5,14)           50.3115                                         !
 ! D25   D(2,3,19,20)         -134.6169                                         !
 ! D26   D(2,3,19,31)           -3.6578                                         !
 ! D27   D(4,3,19,20)           36.8067                                         !
 ! D28   D(4,3,19,31)          167.7658                                         !
 ! D29   D(2,5,6,7)             43.295                                          !
 ! D30   D(2,5,6,15)           -75.7121                                         !
 ! D31   D(2,5,6,16)           166.8989                                         !
 ! D32   D(13,5,6,7)           167.9968                                         !
 ! D33   D(13,5,6,15)           48.9897                                         !
 ! D34   D(13,5,6,16)          -68.3993                                         !
 ! D35   D(14,5,6,7)           -77.5931                                         !
 ! D36   D(14,5,6,15)          163.3998                                         !
 ! D37   D(14,5,6,16)           46.0108                                         !
 ! D38   D(5,6,7,8)            -67.6341                                         !
 ! D39   D(5,6,7,9)            111.9803                                         !
 ! D40   D(15,6,7,8)            53.3287                                         !
 ! D41   D(15,6,7,9)          -127.057                                          !
 ! D42   D(16,6,7,8)           169.49                                           !
 ! D43   D(16,6,7,9)           -10.8957                                         !
 ! D44   D(6,7,9,10)           179.2877                                         !
 ! D45   D(8,7,9,10)            -1.0989                                         !
 ! D46   D(3,19,20,21)          69.7611                                         !
 ! D47   D(3,19,20,23)        -166.934                                          !
 ! D48   D(3,19,20,32)         -46.4452                                         !
 ! D49   D(31,19,20,21)        -63.0943                                         !
 ! D50   D(31,19,20,23)         60.2106                                         !
 ! D51   D(31,19,20,32)       -179.3007                                         !
 ! D52   D(19,20,21,22)         30.4614                                         !
 ! D53   D(19,20,21,40)       -145.9756                                         !
 ! D54   D(23,20,21,22)        -93.7867                                         !
 ! D55   D(23,20,21,40)         89.7763                                         !
 ! D56   D(32,20,21,22)        144.9371                                         !
 ! D57   D(32,20,21,40)        -31.4999                                         !
 ! D58   D(19,20,23,24)       -179.2874                                         !
 ! D59   D(19,20,23,33)        -58.1631                                         !
 ! D60   D(19,20,23,34)         58.758                                          !
 ! D61   D(21,20,23,24)        -59.6603                                         !
 ! D62   D(21,20,23,33)         61.464                                          !
 ! D63   D(21,20,23,34)        178.385                                          !
 ! D64   D(32,20,23,24)         61.6354                                         !
 ! D65   D(32,20,23,33)       -177.2403                                         !
 ! D66   D(32,20,23,34)        -60.3193                                         !
 ! D67   D(20,21,40,41)        167.3444                                         !
 ! D68   D(20,21,40,51)         -7.0076                                         !
 ! D69   D(22,21,40,41)         -9.0355                                         !
 ! D70   D(22,21,40,51)        176.6125                                         !
 ! D71   D(20,23,24,25)        -70.6852                                         !
 ! D72   D(20,23,24,26)        101.7188                                         !
 ! D73   D(33,23,24,25)        168.7819                                         !
 ! D74   D(33,23,24,26)        -18.8141                                         !
 ! D75   D(34,23,24,25)         48.8572                                         !
 ! D76   D(34,23,24,26)       -138.7388                                         !
 ! D77   D(23,24,25,27)        171.8731                                         !
 ! D78   D(23,24,25,35)         -8.0325                                         !
 ! D79   D(26,24,25,27)         -0.7632                                         !
 ! D80   D(26,24,25,35)        179.3312                                         !
 ! D81   D(23,24,26,28)       -172.1624                                         !
 ! D82   D(23,24,26,36)          7.0188                                         !
 ! D83   D(25,24,26,28)          0.3996                                         !
 ! D84   D(25,24,26,36)        179.5808                                         !
 ! D85   D(24,25,27,29)          0.4744                                         !
 ! D86   D(24,25,27,37)        179.3672                                         !
 ! D87   D(35,25,27,29)       -179.6192                                         !
 ! D88   D(35,25,27,37)         -0.7265                                         !
 ! D89   D(24,26,28,29)          0.2502                                         !
 ! D90   D(24,26,28,38)       -179.5249                                         !
 ! D91   D(36,26,28,29)       -178.9344                                         !
 ! D92   D(36,26,28,38)          1.2905                                         !
 ! D93   D(25,27,29,28)          0.1929                                         !
 ! D94   D(25,27,29,30)       -179.5402                                         !
 ! D95   D(37,27,29,28)       -178.7004                                         !
 ! D96   D(37,27,29,30)          1.5666                                         !
 ! D97   D(26,28,29,27)         -0.5492                                         !
 ! D98   D(26,28,29,30)        179.1997                                         !
 ! D99   D(38,28,29,27)        179.2318                                         !
 ! D100  D(38,28,29,30)         -1.0194                                         !
 ! D101  D(27,29,30,39)         -5.633                                          !
 ! D102  D(28,29,30,39)        174.6278                                         !
 ! D103  D(21,40,41,42)        -58.645                                          !
 ! D104  D(21,40,41,44)        177.3678                                         !
 ! D105  D(21,40,41,52)         58.2748                                         !
 ! D106  D(51,40,41,42)        115.6636                                         !
 ! D107  D(51,40,41,44)         -8.3236                                         !
 ! D108  D(51,40,41,52)       -127.4166                                         !
 ! D109  D(40,41,42,43)        171.5071                                         !
 ! D110  D(40,41,42,49)        -14.3038                                         !
 ! D111  D(44,41,42,43)        -63.8963                                         !
 ! D112  D(44,41,42,49)        110.2928                                         !
 ! D113  D(52,41,42,43)         52.2914                                         !
 ! D114  D(52,41,42,49)       -133.5194                                         !
 ! D115  D(40,41,44,45)         47.1249                                         !
 ! D116  D(40,41,44,53)        171.9115                                         !
 ! D117  D(40,41,44,54)        -74.4702                                         !
 ! D118  D(42,41,44,45)        -78.6435                                         !
 ! D119  D(42,41,44,53)         46.143                                          !
 ! D120  D(42,41,44,54)        159.7614                                         !
 ! D121  D(52,41,44,45)        166.9198                                         !
 ! D122  D(52,41,44,53)        -68.2937                                         !
 ! D123  D(52,41,44,54)         45.3247                                         !
 ! D124  D(41,42,49,50)       -123.4144                                         !
 ! D125  D(43,42,49,50)         50.5915                                         !
 ! D126  D(41,44,45,46)         45.7187                                         !
 ! D127  D(41,44,45,55)        -77.2346                                         !
 ! D128  D(41,44,45,56)        169.7931                                         !
 ! D129  D(53,44,45,46)        -76.6124                                         !
 ! D130  D(53,44,45,55)        160.4343                                         !
 ! D131  D(53,44,45,56)         47.4619                                         !
 ! D132  D(54,44,45,46)        167.3139                                         !
 ! D133  D(54,44,45,55)         44.3606                                         !
 ! D134  D(54,44,45,56)        -68.6117                                         !
 ! D135  D(44,45,46,47)         59.8515                                         !
 ! D136  D(44,45,46,57)       -177.5052                                         !
 ! D137  D(44,45,46,58)        -62.7621                                         !
 ! D138  D(55,45,46,47)       -176.3505                                         !
 ! D139  D(55,45,46,57)        -53.7072                                         !
 ! D140  D(55,45,46,58)         61.036                                          !
 ! D141  D(56,45,46,47)        -62.7794                                         !
 ! D142  D(56,45,46,57)         59.8639                                         !
 ! D143  D(56,45,46,58)        174.6071                                         !
 ! D144  D(45,46,47,48)       -140.95                                           !
 ! D145  D(45,46,47,59)        -23.538                                          !
 ! D146  D(45,46,47,60)         95.4724                                         !
 ! D147  D(57,46,47,48)         96.9989                                         !
 ! D148  D(57,46,47,59)       -145.5892                                         !
 ! D149  D(57,46,47,60)        -26.5787                                         !
 ! D150  D(58,46,47,48)        -18.3209                                         !
 ! D151  D(58,46,47,59)         99.0911                                         !
 ! D152  D(58,46,47,60)       -141.8985                                         !
 ! D153  D(46,47,48,61)        -64.3381                                         !
 ! D154  D(46,47,48,62)        177.5834                                         !
 ! D155  D(59,47,48,61)        174.9801                                         !
 ! D156  D(59,47,48,62)         56.9016                                         !
 ! D157  D(60,47,48,61)         58.9772                                         !
 ! D158  D(60,47,48,62)        -59.1012                                         !
 --------------------------------------------------------------------------------
 Symmetry turned off by external request.
 Stoichiometry    C20H31N4O7(1+)
 Framework group  C1[X(C20H31N4O7)]
 Deg. of freedom   180
 Full point group                 C1      NOp   1
                          Input orientation:                          
 ---------------------------------------------------------------------
 Center     Atomic      Atomic             Coordinates (Angstroms)
 Number     Number       Type             X           Y           Z
 ---------------------------------------------------------------------
      1          7           0       -1.171513  -90.401622  127.622014
      2          6           0       -2.461440  -90.983606  127.077299
      3          6           0       -3.556446  -90.009286  127.570748
      4          8           0       -4.041829  -90.192680  128.673388
      5          6           0       -2.390709  -91.259976  125.568420
      6          6           0       -1.102986  -91.947773  125.044996
      7          6           0       -0.625074  -93.091845  125.913827
      8          8           0       -0.185850  -92.932717  127.045307
      9          8           0       -0.735452  -94.285589  125.334172
     10          1           0       -0.396977  -94.962965  125.953486
     11          1           0       -0.425400  -91.112373  127.508332
     12          1           0       -2.606854  -91.913439  127.627981
     13          1           0       -2.502993  -90.336173  124.991087
     14          1           0       -3.262222  -91.878017  125.328146
     15          1           0       -0.281890  -91.222068  125.012219
     16          1           0       -1.274608  -92.293134  124.023632
     17          1           0       -0.953351  -89.489029  127.183613
     18          1           0       -1.260113  -90.145244  128.633323
     19          7           0       -3.796032  -88.890733  126.802643
     20          6           0       -3.915392  -87.633055  127.550340
     21          6           0       -2.493479  -87.325471  128.074426
     22          8           0       -1.490129  -87.689383  127.435811
     23          6           0       -4.491444  -86.471630  126.717842
     24          6           0       -4.552579  -85.227801  127.580383
     25          6           0       -5.482946  -85.137545  128.623949
     26          6           0       -3.590802  -84.214649  127.463511
     27          6           0       -5.449113  -84.080418  129.534639
     28          6           0       -3.547081  -83.150092  128.357590
     29          6           0       -4.475421  -83.080665  129.404285
     30          8           0       -4.372762  -82.024849  130.256921
     31          1           0       -3.182189  -88.780736  126.003196
     32          1           0       -4.575788  -87.831387  128.395952
     33          1           0       -3.858087  -86.299861  125.838938
     34          1           0       -5.482303  -86.770523  126.357978
     35          1           0       -6.248253  -85.903482  128.733383
     36          1           0       -2.853434  -84.265587  126.665984
     37          1           0       -6.186893  -84.022648  130.332227
     38          1           0       -2.807327  -82.362051  128.262397
     39          1           0       -5.111594  -82.032943  130.885632
     40          7           0       -2.399089  -86.724554  129.264976
     41          6           0       -1.132524  -86.635806  129.968169
     42          6           0       -0.505124  -88.016175  130.259471
     43          8           0        0.618744  -88.091549  130.700640
     44          6           0       -1.284665  -85.837158  131.287361
     45          6           0       -2.477236  -86.198356  132.206854
     46          6           0       -2.749824  -87.692109  132.474764
     47          6           0       -1.590499  -88.462864  133.144785
     48          7           0       -1.468409  -89.832787  132.565624
     49          8           0       -1.315732  -89.095320  130.111439
     50          1           0       -1.297032  -89.602157  131.061523
     51          1           0       -3.244657  -86.402945  129.716849
     52          1           0       -0.405386  -86.114882  129.337640
     53          1           0       -0.334476  -85.943186  131.818316
     54          1           0       -1.376179  -84.776810  131.025345
     55          1           0       -3.398068  -85.762297  131.793473
     56          1           0       -2.318904  -85.673078  133.157128
     57          1           0       -3.646364  -87.769612  133.101136
     58          1           0       -3.000429  -88.182103  131.528351
     59          1           0       -0.631141  -87.973990  132.962046
     60          1           0       -1.730014  -88.504120  134.231718
     61          1           0       -2.303491  -90.382269  132.772081
     62          1           0       -0.677671  -90.324850  132.981333
 ---------------------------------------------------------------------
 Rotational constants (GHZ):           0.2146095           0.0898728           0.0717611
 Standard basis: 6-31G(d) (6D, 7F)
   527 basis functions,   992 primitive gaussians,   527 cartesian basis functions
   117 alpha electrons      117 beta electrons
       nuclear repulsion energy      3422.3954595627 Hartrees.
 NAtoms=   62 NActive=   62 NUniq=   62 SFac= 1.00D+00 NAtFMM=   60 NAOKFM=T Big=T
 Integral buffers will be    131072 words long.
 Raffenetti 2 integral format.
 Two-electron integral symmetry is turned off.
 Nuclear repulsion after empirical dispersion term =     3422.3078159207 Hartrees.
 One-electron integrals computed using PRISM.
 NBasis=   527 RedAO= T EigKep=  4.38D-04  NBF=   527
 NBsUse=   527 1.00D-06 EigRej= -1.00D+00 NBFU=   527
 Initial guess from the checkpoint file:  "conf-962.chk"
 B after Tr=     0.000000    0.000000    0.000000
         Rot=    1.000000    0.000000    0.000000    0.000000 Ang=   0.00 deg.
 Requested convergence on RMS density matrix=1.00D-08 within 128 cycles.
 Requested convergence on MAX density matrix=1.00D-06.
 Requested convergence on             energy=1.00D-06.
 No special actions if energy rises.
 SCF Done:  E(RB3LYP) =  -1526.30384337     A.U. after    1 cycles
            NFock=  1  Conv=0.73D-08     -V/T= 2.0093

 **********************************************************************

            Population analysis using the SCF Density.

 **********************************************************************

 Alpha  occ. eigenvalues --  -19.32713 -19.27574 -19.26315 -19.26283 -19.24846
 Alpha  occ. eigenvalues --  -19.23888 -19.23260 -14.55184 -14.47911 -14.47531
 Alpha  occ. eigenvalues --  -14.46364 -10.45697 -10.41906 -10.41185 -10.40367
 Alpha  occ. eigenvalues --  -10.38600 -10.34706 -10.34463 -10.33986 -10.33936
 Alpha  occ. eigenvalues --  -10.33703 -10.32128 -10.29906 -10.29241 -10.28972
 Alpha  occ. eigenvalues --  -10.28636 -10.28573 -10.28515 -10.28218 -10.28130
 Alpha  occ. eigenvalues --  -10.27343  -1.23911  -1.18181  -1.17119  -1.15278
 Alpha  occ. eigenvalues --   -1.14915  -1.14500  -1.10635  -1.09602  -1.04793
 Alpha  occ. eigenvalues --   -1.04212  -1.01364  -0.94892  -0.94185  -0.90842
 Alpha  occ. eigenvalues --   -0.89255  -0.86778  -0.85576  -0.83871  -0.82205
 Alpha  occ. eigenvalues --   -0.79758  -0.78909  -0.75782  -0.73760  -0.72888
 Alpha  occ. eigenvalues --   -0.72391  -0.71374  -0.71104  -0.69532  -0.69297
 Alpha  occ. eigenvalues --   -0.68478  -0.67841  -0.66629  -0.64374  -0.63589
 Alpha  occ. eigenvalues --   -0.63333  -0.62590  -0.61951  -0.61024  -0.60928
 Alpha  occ. eigenvalues --   -0.60484  -0.59597  -0.58841  -0.58168  -0.57859
 Alpha  occ. eigenvalues --   -0.57021  -0.56547  -0.56169  -0.55627  -0.54911
 Alpha  occ. eigenvalues --   -0.54590  -0.53771  -0.53175  -0.53030  -0.52745
 Alpha  occ. eigenvalues --   -0.52352  -0.52231  -0.51140  -0.51045  -0.50497
 Alpha  occ. eigenvalues --   -0.50208  -0.50035  -0.49327  -0.48898  -0.48672
 Alpha  occ. eigenvalues --   -0.48149  -0.47644  -0.47257  -0.46346  -0.45942
 Alpha  occ. eigenvalues --   -0.44854  -0.44726  -0.43878  -0.43107  -0.42976
 Alpha  occ. eigenvalues --   -0.42621  -0.41738  -0.41346  -0.40254  -0.39468
 Alpha  occ. eigenvalues --   -0.38637  -0.38444  -0.38116  -0.36869  -0.35384
 Alpha  occ. eigenvalues --   -0.34317  -0.30792
 Alpha virt. eigenvalues --   -0.13162  -0.12654  -0.10296  -0.10009  -0.09595
 Alpha virt. eigenvalues --   -0.08179  -0.05654  -0.03606  -0.03391  -0.03084
 Alpha virt. eigenvalues --   -0.01783  -0.01075  -0.00273   0.00296   0.00473
 Alpha virt. eigenvalues --    0.00733   0.01980   0.02260   0.02672   0.02702
 Alpha virt. eigenvalues --    0.03425   0.03754   0.04127   0.04498   0.04732
 Alpha virt. eigenvalues --    0.05109   0.05517   0.06315   0.06350   0.06719
 Alpha virt. eigenvalues --    0.07198   0.07537   0.07741   0.08341   0.08621
 Alpha virt. eigenvalues --    0.08788   0.09023   0.09532   0.10113   0.10606
 Alpha virt. eigenvalues --    0.11458   0.12010   0.12610   0.12832   0.13238
 Alpha virt. eigenvalues --    0.13819   0.14093   0.14813   0.15334   0.15919
 Alpha virt. eigenvalues --    0.16420   0.16853   0.17869   0.18328   0.19550
 Alpha virt. eigenvalues --    0.21110   0.22086   0.22519   0.24333   0.24783
 Alpha virt. eigenvalues --    0.25183   0.26127   0.26809   0.27151   0.29013
 Alpha virt. eigenvalues --    0.29953   0.31448   0.36275   0.36506   0.37293
 Alpha virt. eigenvalues --    0.38605   0.39029   0.39172   0.40846   0.41103
 Alpha virt. eigenvalues --    0.41340   0.42263   0.42863   0.43469   0.44154
 Alpha virt. eigenvalues --    0.44496   0.44806   0.45240   0.45710   0.46470
 Alpha virt. eigenvalues --    0.46921   0.47669   0.48202   0.49048   0.49094
 Alpha virt. eigenvalues --    0.49652   0.50550   0.51189   0.51616   0.52342
 Alpha virt. eigenvalues --    0.52636   0.53138   0.53176   0.53444   0.53852
 Alpha virt. eigenvalues --    0.54585   0.54948   0.55712   0.56028   0.56227
 Alpha virt. eigenvalues --    0.57107   0.57302   0.57732   0.58192   0.59120
 Alpha virt. eigenvalues --    0.59509   0.60016   0.61092   0.62162   0.63288
 Alpha virt. eigenvalues --    0.63727   0.64333   0.64825   0.65889   0.66481
 Alpha virt. eigenvalues --    0.66884   0.67015   0.68327   0.68593   0.69239
 Alpha virt. eigenvalues --    0.69770   0.70428   0.70565   0.71514   0.72035
 Alpha virt. eigenvalues --    0.72645   0.73369   0.73763   0.73976   0.74565
 Alpha virt. eigenvalues --    0.75057   0.75350   0.76019   0.76579   0.77211
 Alpha virt. eigenvalues --    0.77502   0.77716   0.78434   0.78920   0.79232
 Alpha virt. eigenvalues --    0.79642   0.80265   0.80460   0.80662   0.81203
 Alpha virt. eigenvalues --    0.81466   0.81708   0.82034   0.83410   0.83563
 Alpha virt. eigenvalues --    0.83916   0.84709   0.85333   0.85432   0.85676
 Alpha virt. eigenvalues --    0.86025   0.87155   0.87237   0.88038   0.88885
 Alpha virt. eigenvalues --    0.89253   0.89835   0.90870   0.91918   0.92263
 Alpha virt. eigenvalues --    0.93014   0.94018   0.94422   0.95308   0.95660
 Alpha virt. eigenvalues --    0.95910   0.96468   0.97148   0.98332   0.99868
 Alpha virt. eigenvalues --    1.00442   1.01041   1.02012   1.03110   1.03649
 Alpha virt. eigenvalues --    1.04915   1.05552   1.06012   1.08474   1.08620
 Alpha virt. eigenvalues --    1.08959   1.10945   1.11300   1.13265   1.13889
 Alpha virt. eigenvalues --    1.15218   1.16464   1.16484   1.16677   1.17761
 Alpha virt. eigenvalues --    1.20402   1.21275   1.23282   1.24766   1.25938
 Alpha virt. eigenvalues --    1.26385   1.27477   1.28324   1.28623   1.28974
 Alpha virt. eigenvalues --    1.30083   1.30922   1.32147   1.33687   1.34193
 Alpha virt. eigenvalues --    1.35347   1.36398   1.36722   1.37406   1.37578
 Alpha virt. eigenvalues --    1.39451   1.40002   1.41942   1.42244   1.42983
 Alpha virt. eigenvalues --    1.43931   1.44776   1.46085   1.48115   1.49062
 Alpha virt. eigenvalues --    1.50754   1.52521   1.53332   1.54682   1.55017
 Alpha virt. eigenvalues --    1.56003   1.57113   1.59395   1.61204   1.61537
 Alpha virt. eigenvalues --    1.61923   1.62534   1.62934   1.64138   1.65054
 Alpha virt. eigenvalues --    1.65439   1.66213   1.66383   1.67450   1.67759
 Alpha virt. eigenvalues --    1.68182   1.68927   1.69580   1.70734   1.70935
 Alpha virt. eigenvalues --    1.71675   1.72519   1.73039   1.74077   1.74324
 Alpha virt. eigenvalues --    1.75184   1.75553   1.76956   1.77663   1.78037
 Alpha virt. eigenvalues --    1.79131   1.80222   1.80721   1.81022   1.82155
 Alpha virt. eigenvalues --    1.83256   1.83527   1.83777   1.84350   1.85562
 Alpha virt. eigenvalues --    1.85853   1.86926   1.87693   1.88229   1.88731
 Alpha virt. eigenvalues --    1.89231   1.89324   1.90906   1.91162   1.92215
 Alpha virt. eigenvalues --    1.92329   1.93638   1.95047   1.95186   1.96470
 Alpha virt. eigenvalues --    1.97112   1.97518   1.97861   1.99826   2.00353
 Alpha virt. eigenvalues --    2.01776   2.02265   2.02986   2.04733   2.06249
 Alpha virt. eigenvalues --    2.06845   2.06865   2.07923   2.09196   2.11156
 Alpha virt. eigenvalues --    2.14136   2.14497   2.15643   2.17608   2.17781
 Alpha virt. eigenvalues --    2.18393   2.19917   2.20369   2.21578   2.21848
 Alpha virt. eigenvalues --    2.22914   2.23577   2.24767   2.25908   2.27346
 Alpha virt. eigenvalues --    2.27590   2.28118   2.29368   2.30456   2.30706
 Alpha virt. eigenvalues --    2.31061   2.31343   2.31990   2.33187   2.34384
 Alpha virt. eigenvalues --    2.34926   2.35036   2.35269   2.38546   2.39997
 Alpha virt. eigenvalues --    2.41606   2.43082   2.44057   2.46930   2.47311
 Alpha virt. eigenvalues --    2.47946   2.48249   2.50822   2.52603   2.52688
 Alpha virt. eigenvalues --    2.54683   2.55707   2.56409   2.57319   2.57871
 Alpha virt. eigenvalues --    2.58846   2.60217   2.60512   2.61372   2.63108
 Alpha virt. eigenvalues --    2.63822   2.64771   2.66472   2.66814   2.69509
 Alpha virt. eigenvalues --    2.71351   2.71662   2.75426   2.78974   2.80110
 Alpha virt. eigenvalues --    2.81192   2.83423   2.84307   2.85209   2.87553
 Alpha virt. eigenvalues --    2.89754   2.91056   2.93505   2.94481   2.99119
 Alpha virt. eigenvalues --    3.02247   3.03162   3.09849   3.32338   3.73566
 Alpha virt. eigenvalues --    3.74927   3.77748   3.85513   3.86492   3.89733
 Alpha virt. eigenvalues --    3.99438   4.01447   4.02223   4.04528   4.04691
 Alpha virt. eigenvalues --    4.07533   4.10935   4.12411   4.14652   4.17908
 Alpha virt. eigenvalues --    4.19853   4.21375   4.26205   4.27489   4.28271
 Alpha virt. eigenvalues --    4.32349   4.37613   4.41193   4.42421   4.45509
 Alpha virt. eigenvalues --    4.48770   4.55293   4.57227   4.60857   4.68113
          Condensed to atoms (all electrons):
 Mulliken charges:
               1
     1  N   -0.807899
     2  C   -0.095860
     3  C    0.590755
     4  O   -0.469920
     5  C   -0.308198
     6  C   -0.376530
     7  C    0.606906
     8  O   -0.484483
     9  O   -0.526175
    10  H    0.437155
    11  H    0.421898
    12  H    0.220657
    13  H    0.176736
    14  H    0.211053
    15  H    0.193769
    16  H    0.217896
    17  H    0.421261
    18  H    0.449351
    19  N   -0.567861
    20  C   -0.084893
    21  C    0.643998
    22  O   -0.601976
    23  C   -0.357887
    24  C    0.140183
    25  C   -0.216630
    26  C   -0.180769
    27  C   -0.198311
    28  C   -0.159860
    29  C    0.350816
    30  O   -0.628222
    31  H    0.331708
    32  H    0.198769
    33  H    0.160996
    34  H    0.184550
    35  H    0.144523
    36  H    0.144702
    37  H    0.141177
    38  H    0.163048
    39  H    0.417485
    40  N   -0.584090
    41  C   -0.020106
    42  C    0.595405
    43  O   -0.446231
    44  C   -0.321933
    45  C   -0.296581
    46  C   -0.305567
    47  C   -0.165308
    48  N   -0.788083
    49  O   -0.678321
    50  H    0.466593
    51  H    0.362269
    52  H    0.205156
    53  H    0.188502
    54  H    0.178369
    55  H    0.145208
    56  H    0.168039
    57  H    0.160779
    58  H    0.167109
    59  H    0.192057
    60  H    0.172200
    61  H    0.346513
    62  H    0.354104
 Sum of Mulliken charges =   1.00000
 Mulliken charges with hydrogens summed into heavy atoms:
               1
     1  N    0.484611
     2  C    0.124797
     3  C    0.590755
     4  O   -0.469920
     5  C    0.079591
     6  C    0.035134
     7  C    0.606906
     8  O   -0.484483
     9  O   -0.089020
    19  N   -0.236153
    20  C    0.113876
    21  C    0.643998
    22  O   -0.601976
    23  C   -0.012341
    24  C    0.140183
    25  C   -0.072107
    26  C   -0.036067
    27  C   -0.057134
    28  C    0.003188
    29  C    0.350816
    30  O   -0.210737
    40  N   -0.221821
    41  C    0.185050
    42  C    0.595405
    43  O   -0.446231
    44  C    0.044939
    45  C    0.016666
    46  C    0.022321
    47  C    0.198949
    48  N   -0.087466
    49  O   -0.211728
 Electronic spatial extent (au):  <R**2>=       20350497.1130
 Charge=              1.0000 electrons
 Dipole moment (field-independent basis, Debye):
    X=            -12.1414    Y=           -429.7812    Z=            618.0001  Tot=            752.8502
 Quadrupole moment (field-independent basis, Debye-Ang):
   XX=           -142.0044   YY=          38333.3417   ZZ=          79397.6128
   XY=           1058.2704   XZ=          -1573.6113   YZ=         -55268.7904
 Traceless Quadrupole moment (field-independent basis, Debye-Ang):
   XX=         -39338.3211   YY=           -862.9750   ZZ=          40201.2961
   XY=           1058.2704   XZ=          -1573.6113   YZ=         -55268.7904
 Octapole moment (field-independent basis, Debye-Ang**2):
  XXX=           1174.9760  YYY=       -3408866.3534  ZZZ=       10185612.5254  XYY=         -91895.0975
  XXY=          12604.9787  XXZ=         -18229.3296  XZZ=        -203620.0977  YZZ=       -7097241.4996
  YYZ=        4927015.7001  XYZ=         137088.0644
 Hexadecapole moment (field-independent basis, Debye-Ang**3):
 XXXX=          -8839.3925 YYYY=      302282261.7924 ZZZZ=     1304736020.0220 XXXY=        -102545.4360
 XXXZ=         150770.3230 YYYX=        7950075.7353 YYYZ=     -437915673.3275 ZZZX=      -26305895.4969
 ZZZY=     -910071525.5573 XXYY=       -1121573.5317 XXZZ=       -2342310.6395 YYZZ=      632382912.9308
 XXYZ=        1618106.3110 YYXZ=      -11898281.8956 ZZXY=       17729848.4128
 N-N= 3.422307815921D+03 E-N=-1.037818851245D+04  KE= 1.512258419895D+03
 Unable to Open any file for archive entry.
 1\1\GINC-VIM-000\SP\RB3LYP\6-31G(d)\C20H31N4O7(1+)\KENGMITH\24-May-202
 2\0\\# B3LYP/6-31G* empiricaldispersion=gd3 guess=read geom=check nosy
 mm integral(ultrafinegrid)\\Candidate Structure: Conf:962 Charge calc 
 in gas phase\\1,1\N,0,-1.1715125406,-90.4016216467,127.6220135538\C,0,
 -2.4614402341,-90.983606077,127.0772994492\C,0,-3.5564459973,-90.00928
 5995,127.5707477934\O,0,-4.0418292493,-90.1926800465,128.6733883628\C,
 0,-2.3907094437,-91.259975509,125.5684197708\C,0,-1.1029858652,-91.947
 7730752,125.0449959954\C,0,-0.6250741636,-93.0918448691,125.9138272016
 \O,0,-0.1858503829,-92.9327173585,127.0453066014\O,0,-0.7354522105,-94
 .2855887719,125.3341724817\H,0,-0.3969773328,-94.9629649281,125.953486
 3387\H,0,-0.4254002522,-91.1123729707,127.508331831\H,0,-2.6068542173,
 -91.9134387584,127.6279814738\H,0,-2.5029929372,-90.3361730528,124.991
 0866507\H,0,-3.2622217481,-91.8780169728,125.3281462672\H,0,-0.2818900
 435,-91.2220683115,125.012219401\H,0,-1.2746079701,-92.2931342954,124.
 0236323791\H,0,-0.9533513258,-89.4890289724,127.1836130574\H,0,-1.2601
 132598,-90.1452436041,128.6333229204\N,0,-3.7960317307,-88.8907325716,
 126.8026431075\C,0,-3.9153919352,-87.6330545894,127.5503402625\C,0,-2.
 4934794217,-87.3254714655,128.0744256538\O,0,-1.490128708,-87.68938305
 52,127.4358105845\C,0,-4.4914436317,-86.4716298909,126.7178424262\C,0,
 -4.5525790417,-85.2278010332,127.5803831443\C,0,-5.4829464991,-85.1375
 450772,128.6239488319\C,0,-3.5908020598,-84.2146492202,127.463510918\C
 ,0,-5.4491130893,-84.0804177389,129.5346394969\C,0,-3.5470813132,-83.1
 500917021,128.3575900759\C,0,-4.4754208138,-83.0806650351,129.40428514
 7\O,0,-4.3727620651,-82.0248485131,130.2569212865\H,0,-3.1821892972,-8
 8.7807358371,126.0031957937\H,0,-4.5757878144,-87.8313870811,128.39595
 15754\H,0,-3.8580869432,-86.2998610021,125.8389380994\H,0,-5.482303377
 8,-86.7705227857,126.3579782355\H,0,-6.2482526803,-85.9034817007,128.7
 333834735\H,0,-2.8534339912,-84.2655866098,126.6659841919\H,0,-6.18689
 25691,-84.0226478267,130.3322265737\H,0,-2.8073271497,-82.3620508305,1
 28.2623966193\H,0,-5.1115944437,-82.0329433766,130.8856320993\N,0,-2.3
 990890916,-86.7245542447,129.2649755158\C,0,-1.1325241201,-86.63580647
 48,129.9681694036\C,0,-0.5051237805,-88.0161746713,130.2594705243\O,0,
 0.6187443034,-88.0915491188,130.7006399653\C,0,-1.2846646423,-85.83715
 84146,131.2873613904\C,0,-2.4772360269,-86.1983555133,132.2068543002\C
 ,0,-2.7498237244,-87.6921085262,132.4747641447\C,0,-1.5904994755,-88.4
 628639184,133.1447853302\N,0,-1.4684085907,-89.8327870704,132.56562415
 64\O,0,-1.3157320169,-89.0953200771,130.1114391191\H,0,-1.2970322533,-
 89.6021572882,131.0615227202\H,0,-3.2446566844,-86.4029453678,129.7168
 49423\H,0,-0.4053858143,-86.1148818318,129.3376397504\H,0,-0.334475606
 9,-85.9431859388,131.818315757\H,0,-1.3761788323,-84.7768102928,131.02
 53447108\H,0,-3.3980682131,-85.7622965634,131.7934729439\H,0,-2.318904
 0071,-85.6730776273,133.1571281011\H,0,-3.6463644986,-87.7696117223,13
 3.101135626\H,0,-3.0004288323,-88.1821032604,131.5283508555\H,0,-0.631
 1407117,-87.9739903967,132.9620457324\H,0,-1.7300142287,-88.5041200691
 ,134.2317176871\H,0,-2.3034912512,-90.3822685513,132.7720805995\H,0,-0
 .6776712408,-90.3248500629,132.9813331674\\Version=ES64L-G16RevC.01\HF
 =-1526.3038434\RMSD=7.257e-09\Dipole=-0.1215285,-2.6867847,-0.1636062\
 Quadrupole=-29247.0775937,-641.6007606,29888.6783543,786.7980961,-1169
 .941404,-41090.9910468\PG=C01 [X(C20H31N4O7)]\\@
 The archive entry for this job was punched.


 BE NOT THE FIRST BY WHOM THE NEW ARE TRIED,
 NOR YET THE THE LAST TO LAY THE OLD ASIDE.

                          -- ALEXANDER POPE
 Job cpu time:       0 days  0 hours  1 minutes 42.2 seconds.
 Elapsed time:       0 days  0 hours  0 minutes 26.1 seconds.
 File lengths (MBytes):  RWF=    264 Int=      0 D2E=      0 Chk=     40 Scr=     16
 Normal termination of Gaussian 16 at Tue May 24 19:13:23 2022.
