 Entering Gaussian System, Link 0=/opt/software/Gaussian/g16-AVX2-C.01/g16/g16
 Input=charge-conf-34.com
 Output=charge-conf-34.log
 Initial command:
 /opt/software/Gaussian/g16-AVX2-C.01/g16/l1.exe "/mnt/gs18/scratch/users/kengmith/Gau-5298.inp" -scrdir="/mnt/gs18/scratch/users/kengmith/"
 Entering Link 1 = /opt/software/Gaussian/g16-AVX2-C.01/g16/l1.exe PID=      5331.
  
 Copyright (c) 1988-2019, Gaussian, Inc.  All Rights Reserved.
  
 This is part of the Gaussian(R) 16 program.  It is based on
 the Gaussian(R) 09 system (copyright 2009, Gaussian, Inc.),
 the Gaussian(R) 03 system (copyright 2003, Gaussian, Inc.),
 the Gaussian(R) 98 system (copyright 1998, Gaussian, Inc.),
 the Gaussian(R) 94 system (copyright 1995, Gaussian, Inc.),
 the Gaussian 92(TM) system (copyright 1992, Gaussian, Inc.),
 the Gaussian 90(TM) system (copyright 1990, Gaussian, Inc.),
 the Gaussian 88(TM) system (copyright 1988, Gaussian, Inc.),
 the Gaussian 86(TM) system (copyright 1986, Carnegie Mellon
 University), and the Gaussian 82(TM) system (copyright 1983,
 Carnegie Mellon University). Gaussian is a federally registered
 trademark of Gaussian, Inc.
  
 This software contains proprietary and confidential information,
 including trade secrets, belonging to Gaussian, Inc.
  
 This software is provided under written license and may be
 used, copied, transmitted, or stored only in accord with that
 written license.
  
 The following legend is applicable only to US Government
 contracts under FAR:
  
                    RESTRICTED RIGHTS LEGEND
  
 Use, reproduction and disclosure by the US Government is
 subject to restrictions as set forth in subparagraphs (a)
 and (c) of the Commercial Computer Software - Restricted
 Rights clause in FAR 52.227-19.
  
 Gaussian, Inc.
 340 Quinnipiac St., Bldg. 40, Wallingford CT 06492
  
  
 ---------------------------------------------------------------
 Warning -- This program may not be used in any manner that
 competes with the business of Gaussian, Inc. or will provide
 assistance to any competitor of Gaussian, Inc.  The licensee
 of this program is prohibited from giving any competitor of
 Gaussian, Inc. access to this program.  By using this program,
 the user acknowledges that Gaussian, Inc. is engaged in the
 business of creating and licensing software in the field of
 computational chemistry and represents and warrants to the
 licensee that it is not a competitor of Gaussian, Inc. and that
 it will not use this program in any manner prohibited above.
 ---------------------------------------------------------------
  

 Cite this work as:
 Gaussian 16, Revision C.01,
 M. J. Frisch, G. W. Trucks, H. B. Schlegel, G. E. Scuseria, 
 M. A. Robb, J. R. Cheeseman, G. Scalmani, V. Barone, 
 G. A. Petersson, H. Nakatsuji, X. Li, M. Caricato, A. V. Marenich, 
 J. Bloino, B. G. Janesko, R. Gomperts, B. Mennucci, H. P. Hratchian, 
 J. V. Ortiz, A. F. Izmaylov, J. L. Sonnenberg, D. Williams-Young, 
 F. Ding, F. Lipparini, F. Egidi, J. Goings, B. Peng, A. Petrone, 
 T. Henderson, D. Ranasinghe, V. G. Zakrzewski, J. Gao, N. Rega, 
 G. Zheng, W. Liang, M. Hada, M. Ehara, K. Toyota, R. Fukuda, 
 J. Hasegawa, M. Ishida, T. Nakajima, Y. Honda, O. Kitao, H. Nakai, 
 T. Vreven, K. Throssell, J. A. Montgomery, Jr., J. E. Peralta, 
 F. Ogliaro, M. J. Bearpark, J. J. Heyd, E. N. Brothers, K. N. Kudin, 
 V. N. Staroverov, T. A. Keith, R. Kobayashi, J. Normand, 
 K. Raghavachari, A. P. Rendell, J. C. Burant, S. S. Iyengar, 
 J. Tomasi, M. Cossi, J. M. Millam, M. Klene, C. Adamo, R. Cammi, 
 J. W. Ochterski, R. L. Martin, K. Morokuma, O. Farkas, 
 J. B. Foresman, and D. J. Fox, Gaussian, Inc., Wallingford CT, 2019.
 
 ******************************************
 Gaussian 16:  ES64L-G16RevC.01  3-Jul-2019
                24-May-2022 
 ******************************************
 %mem=8gb
 %nproc=4
 Will use up to    4 processors via shared memory.
 %chk=conf-34.chk
 ----------------------------------------------------------------------
 # B3LYP/6-31G* empiricaldispersion=gd3 guess=read geom=check nosymm in
 tegral(ultrafinegrid)
 ----------------------------------------------------------------------
 1/29=2,38=1,172=1/1;
 2/12=2,15=1,40=1/2;
 3/5=1,6=6,7=1,11=2,14=-4,25=1,30=1,74=-5,75=-5,116=-2,124=31/1,2,3;
 4/5=1/1;
 5/5=2,38=6/2;
 6/7=2,8=2,9=2,10=2,28=1/1;
 99/5=1,9=1/99;
 -----------------------------------------------------
 Candidate Structure: Conf:34 Charge calc in gas phase
 -----------------------------------------------------
 Structure from the checkpoint file:  "conf-34.chk"
 Charge =  1 Multiplicity = 1
 Redundant internal coordinates found in file.  (old form).
 N,0,-0.6121278599,-91.4978433848,124.7749912565
 C,0,-1.1420620689,-91.2210133356,126.1560205655
 C,0,-0.6440830745,-89.7936749631,126.4902689862
 O,0,-0.324671142,-89.0531230938,125.5618266566
 C,0,-2.6873625328,-91.2243942662,126.1775607802
 C,0,-3.3844109463,-92.5959212305,126.1807276001
 C,0,-3.3525057462,-93.3490864646,124.856593239
 O,0,-2.5748378469,-93.0997889674,123.9477901978
 O,0,-4.2119081878,-94.3536714876,124.702831639
 H,0,-4.8045257262,-94.4551433463,125.4677571538
 H,0,-0.5003143764,-90.5596809496,124.3383998458
 H,0,-0.734341451,-91.969350027,126.8415906019
 H,0,-3.0500039945,-90.6173371878,125.3391083755
 H,0,-2.9926401759,-90.694209383,127.0871509684
 H,0,-4.4308945372,-92.4451348193,126.4736908536
 H,0,-2.9505813944,-93.2534806114,126.9479682111
 H,0,0.3116198789,-91.9391736179,124.7898746667
 H,0,-1.295552276,-92.1089861188,124.2505072004
 N,0,-0.6599564393,-89.4734938037,127.7960839423
 C,0,-0.7965050793,-88.0908685217,128.2541666412
 C,0,-2.2467470057,-87.9730166126,128.7904209859
 O,0,-2.9077313783,-88.9907102536,129.0243367615
 C,0,0.272173907,-87.753263026,129.3288187413
 C,0,0.1763394861,-86.3286279133,129.8282921651
 C,0,-0.3158971767,-86.039787496,131.1084292204
 C,0,0.4927487784,-85.2514517096,128.9875190035
 C,0,-0.4968484855,-84.7264077167,131.5393016396
 C,0,0.3135382158,-83.9309137168,129.3982435304
 C,0,-0.1800826821,-83.6595849199,130.6825407161
 O,0,-0.3827626089,-82.4079578368,131.1592957586
 H,0,-1.1381638894,-90.1193085349,128.4201472794
 H,0,-0.658798886,-87.4409836417,127.3861774952
 H,0,0.1618860907,-88.4559333282,130.1632119189
 H,0,1.2509510408,-87.9454359834,128.8743171287
 H,0,-0.5730946813,-86.8544179704,131.7806068381
 H,0,0.8858735209,-85.441570741,127.9908674926
 H,0,-0.8617037855,-84.5034812662,132.537002751
 H,0,0.5648508175,-83.1122578383,128.7283357609
 H,0,-0.1694950647,-81.747486219,130.4809174376
 N,0,-2.6948151944,-86.720022086,128.9824890296
 C,0,-3.9940726242,-86.4101613919,129.5969459438
 C,0,-4.272666588,-84.9156459294,129.4084586382
 O,0,-5.3010844095,-84.4918652691,128.9498169679
 C,0,-4.064691557,-86.8364395001,131.0840876431
 C,0,-5.397458607,-86.4375824956,131.7491748708
 C,0,-5.3746228803,-85.0563386302,132.4274475132
 C,0,-6.7763305267,-84.4481052206,132.6375918319
 N,0,-7.5231040491,-84.1144248555,131.4247015138
 O,0,-3.2820365376,-84.0698896649,129.7983414971
 H,0,-2.6070633557,-84.5103914447,130.3508859729
 H,0,-2.0649927364,-85.95413179,128.7782289227
 H,0,-4.7729627357,-86.9388557677,129.0429870591
 H,0,-3.9241113465,-87.9209253238,131.0971779179
 H,0,-3.2160598661,-86.4001904501,131.6278009712
 H,0,-5.6738834768,-87.1953058213,132.4914029693
 H,0,-6.187197269,-86.4589359378,130.9863915458
 H,0,-4.8576646033,-85.1419434885,133.3940657814
 H,0,-4.7859247671,-84.3437016199,131.8353747394
 H,0,-7.3921376819,-85.1328745875,133.2356386667
 H,0,-6.6717113691,-83.5315937777,133.2314933002
 H,0,-7.7848190417,-84.9554873711,130.9153633889
 H,0,-6.9417517633,-83.5728422417,130.7859329087
 Recover connectivity data from disk.
                           ----------------------------
                           !    Current Parameters    !
                           ! (Angstroms and Degrees)  !
 --------------------------                            --------------------------
 ! Name  Definition              Value                                          !
 --------------------------------------------------------------------------------
 ! R1    R(1,2)                  1.5049                                         !
 ! R2    R(1,11)                 1.0408                                         !
 ! R3    R(1,17)                 1.0239                                         !
 ! R4    R(1,18)                 1.0562                                         !
 ! R5    R(2,3)                  1.5482                                         !
 ! R6    R(2,5)                  1.5455                                         !
 ! R7    R(2,12)                 1.0937                                         !
 ! R8    R(3,4)                  1.2298                                         !
 ! R9    R(3,19)                 1.3446                                         !
 ! R10   R(5,6)                  1.5385                                         !
 ! R11   R(5,13)                 1.0968                                         !
 ! R12   R(5,14)                 1.0962                                         !
 ! R13   R(6,7)                  1.5237                                         !
 ! R14   R(6,15)                 1.0971                                         !
 ! R15   R(6,16)                 1.0997                                         !
 ! R16   R(7,8)                  1.2218                                         !
 ! R17   R(7,9)                  1.3309                                         !
 ! R18   R(9,10)                 0.9729                                         !
 ! R19   R(19,20)                1.4629                                         !
 ! R20   R(19,31)                1.0175                                         !
 ! R21   R(20,21)                1.5507                                         !
 ! R22   R(20,23)                1.5527                                         !
 ! R23   R(20,32)                1.093                                          !
 ! R24   R(21,22)                1.2358                                         !
 ! R25   R(21,40)                1.3445                                         !
 ! R26   R(23,24)                1.5127                                         !
 ! R27   R(23,33)                1.0964                                         !
 ! R28   R(23,34)                1.0961                                         !
 ! R29   R(24,25)                1.4016                                         !
 ! R30   R(24,26)                1.4026                                         !
 ! R31   R(25,27)                1.394                                          !
 ! R32   R(25,35)                1.087                                          !
 ! R33   R(26,28)                1.3945                                         !
 ! R34   R(26,36)                1.0881                                         !
 ! R35   R(27,29)                1.4045                                         !
 ! R36   R(27,37)                1.0855                                         !
 ! R37   R(28,29)                1.4024                                         !
 ! R38   R(28,38)                1.0873                                         !
 ! R39   R(29,30)                1.3546                                         !
 ! R40   R(30,39)                0.9705                                         !
 ! R41   R(40,41)                1.4703                                         !
 ! R42   R(40,51)                1.0124                                         !
 ! R43   R(41,42)                1.5319                                         !
 ! R44   R(41,44)                1.5486                                         !
 ! R45   R(41,52)                1.0923                                         !
 ! R46   R(42,43)                1.2032                                         !
 ! R47   R(42,49)                1.3597                                         !
 ! R48   R(44,45)                1.542                                          !
 ! R49   R(44,53)                1.0936                                         !
 ! R50   R(44,54)                1.0982                                         !
 ! R51   R(45,46)                1.539                                          !
 ! R52   R(45,55)                1.0961                                         !
 ! R53   R(45,56)                1.0982                                         !
 ! R54   R(46,47)                1.5424                                         !
 ! R55   R(46,57)                1.0995                                         !
 ! R56   R(46,58)                1.0977                                         !
 ! R57   R(47,48)                1.4629                                         !
 ! R58   R(47,59)                1.0981                                         !
 ! R59   R(47,60)                1.0971                                         !
 ! R60   R(48,61)                1.0175                                         !
 ! R61   R(48,62)                1.0195                                         !
 ! R62   R(49,50)                0.9772                                         !
 ! A1    A(2,1,11)             104.8903                                         !
 ! A2    A(2,1,17)             112.5604                                         !
 ! A3    A(2,1,18)             109.5284                                         !
 ! A4    A(11,1,17)            107.32                                           !
 ! A5    A(11,1,18)            112.5048                                         !
 ! A6    A(17,1,18)            109.9732                                         !
 ! A7    A(1,2,3)              104.7408                                         !
 ! A8    A(1,2,5)              111.3764                                         !
 ! A9    A(1,2,12)             108.5476                                         !
 ! A10   A(3,2,5)              108.7005                                         !
 ! A11   A(3,2,12)             112.0586                                         !
 ! A12   A(5,2,12)             111.2544                                         !
 ! A13   A(2,3,4)              118.405                                          !
 ! A14   A(2,3,19)             115.1761                                         !
 ! A15   A(4,3,19)             126.3594                                         !
 ! A16   A(2,5,6)              117.0652                                         !
 ! A17   A(2,5,13)             108.5861                                         !
 ! A18   A(2,5,14)             106.7962                                         !
 ! A19   A(6,5,13)             110.1925                                         !
 ! A20   A(6,5,14)             107.655                                          !
 ! A21   A(13,5,14)            105.9346                                         !
 ! A22   A(5,6,7)              115.4285                                         !
 ! A23   A(5,6,15)             108.0704                                         !
 ! A24   A(5,6,16)             110.8403                                         !
 ! A25   A(7,6,15)             108.6608                                         !
 ! A26   A(7,6,16)             107.6074                                         !
 ! A27   A(15,6,16)            105.7939                                         !
 ! A28   A(6,7,8)              123.9777                                         !
 ! A29   A(6,7,9)              117.3856                                         !
 ! A30   A(8,7,9)              118.624                                          !
 ! A31   A(7,9,10)             112.4078                                         !
 ! A32   A(3,19,20)            122.0228                                         !
 ! A33   A(3,19,31)            116.7483                                         !
 ! A34   A(20,19,31)           111.344                                          !
 ! A35   A(19,20,21)           105.51                                           !
 ! A36   A(19,20,23)           110.9757                                         !
 ! A37   A(19,20,32)           107.5488                                         !
 ! A38   A(21,20,23)           112.8184                                         !
 ! A39   A(21,20,32)           110.3194                                         !
 ! A40   A(23,20,32)           109.4889                                         !
 ! A41   A(20,21,22)           120.2031                                         !
 ! A42   A(20,21,40)           115.5884                                         !
 ! A43   A(22,21,40)           124.2051                                         !
 ! A44   A(20,23,24)           112.9355                                         !
 ! A45   A(20,23,33)           108.55                                           !
 ! A46   A(20,23,34)           106.8268                                         !
 ! A47   A(24,23,33)           110.238                                          !
 ! A48   A(24,23,34)           111.0138                                         !
 ! A49   A(33,23,34)           107.0384                                         !
 ! A50   A(23,24,25)           121.1919                                         !
 ! A51   A(23,24,26)           120.7341                                         !
 ! A52   A(25,24,26)           117.9336                                         !
 ! A53   A(24,25,27)           121.469                                          !
 ! A54   A(24,25,35)           119.567                                          !
 ! A55   A(27,25,35)           118.9612                                         !
 ! A56   A(24,26,28)           121.4466                                         !
 ! A57   A(24,26,36)           119.7596                                         !
 ! A58   A(28,26,36)           118.7938                                         !
 ! A59   A(25,27,29)           119.8559                                         !
 ! A60   A(25,27,37)           121.4137                                         !
 ! A61   A(29,27,37)           118.7194                                         !
 ! A62   A(26,28,29)           119.8795                                         !
 ! A63   A(26,28,38)           120.1218                                         !
 ! A64   A(29,28,38)           119.996                                          !
 ! A65   A(27,29,28)           119.4119                                         !
 ! A66   A(27,29,30)           116.9625                                         !
 ! A67   A(28,29,30)           123.6245                                         !
 ! A68   A(29,30,39)           110.482                                          !
 ! A69   A(21,40,41)           123.4094                                         !
 ! A70   A(21,40,51)           117.9611                                         !
 ! A71   A(41,40,51)           118.3353                                         !
 ! A72   A(40,41,42)           108.3547                                         !
 ! A73   A(40,41,44)           112.5578                                         !
 ! A74   A(40,41,52)           108.4326                                         !
 ! A75   A(42,41,44)           112.2349                                         !
 ! A76   A(42,41,52)           106.2682                                         !
 ! A77   A(44,41,52)           108.7397                                         !
 ! A78   A(41,42,43)           123.0917                                         !
 ! A79   A(41,42,49)           116.0447                                         !
 ! A80   A(43,42,49)           120.863                                          !
 ! A81   A(41,44,45)           112.4828                                         !
 ! A82   A(41,44,53)           106.176                                          !
 ! A83   A(41,44,54)           109.3199                                         !
 ! A84   A(45,44,53)           111.2502                                         !
 ! A85   A(45,44,54)           110.585                                          !
 ! A86   A(53,44,54)           106.7771                                         !
 ! A87   A(44,45,46)           114.169                                          !
 ! A88   A(44,45,55)           109.3433                                         !
 ! A89   A(44,45,56)           108.4784                                         !
 ! A90   A(46,45,55)           109.0103                                         !
 ! A91   A(46,45,56)           109.5271                                         !
 ! A92   A(55,45,56)           105.9944                                         !
 ! A93   A(45,46,47)           113.6094                                         !
 ! A94   A(45,46,57)           108.9391                                         !
 ! A95   A(45,46,58)           110.6654                                         !
 ! A96   A(47,46,57)           109.7682                                         !
 ! A97   A(47,46,58)           107.7499                                         !
 ! A98   A(57,46,58)           105.8175                                         !
 ! A99   A(46,47,48)           116.1615                                         !
 ! A100  A(46,47,59)           109.7517                                         !
 ! A101  A(46,47,60)           108.4531                                         !
 ! A102  A(48,47,59)           107.9095                                         !
 ! A103  A(48,47,60)           107.8753                                         !
 ! A104  A(59,47,60)           106.2365                                         !
 ! A105  A(47,48,61)           110.9642                                         !
 ! A106  A(47,48,62)           110.4606                                         !
 ! A107  A(61,48,62)           105.7923                                         !
 ! A108  A(42,49,50)           112.6429                                         !
 ! D1    D(11,1,2,3)           -25.9496                                         !
 ! D2    D(11,1,2,5)            91.3737                                         !
 ! D3    D(11,1,2,12)         -145.81                                           !
 ! D4    D(17,1,2,3)            90.4128                                         !
 ! D5    D(17,1,2,5)          -152.2639                                         !
 ! D6    D(17,1,2,12)          -29.4476                                         !
 ! D7    D(18,1,2,3)          -146.9164                                         !
 ! D8    D(18,1,2,5)           -29.5931                                         !
 ! D9    D(18,1,2,12)           93.2232                                         !
 ! D10   D(1,2,3,4)             20.9285                                         !
 ! D11   D(1,2,3,19)          -161.6984                                         !
 ! D12   D(5,2,3,4)            -98.2127                                         !
 ! D13   D(5,2,3,19)            79.1603                                         !
 ! D14   D(12,2,3,4)           138.4132                                         !
 ! D15   D(12,2,3,19)          -44.2137                                         !
 ! D16   D(1,2,5,6)             78.2827                                         !
 ! D17   D(1,2,5,13)           -47.2222                                         !
 ! D18   D(1,2,5,14)          -161.054                                          !
 ! D19   D(3,2,5,6)           -166.8216                                         !
 ! D20   D(3,2,5,13)            67.6734                                         !
 ! D21   D(3,2,5,14)           -46.1584                                         !
 ! D22   D(12,2,5,6)           -42.9672                                         !
 ! D23   D(12,2,5,13)         -168.4721                                         !
 ! D24   D(12,2,5,14)           77.696                                          !
 ! D25   D(2,3,19,20)         -152.944                                          !
 ! D26   D(2,3,19,31)          -10.1993                                         !
 ! D27   D(4,3,19,20)           24.1866                                         !
 ! D28   D(4,3,19,31)          166.9312                                         !
 ! D29   D(2,5,6,7)            -73.5795                                         !
 ! D30   D(2,5,6,15)           164.5638                                         !
 ! D31   D(2,5,6,16)            49.0617                                         !
 ! D32   D(13,5,6,7)            51.121                                          !
 ! D33   D(13,5,6,15)          -70.7357                                         !
 ! D34   D(13,5,6,16)          173.7622                                         !
 ! D35   D(14,5,6,7)           166.2105                                         !
 ! D36   D(14,5,6,15)           44.3538                                         !
 ! D37   D(14,5,6,16)          -71.1483                                         !
 ! D38   D(5,6,7,8)             18.1225                                         !
 ! D39   D(5,6,7,9)           -163.2001                                         !
 ! D40   D(15,6,7,8)           139.6618                                         !
 ! D41   D(15,6,7,9)           -41.6608                                         !
 ! D42   D(16,6,7,8)          -106.2226                                         !
 ! D43   D(16,6,7,9)            72.4548                                         !
 ! D44   D(6,7,9,10)             2.9754                                         !
 ! D45   D(8,7,9,10)          -178.2741                                         !
 ! D46   D(3,19,20,21)         105.8543                                         !
 ! D47   D(3,19,20,23)        -131.6374                                         !
 ! D48   D(3,19,20,32)         -11.9029                                         !
 ! D49   D(31,19,20,21)        -38.6672                                         !
 ! D50   D(31,19,20,23)         83.8412                                         !
 ! D51   D(31,19,20,32)       -156.4244                                         !
 ! D52   D(19,20,21,22)         15.2075                                         !
 ! D53   D(19,20,21,40)       -165.4339                                         !
 ! D54   D(23,20,21,22)       -106.1116                                         !
 ! D55   D(23,20,21,40)         73.247                                          !
 ! D56   D(32,20,21,22)        131.0843                                         !
 ! D57   D(32,20,21,40)        -49.557                                          !
 ! D58   D(19,20,23,24)        179.6536                                         !
 ! D59   D(19,20,23,33)        -57.7857                                         !
 ! D60   D(19,20,23,34)         57.3257                                         !
 ! D61   D(21,20,23,24)        -62.1821                                         !
 ! D62   D(21,20,23,33)         60.3786                                         !
 ! D63   D(21,20,23,34)        175.49                                           !
 ! D64   D(32,20,23,24)         61.0844                                         !
 ! D65   D(32,20,23,33)       -176.3549                                         !
 ! D66   D(32,20,23,34)        -61.2435                                         !
 ! D67   D(20,21,40,41)       -174.3138                                         !
 ! D68   D(20,21,40,51)         -0.6557                                         !
 ! D69   D(22,21,40,41)          5.016                                          !
 ! D70   D(22,21,40,51)        178.6741                                         !
 ! D71   D(20,23,24,25)        107.2333                                         !
 ! D72   D(20,23,24,26)        -68.3704                                         !
 ! D73   D(33,23,24,25)        -14.3796                                         !
 ! D74   D(33,23,24,26)        170.0167                                         !
 ! D75   D(34,23,24,25)       -132.8149                                         !
 ! D76   D(34,23,24,26)         51.5814                                         !
 ! D77   D(23,24,25,27)       -175.3332                                         !
 ! D78   D(23,24,25,35)          4.0515                                         !
 ! D79   D(26,24,25,27)          0.3899                                         !
 ! D80   D(26,24,25,35)        179.7746                                         !
 ! D81   D(23,24,26,28)        175.0867                                         !
 ! D82   D(23,24,26,36)         -4.8275                                         !
 ! D83   D(25,24,26,28)         -0.6569                                         !
 ! D84   D(25,24,26,36)        179.429                                          !
 ! D85   D(24,25,27,29)         -0.1384                                         !
 ! D86   D(24,25,27,37)       -178.9164                                         !
 ! D87   D(35,25,27,29)       -179.5268                                         !
 ! D88   D(35,25,27,37)          1.6952                                         !
 ! D89   D(24,26,28,29)          0.6698                                         !
 ! D90   D(24,26,28,38)       -179.925                                          !
 ! D91   D(36,26,28,29)       -179.4153                                         !
 ! D92   D(36,26,28,38)         -0.01                                           !
 ! D93   D(25,27,29,28)          0.1359                                         !
 ! D94   D(25,27,29,30)        179.7866                                         !
 ! D95   D(37,27,29,28)        178.9467                                         !
 ! D96   D(37,27,29,30)         -1.4026                                         !
 ! D97   D(26,28,29,27)         -0.3965                                         !
 ! D98   D(26,28,29,30)        179.9774                                         !
 ! D99   D(38,28,29,27)       -179.8025                                         !
 ! D100  D(38,28,29,30)          0.5714                                         !
 ! D101  D(27,29,30,39)       -177.6383                                         !
 ! D102  D(28,29,30,39)          1.9962                                         !
 ! D103  D(21,40,41,42)       -169.4306                                         !
 ! D104  D(21,40,41,44)         65.8516                                         !
 ! D105  D(21,40,41,52)        -54.4894                                         !
 ! D106  D(51,40,41,42)         16.9337                                         !
 ! D107  D(51,40,41,44)       -107.7841                                         !
 ! D108  D(51,40,41,52)        131.8749                                         !
 ! D109  D(40,41,42,43)        128.8079                                         !
 ! D110  D(40,41,42,49)        -51.4714                                         !
 ! D111  D(44,41,42,43)       -106.2829                                         !
 ! D112  D(44,41,42,49)         73.4378                                         !
 ! D113  D(52,41,42,43)         12.4581                                         !
 ! D114  D(52,41,42,49)       -167.8212                                         !
 ! D115  D(40,41,44,45)        176.6891                                         !
 ! D116  D(40,41,44,53)        -61.4085                                         !
 ! D117  D(40,41,44,54)         53.4373                                         !
 ! D118  D(42,41,44,45)         54.1283                                         !
 ! D119  D(42,41,44,53)        176.0307                                         !
 ! D120  D(42,41,44,54)        -69.1234                                         !
 ! D121  D(52,41,44,45)        -63.147                                          !
 ! D122  D(52,41,44,53)         58.7554                                         !
 ! D123  D(52,41,44,54)        173.6012                                         !
 ! D124  D(41,42,49,50)        -14.1623                                         !
 ! D125  D(43,42,49,50)        165.5651                                         !
 ! D126  D(41,44,45,46)        -91.2872                                         !
 ! D127  D(41,44,45,55)        146.3057                                         !
 ! D128  D(41,44,45,56)         31.1416                                         !
 ! D129  D(53,44,45,46)        149.7368                                         !
 ! D130  D(53,44,45,55)         27.3296                                         !
 ! D131  D(53,44,45,56)        -87.8345                                         !
 ! D132  D(54,44,45,46)         31.2545                                         !
 ! D133  D(54,44,45,55)        -91.1526                                         !
 ! D134  D(54,44,45,56)        153.6833                                         !
 ! D135  D(44,45,46,47)        159.3556                                         !
 ! D136  D(44,45,46,57)        -77.9459                                         !
 ! D137  D(44,45,46,58)         37.9932                                         !
 ! D138  D(55,45,46,47)        -78.0554                                         !
 ! D139  D(55,45,46,57)         44.643                                          !
 ! D140  D(55,45,46,58)        160.5821                                         !
 ! D141  D(56,45,46,47)         37.5017                                         !
 ! D142  D(56,45,46,57)        160.2002                                         !
 ! D143  D(56,45,46,58)        -83.8607                                         !
 ! D144  D(45,46,47,48)        -65.2093                                         !
 ! D145  D(45,46,47,59)         57.5027                                         !
 ! D146  D(45,46,47,60)        173.1608                                         !
 ! D147  D(57,46,47,48)        172.5499                                         !
 ! D148  D(57,46,47,59)        -64.7381                                         !
 ! D149  D(57,46,47,60)         50.9199                                         !
 ! D150  D(58,46,47,48)         57.7682                                         !
 ! D151  D(58,46,47,59)       -179.5199                                         !
 ! D152  D(58,46,47,60)        -63.8618                                         !
 ! D153  D(46,47,48,61)         67.6907                                         !
 ! D154  D(46,47,48,62)        -49.3112                                         !
 ! D155  D(59,47,48,61)        -55.9816                                         !
 ! D156  D(59,47,48,62)       -172.9836                                         !
 ! D157  D(60,47,48,61)       -170.3734                                         !
 ! D158  D(60,47,48,62)         72.6247                                         !
 --------------------------------------------------------------------------------
 Symmetry turned off by external request.
 Stoichiometry    C20H31N4O7(1+)
 Framework group  C1[X(C20H31N4O7)]
 Deg. of freedom   180
 Full point group                 C1      NOp   1
                          Input orientation:                          
 ---------------------------------------------------------------------
 Center     Atomic      Atomic             Coordinates (Angstroms)
 Number     Number       Type             X           Y           Z
 ---------------------------------------------------------------------
      1          7           0       -0.612128  -91.497843  124.774991
      2          6           0       -1.142062  -91.221013  126.156021
      3          6           0       -0.644083  -89.793675  126.490269
      4          8           0       -0.324671  -89.053123  125.561827
      5          6           0       -2.687363  -91.224394  126.177561
      6          6           0       -3.384411  -92.595921  126.180728
      7          6           0       -3.352506  -93.349086  124.856593
      8          8           0       -2.574838  -93.099789  123.947790
      9          8           0       -4.211908  -94.353671  124.702832
     10          1           0       -4.804526  -94.455143  125.467757
     11          1           0       -0.500314  -90.559681  124.338400
     12          1           0       -0.734341  -91.969350  126.841591
     13          1           0       -3.050004  -90.617337  125.339108
     14          1           0       -2.992640  -90.694209  127.087151
     15          1           0       -4.430895  -92.445135  126.473691
     16          1           0       -2.950581  -93.253481  126.947968
     17          1           0        0.311620  -91.939174  124.789875
     18          1           0       -1.295552  -92.108986  124.250507
     19          7           0       -0.659956  -89.473494  127.796084
     20          6           0       -0.796505  -88.090869  128.254167
     21          6           0       -2.246747  -87.973017  128.790421
     22          8           0       -2.907731  -88.990710  129.024337
     23          6           0        0.272174  -87.753263  129.328819
     24          6           0        0.176339  -86.328628  129.828292
     25          6           0       -0.315897  -86.039787  131.108429
     26          6           0        0.492749  -85.251452  128.987519
     27          6           0       -0.496848  -84.726408  131.539302
     28          6           0        0.313538  -83.930914  129.398244
     29          6           0       -0.180083  -83.659585  130.682541
     30          8           0       -0.382763  -82.407958  131.159296
     31          1           0       -1.138164  -90.119309  128.420147
     32          1           0       -0.658799  -87.440984  127.386177
     33          1           0        0.161886  -88.455933  130.163212
     34          1           0        1.250951  -87.945436  128.874317
     35          1           0       -0.573095  -86.854418  131.780607
     36          1           0        0.885874  -85.441571  127.990867
     37          1           0       -0.861704  -84.503481  132.537003
     38          1           0        0.564851  -83.112258  128.728336
     39          1           0       -0.169495  -81.747486  130.480917
     40          7           0       -2.694815  -86.720022  128.982489
     41          6           0       -3.994073  -86.410161  129.596946
     42          6           0       -4.272667  -84.915646  129.408459
     43          8           0       -5.301084  -84.491865  128.949817
     44          6           0       -4.064692  -86.836440  131.084088
     45          6           0       -5.397459  -86.437582  131.749175
     46          6           0       -5.374623  -85.056339  132.427448
     47          6           0       -6.776331  -84.448105  132.637592
     48          7           0       -7.523104  -84.114425  131.424702
     49          8           0       -3.282037  -84.069890  129.798341
     50          1           0       -2.607063  -84.510391  130.350886
     51          1           0       -2.064993  -85.954132  128.778229
     52          1           0       -4.772963  -86.938856  129.042987
     53          1           0       -3.924111  -87.920925  131.097178
     54          1           0       -3.216060  -86.400190  131.627801
     55          1           0       -5.673883  -87.195306  132.491403
     56          1           0       -6.187197  -86.458936  130.986392
     57          1           0       -4.857665  -85.141943  133.394066
     58          1           0       -4.785925  -84.343702  131.835375
     59          1           0       -7.392138  -85.132875  133.235639
     60          1           0       -6.671711  -83.531594  133.231493
     61          1           0       -7.784819  -84.955487  130.915363
     62          1           0       -6.941752  -83.572842  130.785933
 ---------------------------------------------------------------------
 Rotational constants (GHZ):           0.1956431           0.0672506           0.0541222
 Standard basis: 6-31G(d) (6D, 7F)
   527 basis functions,   992 primitive gaussians,   527 cartesian basis functions
   117 alpha electrons      117 beta electrons
       nuclear repulsion energy      3226.1381989623 Hartrees.
 NAtoms=   62 NActive=   62 NUniq=   62 SFac= 1.00D+00 NAtFMM=   60 NAOKFM=T Big=T
 Integral buffers will be    131072 words long.
 Raffenetti 2 integral format.
 Two-electron integral symmetry is turned off.
 Nuclear repulsion after empirical dispersion term =     3226.0583595116 Hartrees.
 One-electron integrals computed using PRISM.
 NBasis=   527 RedAO= T EigKep=  4.30D-04  NBF=   527
 NBsUse=   527 1.00D-06 EigRej= -1.00D+00 NBFU=   527
 Initial guess from the checkpoint file:  "conf-34.chk"
 B after Tr=     0.000000    0.000000    0.000000
         Rot=    1.000000    0.000000    0.000000    0.000000 Ang=   0.00 deg.
 Requested convergence on RMS density matrix=1.00D-08 within 128 cycles.
 Requested convergence on MAX density matrix=1.00D-06.
 Requested convergence on             energy=1.00D-06.
 No special actions if energy rises.
 SCF Done:  E(RB3LYP) =  -1526.27159108     A.U. after    1 cycles
            NFock=  1  Conv=0.20D-08     -V/T= 2.0093

 **********************************************************************

            Population analysis using the SCF Density.

 **********************************************************************

 Alpha  occ. eigenvalues --  -19.34320 -19.29572 -19.28083 -19.27708 -19.27226
 Alpha  occ. eigenvalues --  -19.23853 -19.22358 -14.58740 -14.50422 -14.47842
 Alpha  occ. eigenvalues --  -14.35412 -10.47881 -10.44568 -10.41732 -10.40798
 Alpha  occ. eigenvalues --  -10.40756 -10.36360 -10.36157 -10.36016 -10.35327
 Alpha  occ. eigenvalues --  -10.33613 -10.31075 -10.29877 -10.29818 -10.29664
 Alpha  occ. eigenvalues --  -10.29286 -10.28793 -10.27831 -10.25794 -10.25547
 Alpha  occ. eigenvalues --  -10.24201  -1.25562  -1.19941  -1.18631  -1.17339
 Alpha  occ. eigenvalues --   -1.15587  -1.15569  -1.13533  -1.10602  -1.07362
 Alpha  occ. eigenvalues --   -1.04241  -0.96629  -0.96019  -0.92496  -0.91534
 Alpha  occ. eigenvalues --   -0.89005  -0.88208  -0.85213  -0.84341  -0.82331
 Alpha  occ. eigenvalues --   -0.80423  -0.77329  -0.76700  -0.76123  -0.73777
 Alpha  occ. eigenvalues --   -0.73068  -0.72878  -0.72430  -0.71011  -0.70506
 Alpha  occ. eigenvalues --   -0.69222  -0.68390  -0.67930  -0.66910  -0.64662
 Alpha  occ. eigenvalues --   -0.64581  -0.64444  -0.63929  -0.62024  -0.60462
 Alpha  occ. eigenvalues --   -0.60244  -0.59374  -0.58688  -0.58246  -0.57606
 Alpha  occ. eigenvalues --   -0.56799  -0.56460  -0.56242  -0.55490  -0.54970
 Alpha  occ. eigenvalues --   -0.54300  -0.53768  -0.53472  -0.53081  -0.52637
 Alpha  occ. eigenvalues --   -0.52427  -0.51995  -0.51363  -0.51123  -0.50705
 Alpha  occ. eigenvalues --   -0.50538  -0.50200  -0.49714  -0.48996  -0.47961
 Alpha  occ. eigenvalues --   -0.47283  -0.46901  -0.46630  -0.46266  -0.46092
 Alpha  occ. eigenvalues --   -0.44963  -0.43712  -0.43517  -0.43404  -0.42639
 Alpha  occ. eigenvalues --   -0.41919  -0.41212  -0.40538  -0.40325  -0.39844
 Alpha  occ. eigenvalues --   -0.38684  -0.37929  -0.37353  -0.35906  -0.34921
 Alpha  occ. eigenvalues --   -0.31969  -0.27585
 Alpha virt. eigenvalues --   -0.14613  -0.13557  -0.11311  -0.10290  -0.09888
 Alpha virt. eigenvalues --   -0.09441  -0.08138  -0.07536  -0.05558  -0.03724
 Alpha virt. eigenvalues --   -0.02836  -0.02042  -0.01620  -0.00938  -0.00406
 Alpha virt. eigenvalues --   -0.00095   0.00301   0.01191   0.01317   0.02125
 Alpha virt. eigenvalues --    0.02890   0.03049   0.03376   0.03940   0.04338
 Alpha virt. eigenvalues --    0.05222   0.05644   0.05909   0.06821   0.07076
 Alpha virt. eigenvalues --    0.07300   0.07524   0.07904   0.08911   0.09151
 Alpha virt. eigenvalues --    0.09227   0.09424   0.10051   0.10320   0.10710
 Alpha virt. eigenvalues --    0.10943   0.11551   0.11982   0.13166   0.13292
 Alpha virt. eigenvalues --    0.13944   0.14127   0.14663   0.15814   0.16415
 Alpha virt. eigenvalues --    0.17684   0.18784   0.19091   0.19330   0.20572
 Alpha virt. eigenvalues --    0.21662   0.21837   0.23472   0.23727   0.23891
 Alpha virt. eigenvalues --    0.24246   0.24730   0.25885   0.25941   0.27361
 Alpha virt. eigenvalues --    0.30288   0.32187   0.34791   0.35479   0.35816
 Alpha virt. eigenvalues --    0.37083   0.38276   0.40093   0.40565   0.40838
 Alpha virt. eigenvalues --    0.41486   0.42175   0.42838   0.43414   0.43697
 Alpha virt. eigenvalues --    0.44344   0.44732   0.45554   0.45869   0.46375
 Alpha virt. eigenvalues --    0.47316   0.47601   0.48525   0.49311   0.49602
 Alpha virt. eigenvalues --    0.49739   0.50365   0.50813   0.51108   0.51414
 Alpha virt. eigenvalues --    0.51668   0.51989   0.52480   0.53277   0.53642
 Alpha virt. eigenvalues --    0.54493   0.54913   0.55325   0.55552   0.56922
 Alpha virt. eigenvalues --    0.57221   0.57346   0.58262   0.59236   0.59918
 Alpha virt. eigenvalues --    0.60131   0.60593   0.61017   0.61991   0.62285
 Alpha virt. eigenvalues --    0.63682   0.64063   0.64468   0.65407   0.65996
 Alpha virt. eigenvalues --    0.66595   0.66911   0.67023   0.68096   0.68865
 Alpha virt. eigenvalues --    0.69144   0.69276   0.70019   0.70536   0.71884
 Alpha virt. eigenvalues --    0.72150   0.72766   0.73049   0.73446   0.73775
 Alpha virt. eigenvalues --    0.74409   0.74535   0.75198   0.75537   0.75983
 Alpha virt. eigenvalues --    0.76816   0.77513   0.77812   0.78234   0.78452
 Alpha virt. eigenvalues --    0.78913   0.79323   0.80119   0.80331   0.80488
 Alpha virt. eigenvalues --    0.80837   0.81308   0.81632   0.81971   0.82661
 Alpha virt. eigenvalues --    0.83003   0.83889   0.84569   0.84842   0.86274
 Alpha virt. eigenvalues --    0.86557   0.86976   0.87289   0.88425   0.89326
 Alpha virt. eigenvalues --    0.89562   0.89799   0.90236   0.90696   0.91551
 Alpha virt. eigenvalues --    0.92336   0.93419   0.93822   0.94255   0.95188
 Alpha virt. eigenvalues --    0.95509   0.96485   0.97413   0.98398   0.98667
 Alpha virt. eigenvalues --    0.99367   1.01697   1.02389   1.02760   1.03872
 Alpha virt. eigenvalues --    1.04415   1.04993   1.06399   1.07492   1.09252
 Alpha virt. eigenvalues --    1.10170   1.11463   1.13026   1.13264   1.14249
 Alpha virt. eigenvalues --    1.14525   1.15576   1.16701   1.16993   1.18739
 Alpha virt. eigenvalues --    1.19473   1.20599   1.21885   1.22905   1.23746
 Alpha virt. eigenvalues --    1.25015   1.25307   1.25848   1.27137   1.28774
 Alpha virt. eigenvalues --    1.30322   1.31169   1.32547   1.33724   1.34464
 Alpha virt. eigenvalues --    1.35043   1.35848   1.36380   1.37152   1.38409
 Alpha virt. eigenvalues --    1.39207   1.39856   1.40798   1.41285   1.43106
 Alpha virt. eigenvalues --    1.44201   1.44543   1.46202   1.47301   1.48433
 Alpha virt. eigenvalues --    1.50343   1.51001   1.52436   1.54007   1.55233
 Alpha virt. eigenvalues --    1.56978   1.57072   1.58471   1.58964   1.59833
 Alpha virt. eigenvalues --    1.60790   1.61990   1.62927   1.63512   1.64253
 Alpha virt. eigenvalues --    1.64315   1.65207   1.65480   1.66023   1.66774
 Alpha virt. eigenvalues --    1.67446   1.67836   1.68191   1.68724   1.69418
 Alpha virt. eigenvalues --    1.69797   1.71600   1.71670   1.72619   1.73873
 Alpha virt. eigenvalues --    1.74159   1.74674   1.75158   1.76235   1.76728
 Alpha virt. eigenvalues --    1.77395   1.77959   1.78918   1.79532   1.80211
 Alpha virt. eigenvalues --    1.81273   1.81585   1.82226   1.82932   1.83302
 Alpha virt. eigenvalues --    1.84152   1.84909   1.85542   1.86145   1.86597
 Alpha virt. eigenvalues --    1.87191   1.87842   1.88946   1.89588   1.91186
 Alpha virt. eigenvalues --    1.91691   1.92827   1.94172   1.95322   1.95749
 Alpha virt. eigenvalues --    1.96353   1.97773   1.97851   1.99538   1.99973
 Alpha virt. eigenvalues --    2.00645   2.01748   2.02291   2.02855   2.03621
 Alpha virt. eigenvalues --    2.04336   2.05042   2.05858   2.07692   2.10585
 Alpha virt. eigenvalues --    2.12132   2.12986   2.14170   2.16232   2.17580
 Alpha virt. eigenvalues --    2.18063   2.18945   2.19736   2.20534   2.21678
 Alpha virt. eigenvalues --    2.22480   2.23177   2.23684   2.24821   2.25770
 Alpha virt. eigenvalues --    2.26673   2.27304   2.29921   2.30642   2.31222
 Alpha virt. eigenvalues --    2.32326   2.32400   2.33092   2.34440   2.35279
 Alpha virt. eigenvalues --    2.35318   2.36727   2.36912   2.39376   2.39463
 Alpha virt. eigenvalues --    2.41041   2.41234   2.44060   2.44519   2.46979
 Alpha virt. eigenvalues --    2.47591   2.48206   2.49081   2.50109   2.52022
 Alpha virt. eigenvalues --    2.52620   2.53589   2.55184   2.56089   2.57245
 Alpha virt. eigenvalues --    2.57730   2.61427   2.61764   2.62236   2.63719
 Alpha virt. eigenvalues --    2.63896   2.65524   2.66608   2.67426   2.68889
 Alpha virt. eigenvalues --    2.70400   2.71442   2.74220   2.77163   2.78854
 Alpha virt. eigenvalues --    2.79489   2.80811   2.83988   2.85379   2.86977
 Alpha virt. eigenvalues --    2.88416   2.90456   2.93344   2.93820   2.98961
 Alpha virt. eigenvalues --    3.00888   3.02747   3.08326   3.30962   3.68641
 Alpha virt. eigenvalues --    3.72853   3.74937   3.83854   3.86495   3.92515
 Alpha virt. eigenvalues --    3.94503   3.95052   3.98485   4.02269   4.03730
 Alpha virt. eigenvalues --    4.06837   4.09507   4.15116   4.16551   4.18354
 Alpha virt. eigenvalues --    4.19389   4.20076   4.21980   4.27702   4.28175
 Alpha virt. eigenvalues --    4.32655   4.33412   4.38975   4.39649   4.42677
 Alpha virt. eigenvalues --    4.45501   4.51858   4.56094   4.59832   4.68226
          Condensed to atoms (all electrons):
 Mulliken charges:
               1
     1  N   -0.769324
     2  C   -0.122004
     3  C    0.627002
     4  O   -0.508066
     5  C   -0.318510
     6  C   -0.420381
     7  C    0.643658
     8  O   -0.476855
     9  O   -0.514520
    10  H    0.441990
    11  H    0.420176
    12  H    0.204856
    13  H    0.199091
    14  H    0.229592
    15  H    0.209212
    16  H    0.209478
    17  H    0.408367
    18  H    0.454241
    19  N   -0.563999
    20  C   -0.115102
    21  C    0.637720
    22  O   -0.548335
    23  C   -0.341544
    24  C    0.132385
    25  C   -0.178007
    26  C   -0.209490
    27  C   -0.216662
    28  C   -0.181643
    29  C    0.361768
    30  O   -0.617485
    31  H    0.352457
    32  H    0.205727
    33  H    0.163533
    34  H    0.183054
    35  H    0.151174
    36  H    0.150204
    37  H    0.175139
    38  H    0.154059
    39  H    0.425211
    40  N   -0.626040
    41  C   -0.044912
    42  C    0.600302
    43  O   -0.430040
    44  C   -0.290332
    45  C   -0.274141
    46  C   -0.284358
    47  C   -0.145096
    48  N   -0.707126
    49  O   -0.591695
    50  H    0.428272
    51  H    0.352326
    52  H    0.196865
    53  H    0.178224
    54  H    0.135911
    55  H    0.152095
    56  H    0.140186
    57  H    0.132133
    58  H    0.137698
    59  H    0.142107
    60  H    0.151607
    61  H    0.296929
    62  H    0.310917
 Sum of Mulliken charges =   1.00000
 Mulliken charges with hydrogens summed into heavy atoms:
               1
     1  N    0.513459
     2  C    0.082853
     3  C    0.627002
     4  O   -0.508066
     5  C    0.110173
     6  C   -0.001691
     7  C    0.643658
     8  O   -0.476855
     9  O   -0.072530
    19  N   -0.211542
    20  C    0.090625
    21  C    0.637720
    22  O   -0.548335
    23  C    0.005044
    24  C    0.132385
    25  C   -0.026833
    26  C   -0.059286
    27  C   -0.041523
    28  C   -0.027585
    29  C    0.361768
    30  O   -0.192274
    40  N   -0.273714
    41  C    0.151953
    42  C    0.600302
    43  O   -0.430040
    44  C    0.023803
    45  C    0.018140
    46  C   -0.014527
    47  C    0.148618
    48  N   -0.099280
    49  O   -0.163422
 Electronic spatial extent (au):  <R**2>=       20282254.2419
 Charge=              1.0000 electrons
 Dipole moment (field-independent basis, Debye):
    X=             -3.9736    Y=           -436.1762    Z=            610.7365  Tot=            750.5095
 Quadrupole moment (field-independent basis, Debye-Ang):
   XX=           -180.4682   YY=          39469.9699   ZZ=          77493.2380
   XY=            408.2463   XZ=           -500.2415   YZ=         -55444.8877
 Traceless Quadrupole moment (field-independent basis, Debye-Ang):
   XX=         -39108.0481   YY=            542.3900   ZZ=          38565.6581
   XY=            408.2463   XZ=           -500.2415   YZ=         -55444.8877
 Octapole moment (field-independent basis, Debye-Ang**2):
  XXX=           1453.3794  YYY=       -3560561.6557  ZZZ=        9811117.9011  XYY=         -40684.7994
  XXY=          15424.9201  XXZ=         -23357.6449  XZZ=         -62515.1801  YZZ=       -7033650.3026
  YYZ=        5015584.3584  XYZ=          51527.8279
 Hexadecapole moment (field-independent basis, Debye-Ang**3):
 XXXX=         -13978.8155 YYYY=      320297155.2404 ZZZZ=     1239268880.9422 XXXY=        -124434.9697
 XXXZ=         188972.7404 YYYX=        3967016.9255 YYYZ=     -452284298.6900 ZZZX=       -7749551.5217
 ZZZY=     -890390056.2625 XXYY=       -1321272.9205 XXZZ=       -3026223.3761 YYZZ=      636094519.8574
 XXYZ=        1995494.0016 YYXZ=       -5143408.8528 ZZXY=        6463712.9643
 N-N= 3.226058359512D+03 E-N=-9.985015782407D+03  KE= 1.512239483958D+03
 Unable to Open any file for archive entry.
 1\1\GINC-VIM-001\SP\RB3LYP\6-31G(d)\C20H31N4O7(1+)\KENGMITH\24-May-202
 2\0\\# B3LYP/6-31G* empiricaldispersion=gd3 guess=read geom=check nosy
 mm integral(ultrafinegrid)\\Candidate Structure: Conf:34 Charge calc i
 n gas phase\\1,1\N,0,-0.6121278599,-91.4978433848,124.7749912565\C,0,-
 1.1420620689,-91.2210133356,126.1560205655\C,0,-0.6440830745,-89.79367
 49631,126.4902689862\O,0,-0.324671142,-89.0531230938,125.5618266566\C,
 0,-2.6873625328,-91.2243942662,126.1775607802\C,0,-3.3844109463,-92.59
 59212305,126.1807276001\C,0,-3.3525057462,-93.3490864646,124.856593239
 \O,0,-2.5748378469,-93.0997889674,123.9477901978\O,0,-4.2119081878,-94
 .3536714876,124.702831639\H,0,-4.8045257262,-94.4551433463,125.4677571
 538\H,0,-0.5003143764,-90.5596809496,124.3383998458\H,0,-0.734341451,-
 91.969350027,126.8415906019\H,0,-3.0500039945,-90.6173371878,125.33910
 83755\H,0,-2.9926401759,-90.694209383,127.0871509684\H,0,-4.4308945372
 ,-92.4451348193,126.4736908536\H,0,-2.9505813944,-93.2534806114,126.94
 79682111\H,0,0.3116198789,-91.9391736179,124.7898746667\H,0,-1.2955522
 76,-92.1089861188,124.2505072004\N,0,-0.6599564393,-89.4734938037,127.
 7960839423\C,0,-0.7965050793,-88.0908685217,128.2541666412\C,0,-2.2467
 470057,-87.9730166126,128.7904209859\O,0,-2.9077313783,-88.9907102536,
 129.0243367615\C,0,0.272173907,-87.753263026,129.3288187413\C,0,0.1763
 394861,-86.3286279133,129.8282921651\C,0,-0.3158971767,-86.039787496,1
 31.1084292204\C,0,0.4927487784,-85.2514517096,128.9875190035\C,0,-0.49
 68484855,-84.7264077167,131.5393016396\C,0,0.3135382158,-83.9309137168
 ,129.3982435304\C,0,-0.1800826821,-83.6595849199,130.6825407161\O,0,-0
 .3827626089,-82.4079578368,131.1592957586\H,0,-1.1381638894,-90.119308
 5349,128.4201472794\H,0,-0.658798886,-87.4409836417,127.3861774952\H,0
 ,0.1618860907,-88.4559333282,130.1632119189\H,0,1.2509510408,-87.94543
 59834,128.8743171287\H,0,-0.5730946813,-86.8544179704,131.7806068381\H
 ,0,0.8858735209,-85.441570741,127.9908674926\H,0,-0.8617037855,-84.503
 4812662,132.537002751\H,0,0.5648508175,-83.1122578383,128.7283357609\H
 ,0,-0.1694950647,-81.747486219,130.4809174376\N,0,-2.6948151944,-86.72
 0022086,128.9824890296\C,0,-3.9940726242,-86.4101613919,129.5969459438
 \C,0,-4.272666588,-84.9156459294,129.4084586382\O,0,-5.3010844095,-84.
 4918652691,128.9498169679\C,0,-4.064691557,-86.8364395001,131.08408764
 31\C,0,-5.397458607,-86.4375824956,131.7491748708\C,0,-5.3746228803,-8
 5.0563386302,132.4274475132\C,0,-6.7763305267,-84.4481052206,132.63759
 18319\N,0,-7.5231040491,-84.1144248555,131.4247015138\O,0,-3.282036537
 6,-84.0698896649,129.7983414971\H,0,-2.6070633557,-84.5103914447,130.3
 508859729\H,0,-2.0649927364,-85.95413179,128.7782289227\H,0,-4.7729627
 357,-86.9388557677,129.0429870591\H,0,-3.9241113465,-87.9209253238,131
 .0971779179\H,0,-3.2160598661,-86.4001904501,131.6278009712\H,0,-5.673
 8834768,-87.1953058213,132.4914029693\H,0,-6.187197269,-86.4589359378,
 130.9863915458\H,0,-4.8576646033,-85.1419434885,133.3940657814\H,0,-4.
 7859247671,-84.3437016199,131.8353747394\H,0,-7.3921376819,-85.1328745
 875,133.2356386667\H,0,-6.6717113691,-83.5315937777,133.2314933002\H,0
 ,-7.7848190417,-84.9554873711,130.9153633889\H,0,-6.9417517633,-83.572
 8422417,130.7859329087\\Version=ES64L-G16RevC.01\HF=-1526.2715911\RMSD
 =1.997e-09\Dipole=3.1280461,-6.0620892,-2.9678576\Quadrupole=-29075.87
 52478,403.2536904,28672.6215575,303.5211284,-371.9172967,-41221.915052
 4\PG=C01 [X(C20H31N4O7)]\\@
 The archive entry for this job was punched.


 YOU KNOW YOU'RE A TEACHER WHEN YOU SAY 2, WRITE 3, AND MEAN 4.
 -- RONALD ANSTROM, HIGH SCHOOL TEACHER, UNDERWOOD, N.D. 1974
 Job cpu time:       0 days  0 hours  1 minutes 33.7 seconds.
 Elapsed time:       0 days  0 hours  0 minutes 24.0 seconds.
 File lengths (MBytes):  RWF=    264 Int=      0 D2E=      0 Chk=     40 Scr=     16
 Normal termination of Gaussian 16 at Tue May 24 19:13:21 2022.
