 Entering Gaussian System, Link 0=/opt/software/Gaussian/g16-AVX2-C.01/g16/g16
 Input=charge-conf-997.com
 Output=charge-conf-997.log
 Initial command:
 /opt/software/Gaussian/g16-AVX2-C.01/g16/l1.exe "/mnt/gs18/scratch/users/kengmith/Gau-56736.inp" -scrdir="/mnt/gs18/scratch/users/kengmith/"
 Entering Link 1 = /opt/software/Gaussian/g16-AVX2-C.01/g16/l1.exe PID=     56773.
  
 Copyright (c) 1988-2019, Gaussian, Inc.  All Rights Reserved.
  
 This is part of the Gaussian(R) 16 program.  It is based on
 the Gaussian(R) 09 system (copyright 2009, Gaussian, Inc.),
 the Gaussian(R) 03 system (copyright 2003, Gaussian, Inc.),
 the Gaussian(R) 98 system (copyright 1998, Gaussian, Inc.),
 the Gaussian(R) 94 system (copyright 1995, Gaussian, Inc.),
 the Gaussian 92(TM) system (copyright 1992, Gaussian, Inc.),
 the Gaussian 90(TM) system (copyright 1990, Gaussian, Inc.),
 the Gaussian 88(TM) system (copyright 1988, Gaussian, Inc.),
 the Gaussian 86(TM) system (copyright 1986, Carnegie Mellon
 University), and the Gaussian 82(TM) system (copyright 1983,
 Carnegie Mellon University). Gaussian is a federally registered
 trademark of Gaussian, Inc.
  
 This software contains proprietary and confidential information,
 including trade secrets, belonging to Gaussian, Inc.
  
 This software is provided under written license and may be
 used, copied, transmitted, or stored only in accord with that
 written license.
  
 The following legend is applicable only to US Government
 contracts under FAR:
  
                    RESTRICTED RIGHTS LEGEND
  
 Use, reproduction and disclosure by the US Government is
 subject to restrictions as set forth in subparagraphs (a)
 and (c) of the Commercial Computer Software - Restricted
 Rights clause in FAR 52.227-19.
  
 Gaussian, Inc.
 340 Quinnipiac St., Bldg. 40, Wallingford CT 06492
  
  
 ---------------------------------------------------------------
 Warning -- This program may not be used in any manner that
 competes with the business of Gaussian, Inc. or will provide
 assistance to any competitor of Gaussian, Inc.  The licensee
 of this program is prohibited from giving any competitor of
 Gaussian, Inc. access to this program.  By using this program,
 the user acknowledges that Gaussian, Inc. is engaged in the
 business of creating and licensing software in the field of
 computational chemistry and represents and warrants to the
 licensee that it is not a competitor of Gaussian, Inc. and that
 it will not use this program in any manner prohibited above.
 ---------------------------------------------------------------
  

 Cite this work as:
 Gaussian 16, Revision C.01,
 M. J. Frisch, G. W. Trucks, H. B. Schlegel, G. E. Scuseria, 
 M. A. Robb, J. R. Cheeseman, G. Scalmani, V. Barone, 
 G. A. Petersson, H. Nakatsuji, X. Li, M. Caricato, A. V. Marenich, 
 J. Bloino, B. G. Janesko, R. Gomperts, B. Mennucci, H. P. Hratchian, 
 J. V. Ortiz, A. F. Izmaylov, J. L. Sonnenberg, D. Williams-Young, 
 F. Ding, F. Lipparini, F. Egidi, J. Goings, B. Peng, A. Petrone, 
 T. Henderson, D. Ranasinghe, V. G. Zakrzewski, J. Gao, N. Rega, 
 G. Zheng, W. Liang, M. Hada, M. Ehara, K. Toyota, R. Fukuda, 
 J. Hasegawa, M. Ishida, T. Nakajima, Y. Honda, O. Kitao, H. Nakai, 
 T. Vreven, K. Throssell, J. A. Montgomery, Jr., J. E. Peralta, 
 F. Ogliaro, M. J. Bearpark, J. J. Heyd, E. N. Brothers, K. N. Kudin, 
 V. N. Staroverov, T. A. Keith, R. Kobayashi, J. Normand, 
 K. Raghavachari, A. P. Rendell, J. C. Burant, S. S. Iyengar, 
 J. Tomasi, M. Cossi, J. M. Millam, M. Klene, C. Adamo, R. Cammi, 
 J. W. Ochterski, R. L. Martin, K. Morokuma, O. Farkas, 
 J. B. Foresman, and D. J. Fox, Gaussian, Inc., Wallingford CT, 2019.
 
 ******************************************
 Gaussian 16:  ES64L-G16RevC.01  3-Jul-2019
                24-May-2022 
 ******************************************
 %mem=8gb
 %nproc=4
 Will use up to    4 processors via shared memory.
 %chk=conf-997.chk
 ----------------------------------------------------------------------
 # B3LYP/6-31G* empiricaldispersion=gd3 guess=read geom=check nosymm in
 tegral(ultrafinegrid)
 ----------------------------------------------------------------------
 1/29=2,38=1,172=1/1;
 2/12=2,15=1,40=1/2;
 3/5=1,6=6,7=1,11=2,14=-4,25=1,30=1,74=-5,75=-5,116=-2,124=31/1,2,3;
 4/5=1/1;
 5/5=2,38=6/2;
 6/7=2,8=2,9=2,10=2,28=1/1;
 99/5=1,9=1/99;
 ------------------------------------------------------
 Candidate Structure: Conf:997 Charge calc in gas phase
 ------------------------------------------------------
 Structure from the checkpoint file:  "conf-997.chk"
 Charge =  1 Multiplicity = 1
 Redundant internal coordinates found in file.  (old form).
 N,0,-3.1199319239,-87.1891574962,125.6154004284
 C,0,-2.3363918592,-88.3754794797,126.1369609778
 C,0,-2.4872772364,-88.6921136546,127.6311838295
 O,0,-1.5901230963,-89.3580569609,128.134110251
 C,0,-2.5859490623,-89.6564185324,125.3201172633
 C,0,-2.4851391449,-89.5188649067,123.776689505
 C,0,-1.3789714959,-88.5700138569,123.3346196604
 O,0,-1.5182262175,-87.3600007045,123.4077308176
 O,0,-0.2180920875,-89.070135333,122.9035577923
 H,0,-0.2390887661,-90.0406677955,122.8519690212
 H,0,-2.7691333567,-87.0298090265,124.6403284338
 H,0,-1.2846149938,-88.0498352525,126.0171176567
 H,0,-3.5696757419,-90.0797054911,125.5570438226
 H,0,-1.8432389982,-90.3711997798,125.6854670706
 H,0,-3.4141217645,-89.104514595,123.3716614741
 H,0,-2.374416192,-90.5177912965,123.3420789854
 H,0,-4.1360156144,-87.30919779,125.5996168291
 H,0,-2.8475062743,-86.3268047699,126.1545149982
 N,0,-3.5765756681,-88.2723339694,128.34028391
 C,0,-3.589042005,-88.3612952054,129.824209376
 C,0,-3.2480921714,-86.9203739758,130.2463822697
 O,0,-4.136491275,-86.1029110393,130.5041569455
 C,0,-4.9280319828,-88.850876292,130.3824305422
 C,0,-4.8323044223,-89.0885420561,131.8750071255
 C,0,-4.3107032612,-90.2955562888,132.3655674259
 C,0,-5.213203762,-88.1068178604,132.7961931412
 C,0,-4.1754860183,-90.523525719,133.7296892963
 C,0,-5.0862366256,-88.322058229,134.1678271098
 C,0,-4.566331339,-89.5327383379,134.6401031812
 O,0,-4.4136849927,-89.8127412305,135.9638172644
 H,0,-4.2467003616,-87.6290568317,127.9363508366
 H,0,-2.7922780852,-89.0569025322,130.0918677461
 H,0,-5.7031681056,-88.1110708986,130.1561377394
 H,0,-5.1857718354,-89.7778120539,129.8579675016
 H,0,-4.0148018081,-91.0766332121,131.667693662
 H,0,-5.605567902,-87.1597860151,132.4381539582
 H,0,-3.7813482853,-91.4593497551,134.1119374642
 H,0,-5.3937370216,-87.5506741038,134.8708736392
 H,0,-4.7381812059,-89.0694037824,136.4959481671
 N,0,-1.949537272,-86.5490382839,130.0401757761
 C,0,-1.6485302022,-85.1803892318,129.5663505389
 C,0,-2.378070269,-85.0919486891,128.2108321386
 O,0,-1.8424375227,-85.3321776716,127.1373362505
 C,0,-0.1378414298,-84.8470139054,129.4750455149
 C,0,0.8763148876,-86.0027162527,129.3315342772
 C,0,0.7551003113,-86.9250165758,128.1081715796
 C,0,1.0561085407,-86.2981672927,126.7450467817
 N,0,0.6519380442,-87.2442355734,125.6823743342
 O,0,-3.6958781139,-84.8777369152,128.2342671616
 H,0,-4.0357548198,-84.9182638645,129.1638458768
 H,0,-1.3184317979,-87.2776458098,129.7261544363
 H,0,-2.131221362,-84.489013632,130.2614956012
 H,0,-0.0167792968,-84.1383102907,128.6494023568
 H,0,0.1235302811,-84.3025399399,130.3879521031
 H,0,0.8330929732,-86.6182980405,130.2398815894
 H,0,1.8734700707,-85.5448890542,129.343251876
 H,0,1.4222819556,-87.7842796591,128.2602749093
 H,0,-0.2478309389,-87.3485725488,128.0471541191
 H,0,0.4646510486,-85.3907993346,126.611466623
 H,0,2.118550913,-86.0121807512,126.6877648561
 H,0,1.3197594119,-88.0140299063,125.6393175228
 H,0,0.686167017,-86.7928495265,124.7693571978
 Recover connectivity data from disk.
                           ----------------------------
                           !    Current Parameters    !
                           ! (Angstroms and Degrees)  !
 --------------------------                            --------------------------
 ! Name  Definition              Value                                          !
 --------------------------------------------------------------------------------
 ! R1    R(1,2)                  1.5144                                         !
 ! R2    R(1,11)                 1.0484                                         !
 ! R3    R(1,17)                 1.0233                                         !
 ! R4    R(1,18)                 1.0529                                         !
 ! R5    R(2,3)                  1.5348                                         !
 ! R6    R(2,5)                  1.5396                                         !
 ! R7    R(2,12)                 1.1075                                         !
 ! R8    R(3,4)                  1.2253                                         !
 ! R9    R(3,19)                 1.3659                                         !
 ! R10   R(5,6)                  1.5528                                         !
 ! R11   R(5,13)                 1.0968                                         !
 ! R12   R(5,14)                 1.0936                                         !
 ! R13   R(6,7)                  1.5229                                         !
 ! R14   R(6,15)                 1.0949                                         !
 ! R15   R(6,16)                 1.095                                          !
 ! R16   R(7,8)                  1.2202                                         !
 ! R17   R(7,9)                  1.3355                                         !
 ! R18   R(9,10)                 0.9721                                         !
 ! R19   R(19,20)                1.4866                                         !
 ! R20   R(19,31)                1.0129                                         !
 ! R21   R(20,21)                1.5397                                         !
 ! R22   R(20,23)                1.5311                                         !
 ! R23   R(20,32)                1.091                                          !
 ! R24   R(21,22)                1.2345                                         !
 ! R25   R(21,40)                1.3663                                         !
 ! R26   R(23,24)                1.5144                                         !
 ! R27   R(23,33)                1.0952                                         !
 ! R28   R(23,34)                1.0958                                         !
 ! R29   R(24,25)                1.4034                                         !
 ! R30   R(24,26)                1.3991                                         !
 ! R31   R(25,27)                1.3896                                         !
 ! R32   R(25,35)                1.0884                                         !
 ! R33   R(26,28)                1.3942                                         !
 ! R34   R(26,36)                1.0858                                         !
 ! R35   R(27,29)                1.4012                                         !
 ! R36   R(27,37)                1.085                                          !
 ! R37   R(28,29)                1.3997                                         !
 ! R38   R(28,38)                1.0881                                         !
 ! R39   R(29,30)                1.3616                                         !
 ! R40   R(30,39)                0.9701                                         !
 ! R41   R(40,41)                1.4793                                         !
 ! R42   R(40,51)                1.0138                                         !
 ! R43   R(41,42)                1.5419                                         !
 ! R44   R(41,44)                1.5497                                         !
 ! R45   R(41,52)                1.0928                                         !
 ! R46   R(42,43)                1.2235                                         !
 ! R47   R(42,49)                1.3353                                         !
 ! R48   R(44,45)                1.5443                                         !
 ! R49   R(44,53)                1.0948                                         !
 ! R50   R(44,54)                1.0946                                         !
 ! R51   R(45,46)                1.5369                                         !
 ! R52   R(45,55)                1.0981                                         !
 ! R53   R(45,56)                1.0973                                         !
 ! R54   R(46,47)                1.5302                                         !
 ! R55   R(46,57)                1.0985                                         !
 ! R56   R(46,58)                1.0904                                         !
 ! R57   R(47,48)                1.4791                                         !
 ! R58   R(47,59)                1.0913                                         !
 ! R59   R(47,60)                1.1018                                         !
 ! R60   R(48,61)                1.02                                           !
 ! R61   R(48,62)                1.0191                                         !
 ! R62   R(49,50)                0.9906                                         !
 ! A1    A(2,1,11)             105.4413                                         !
 ! A2    A(2,1,17)             115.2889                                         !
 ! A3    A(2,1,18)             109.3538                                         !
 ! A4    A(11,1,17)            109.6167                                         !
 ! A5    A(11,1,18)            105.3763                                         !
 ! A6    A(17,1,18)            111.1563                                         !
 ! A7    A(1,2,3)              116.4898                                         !
 ! A8    A(1,2,5)              112.6546                                         !
 ! A9    A(1,2,12)             102.9296                                         !
 ! A10   A(3,2,5)              109.2048                                         !
 ! A11   A(3,2,12)             105.032                                          !
 ! A12   A(5,2,12)             109.9471                                         !
 ! A13   A(2,3,4)              116.0874                                         !
 ! A14   A(2,3,19)             121.3602                                         !
 ! A15   A(4,3,19)             122.5399                                         !
 ! A16   A(2,5,6)              116.3036                                         !
 ! A17   A(2,5,13)             110.6011                                         !
 ! A18   A(2,5,14)             104.8602                                         !
 ! A19   A(6,5,13)             107.8856                                         !
 ! A20   A(6,5,14)             110.2343                                         !
 ! A21   A(13,5,14)            106.5411                                         !
 ! A22   A(5,6,7)              113.0082                                         !
 ! A23   A(5,6,15)             110.2511                                         !
 ! A24   A(5,6,16)             108.6787                                         !
 ! A25   A(7,6,15)             105.8499                                         !
 ! A26   A(7,6,16)             112.3165                                         !
 ! A27   A(15,6,16)            106.5119                                         !
 ! A28   A(6,7,8)              121.1684                                         !
 ! A29   A(6,7,9)              119.4549                                         !
 ! A30   A(8,7,9)              119.3339                                         !
 ! A31   A(7,9,10)             111.8526                                         !
 ! A32   A(3,19,20)            120.4312                                         !
 ! A33   A(3,19,31)            121.0482                                         !
 ! A34   A(20,19,31)           115.4994                                         !
 ! A35   A(19,20,21)           102.4642                                         !
 ! A36   A(19,20,23)           112.9791                                         !
 ! A37   A(19,20,32)           106.0757                                         !
 ! A38   A(21,20,23)           113.1371                                         !
 ! A39   A(21,20,32)           111.5728                                         !
 ! A40   A(23,20,32)           110.2032                                         !
 ! A41   A(20,21,22)           121.1712                                         !
 ! A42   A(20,21,40)           115.0515                                         !
 ! A43   A(22,21,40)           122.3799                                         !
 ! A44   A(20,23,24)           110.7468                                         !
 ! A45   A(20,23,33)           109.1259                                         !
 ! A46   A(20,23,34)           107.5595                                         !
 ! A47   A(24,23,33)           110.7572                                         !
 ! A48   A(24,23,34)           110.7223                                         !
 ! A49   A(33,23,34)           107.8222                                         !
 ! A50   A(23,24,25)           120.1968                                         !
 ! A51   A(23,24,26)           121.4394                                         !
 ! A52   A(25,24,26)           118.3284                                         !
 ! A53   A(24,25,27)           121.358                                          !
 ! A54   A(24,25,35)           119.6111                                         !
 ! A55   A(27,25,35)           119.0274                                         !
 ! A56   A(24,26,28)           120.9731                                         !
 ! A57   A(24,26,36)           119.5556                                         !
 ! A58   A(28,26,36)           119.4692                                         !
 ! A59   A(25,27,29)           119.6487                                         !
 ! A60   A(25,27,37)           121.5119                                         !
 ! A61   A(29,27,37)           118.8366                                         !
 ! A62   A(26,28,29)           119.9548                                         !
 ! A63   A(26,28,38)           120.033                                          !
 ! A64   A(29,28,38)           120.012                                          !
 ! A65   A(27,29,28)           119.7363                                         !
 ! A66   A(27,29,30)           117.0645                                         !
 ! A67   A(28,29,30)           123.1992                                         !
 ! A68   A(29,30,39)           109.7681                                         !
 ! A69   A(21,40,41)           119.5512                                         !
 ! A70   A(21,40,51)           116.3011                                         !
 ! A71   A(41,40,51)           116.0436                                         !
 ! A72   A(40,41,42)           103.7908                                         !
 ! A73   A(40,41,44)           114.5983                                         !
 ! A74   A(40,41,52)           106.9606                                         !
 ! A75   A(42,41,44)           113.3963                                         !
 ! A76   A(42,41,52)           108.297                                          !
 ! A77   A(44,41,52)           109.3874                                         !
 ! A78   A(41,42,43)           123.5682                                         !
 ! A79   A(41,42,49)           117.4331                                         !
 ! A80   A(43,42,49)           118.616                                          !
 ! A81   A(41,44,45)           118.9905                                         !
 ! A82   A(41,44,53)           106.9465                                         !
 ! A83   A(41,44,54)           106.8958                                         !
 ! A84   A(45,44,53)           109.9834                                         !
 ! A85   A(45,44,54)           107.0346                                         !
 ! A86   A(53,44,54)           106.2938                                         !
 ! A87   A(44,45,46)           118.1185                                         !
 ! A88   A(44,45,55)           108.4696                                         !
 ! A89   A(44,45,56)           106.4721                                         !
 ! A90   A(46,45,55)           108.598                                          !
 ! A91   A(46,45,56)           109.3029                                         !
 ! A92   A(55,45,56)           105.1188                                         !
 ! A93   A(45,46,47)           116.5982                                         !
 ! A94   A(45,46,57)           108.1383                                         !
 ! A95   A(45,46,58)           110.4993                                         !
 ! A96   A(47,46,57)           108.9239                                         !
 ! A97   A(47,46,58)           106.8698                                         !
 ! A98   A(57,46,58)           105.2214                                         !
 ! A99   A(46,47,48)           108.9191                                         !
 ! A100  A(46,47,59)           110.0608                                         !
 ! A101  A(46,47,60)           110.0191                                         !
 ! A102  A(48,47,59)           107.2042                                         !
 ! A103  A(48,47,60)           113.0907                                         !
 ! A104  A(59,47,60)           107.4843                                         !
 ! A105  A(47,48,61)           109.5207                                         !
 ! A106  A(47,48,62)           110.5607                                         !
 ! A107  A(61,48,62)           105.9304                                         !
 ! A108  A(42,49,50)           110.3964                                         !
 ! D1    D(11,1,2,3)           170.5117                                         !
 ! D2    D(11,1,2,5)           -62.1684                                         !
 ! D3    D(11,1,2,12)           56.1982                                         !
 ! D4    D(17,1,2,3)           -68.4427                                         !
 ! D5    D(17,1,2,5)            58.8772                                         !
 ! D6    D(17,1,2,12)          177.2438                                         !
 ! D7    D(18,1,2,3)            57.6453                                         !
 ! D8    D(18,1,2,5)          -175.0349                                         !
 ! D9    D(18,1,2,12)          -56.6683                                         !
 ! D10   D(1,2,3,4)           -158.8799                                         !
 ! D11   D(1,2,3,19)            22.3763                                         !
 ! D12   D(5,2,3,4)             72.1208                                         !
 ! D13   D(5,2,3,19)          -106.623                                          !
 ! D14   D(12,2,3,4)           -45.7578                                         !
 ! D15   D(12,2,3,19)          135.4984                                         !
 ! D16   D(1,2,5,6)             48.4418                                         !
 ! D17   D(1,2,5,13)           -75.049                                          !
 ! D18   D(1,2,5,14)           170.4685                                         !
 ! D19   D(3,2,5,6)            179.5284                                         !
 ! D20   D(3,2,5,13)            56.0376                                         !
 ! D21   D(3,2,5,14)           -58.4449                                         !
 ! D22   D(12,2,5,6)           -65.7261                                         !
 ! D23   D(12,2,5,13)          170.7831                                         !
 ! D24   D(12,2,5,14)           56.3006                                         !
 ! D25   D(2,3,19,20)         -168.4381                                         !
 ! D26   D(2,3,19,31)           -8.9809                                         !
 ! D27   D(4,3,19,20)           12.9002                                         !
 ! D28   D(4,3,19,31)          172.3574                                         !
 ! D29   D(2,5,6,7)             37.4238                                         !
 ! D30   D(2,5,6,15)           -80.8016                                         !
 ! D31   D(2,5,6,16)           162.8065                                         !
 ! D32   D(13,5,6,7)           162.3102                                         !
 ! D33   D(13,5,6,15)           44.0849                                         !
 ! D34   D(13,5,6,16)          -72.3071                                         !
 ! D35   D(14,5,6,7)           -81.7267                                         !
 ! D36   D(14,5,6,15)          160.048                                          !
 ! D37   D(14,5,6,16)           43.656                                          !
 ! D38   D(5,6,7,8)            -76.6828                                         !
 ! D39   D(5,6,7,9)            100.9233                                         !
 ! D40   D(15,6,7,8)            44.0792                                         !
 ! D41   D(15,6,7,9)          -138.3147                                         !
 ! D42   D(16,6,7,8)           159.9219                                         !
 ! D43   D(16,6,7,9)           -22.472                                          !
 ! D44   D(6,7,9,10)             4.8063                                         !
 ! D45   D(8,7,9,10)          -177.5433                                         !
 ! D46   D(3,19,20,21)          99.8512                                         !
 ! D47   D(3,19,20,23)        -138.087                                          !
 ! D48   D(3,19,20,32)         -17.251                                          !
 ! D49   D(31,19,20,21)        -60.693                                          !
 ! D50   D(31,19,20,23)         61.3688                                         !
 ! D51   D(31,19,20,32)       -177.7952                                         !
 ! D52   D(19,20,21,22)         94.3333                                         !
 ! D53   D(19,20,21,40)        -72.4811                                         !
 ! D54   D(23,20,21,22)        -27.6209                                         !
 ! D55   D(23,20,21,40)        165.5647                                         !
 ! D56   D(32,20,21,22)       -152.5661                                         !
 ! D57   D(32,20,21,40)         40.6195                                         !
 ! D58   D(19,20,23,24)        172.9025                                         !
 ! D59   D(19,20,23,33)        -64.9237                                         !
 ! D60   D(19,20,23,34)         51.7889                                         !
 ! D61   D(21,20,23,24)        -71.2401                                         !
 ! D62   D(21,20,23,33)         50.9337                                         !
 ! D63   D(21,20,23,34)        167.6464                                         !
 ! D64   D(32,20,23,24)         54.4429                                         !
 ! D65   D(32,20,23,33)        176.6167                                         !
 ! D66   D(32,20,23,34)        -66.6706                                         !
 ! D67   D(20,21,40,41)        141.2061                                         !
 ! D68   D(20,21,40,51)         -6.2747                                         !
 ! D69   D(22,21,40,41)        -25.4316                                         !
 ! D70   D(22,21,40,51)       -172.9124                                         !
 ! D71   D(20,23,24,25)        -82.8391                                         !
 ! D72   D(20,23,24,26)         94.9614                                         !
 ! D73   D(33,23,24,25)        155.9456                                         !
 ! D74   D(33,23,24,26)        -26.2539                                         !
 ! D75   D(34,23,24,25)         36.3856                                         !
 ! D76   D(34,23,24,26)       -145.8138                                         !
 ! D77   D(23,24,25,27)        178.0927                                         !
 ! D78   D(23,24,25,35)         -2.5951                                         !
 ! D79   D(26,24,25,27)          0.2245                                         !
 ! D80   D(26,24,25,35)        179.5367                                         !
 ! D81   D(23,24,26,28)       -178.2032                                         !
 ! D82   D(23,24,26,36)          1.2644                                         !
 ! D83   D(25,24,26,28)         -0.3627                                         !
 ! D84   D(25,24,26,36)        179.1048                                         !
 ! D85   D(24,25,27,29)          0.0255                                         !
 ! D86   D(24,25,27,37)        179.4106                                         !
 ! D87   D(35,25,27,29)       -179.2906                                         !
 ! D88   D(35,25,27,37)          0.0944                                         !
 ! D89   D(24,26,28,29)          0.2513                                         !
 ! D90   D(24,26,28,38)       -179.5709                                         !
 ! D91   D(36,26,28,29)       -179.2167                                         !
 ! D92   D(36,26,28,38)          0.9611                                         !
 ! D93   D(25,27,29,28)         -0.143                                          !
 ! D94   D(25,27,29,30)        179.8559                                         !
 ! D95   D(37,27,29,28)       -179.5445                                         !
 ! D96   D(37,27,29,30)          0.4543                                         !
 ! D97   D(26,28,29,27)          0.0066                                         !
 ! D98   D(26,28,29,30)       -179.9922                                         !
 ! D99   D(38,28,29,27)        179.8289                                         !
 ! D100  D(38,28,29,30)         -0.1699                                         !
 ! D101  D(27,29,30,39)       -178.4236                                         !
 ! D102  D(28,29,30,39)          1.5753                                         !
 ! D103  D(21,40,41,42)        -60.268                                          !
 ! D104  D(21,40,41,44)        175.534                                          !
 ! D105  D(21,40,41,52)         54.1141                                         !
 ! D106  D(51,40,41,42)         87.2933                                         !
 ! D107  D(51,40,41,44)        -36.9047                                         !
 ! D108  D(51,40,41,52)       -158.3246                                         !
 ! D109  D(40,41,42,43)        -94.0141                                         !
 ! D110  D(40,41,42,49)         78.772                                          !
 ! D111  D(44,41,42,43)         30.96                                           !
 ! D112  D(44,41,42,49)       -156.2539                                         !
 ! D113  D(52,41,42,43)        152.562                                          !
 ! D114  D(52,41,42,49)        -34.6519                                         !
 ! D115  D(40,41,44,45)         23.2462                                         !
 ! D116  D(40,41,44,53)        148.5054                                         !
 ! D117  D(40,41,44,54)        -97.9737                                         !
 ! D118  D(42,41,44,45)        -95.6831                                         !
 ! D119  D(42,41,44,53)         29.5761                                         !
 ! D120  D(42,41,44,54)        143.097                                          !
 ! D121  D(52,41,44,45)        143.327                                          !
 ! D122  D(52,41,44,53)        -91.4138                                         !
 ! D123  D(52,41,44,54)         22.1071                                         !
 ! D124  D(41,42,49,50)         -7.0896                                         !
 ! D125  D(43,42,49,50)        166.065                                          !
 ! D126  D(41,44,45,46)         59.8479                                         !
 ! D127  D(41,44,45,55)        -64.1888                                         !
 ! D128  D(41,44,45,56)       -176.8645                                         !
 ! D129  D(53,44,45,46)        -63.9367                                         !
 ! D130  D(53,44,45,55)        172.0266                                         !
 ! D131  D(53,44,45,56)         59.3509                                         !
 ! D132  D(54,44,45,46)       -179.0021                                         !
 ! D133  D(54,44,45,55)         56.9612                                         !
 ! D134  D(54,44,45,56)        -55.7145                                         !
 ! D135  D(44,45,46,47)         67.1992                                         !
 ! D136  D(44,45,46,57)       -169.7286                                         !
 ! D137  D(44,45,46,58)        -55.056                                          !
 ! D138  D(55,45,46,47)       -168.8279                                         !
 ! D139  D(55,45,46,57)        -45.7557                                         !
 ! D140  D(55,45,46,58)         68.9169                                         !
 ! D141  D(56,45,46,47)        -54.658                                          !
 ! D142  D(56,45,46,57)         68.4141                                         !
 ! D143  D(56,45,46,58)       -176.9132                                         !
 ! D144  D(45,46,47,48)       -169.6693                                         !
 ! D145  D(45,46,47,59)        -52.4094                                         !
 ! D146  D(45,46,47,60)         65.8503                                         !
 ! D147  D(57,46,47,48)         67.6661                                         !
 ! D148  D(57,46,47,59)       -175.074                                          !
 ! D149  D(57,46,47,60)        -56.8144                                         !
 ! D150  D(58,46,47,48)        -45.5374                                         !
 ! D151  D(58,46,47,59)         71.7225                                         !
 ! D152  D(58,46,47,60)       -170.0179                                         !
 ! D153  D(46,47,48,61)        -73.6424                                         !
 ! D154  D(46,47,48,62)        169.9983                                         !
 ! D155  D(59,47,48,61)        167.2982                                         !
 ! D156  D(59,47,48,62)         50.9388                                         !
 ! D157  D(60,47,48,61)         49.0092                                         !
 ! D158  D(60,47,48,62)        -67.3501                                         !
 --------------------------------------------------------------------------------
 Symmetry turned off by external request.
 Stoichiometry    C20H31N4O7(1+)
 Framework group  C1[X(C20H31N4O7)]
 Deg. of freedom   180
 Full point group                 C1      NOp   1
                          Input orientation:                          
 ---------------------------------------------------------------------
 Center     Atomic      Atomic             Coordinates (Angstroms)
 Number     Number       Type             X           Y           Z
 ---------------------------------------------------------------------
      1          7           0       -3.119932  -87.189157  125.615400
      2          6           0       -2.336392  -88.375479  126.136961
      3          6           0       -2.487277  -88.692114  127.631184
      4          8           0       -1.590123  -89.358057  128.134110
      5          6           0       -2.585949  -89.656419  125.320117
      6          6           0       -2.485139  -89.518865  123.776690
      7          6           0       -1.378971  -88.570014  123.334620
      8          8           0       -1.518226  -87.360001  123.407731
      9          8           0       -0.218092  -89.070135  122.903558
     10          1           0       -0.239089  -90.040668  122.851969
     11          1           0       -2.769133  -87.029809  124.640328
     12          1           0       -1.284615  -88.049835  126.017118
     13          1           0       -3.569676  -90.079705  125.557044
     14          1           0       -1.843239  -90.371200  125.685467
     15          1           0       -3.414122  -89.104515  123.371661
     16          1           0       -2.374416  -90.517791  123.342079
     17          1           0       -4.136016  -87.309198  125.599617
     18          1           0       -2.847506  -86.326805  126.154515
     19          7           0       -3.576576  -88.272334  128.340284
     20          6           0       -3.589042  -88.361295  129.824209
     21          6           0       -3.248092  -86.920374  130.246382
     22          8           0       -4.136491  -86.102911  130.504157
     23          6           0       -4.928032  -88.850876  130.382431
     24          6           0       -4.832304  -89.088542  131.875007
     25          6           0       -4.310703  -90.295556  132.365567
     26          6           0       -5.213204  -88.106818  132.796193
     27          6           0       -4.175486  -90.523526  133.729689
     28          6           0       -5.086237  -88.322058  134.167827
     29          6           0       -4.566331  -89.532738  134.640103
     30          8           0       -4.413685  -89.812741  135.963817
     31          1           0       -4.246700  -87.629057  127.936351
     32          1           0       -2.792278  -89.056903  130.091868
     33          1           0       -5.703168  -88.111071  130.156138
     34          1           0       -5.185772  -89.777812  129.857968
     35          1           0       -4.014802  -91.076633  131.667694
     36          1           0       -5.605568  -87.159786  132.438154
     37          1           0       -3.781348  -91.459350  134.111937
     38          1           0       -5.393737  -87.550674  134.870874
     39          1           0       -4.738181  -89.069404  136.495948
     40          7           0       -1.949537  -86.549038  130.040176
     41          6           0       -1.648530  -85.180389  129.566351
     42          6           0       -2.378070  -85.091949  128.210832
     43          8           0       -1.842438  -85.332178  127.137336
     44          6           0       -0.137841  -84.847014  129.475046
     45          6           0        0.876315  -86.002716  129.331534
     46          6           0        0.755100  -86.925017  128.108172
     47          6           0        1.056109  -86.298167  126.745047
     48          7           0        0.651938  -87.244236  125.682374
     49          8           0       -3.695878  -84.877737  128.234267
     50          1           0       -4.035755  -84.918264  129.163846
     51          1           0       -1.318432  -87.277646  129.726154
     52          1           0       -2.131221  -84.489014  130.261496
     53          1           0       -0.016779  -84.138310  128.649402
     54          1           0        0.123530  -84.302540  130.387952
     55          1           0        0.833093  -86.618298  130.239882
     56          1           0        1.873470  -85.544889  129.343252
     57          1           0        1.422282  -87.784280  128.260275
     58          1           0       -0.247831  -87.348573  128.047154
     59          1           0        0.464651  -85.390799  126.611467
     60          1           0        2.118551  -86.012181  126.687765
     61          1           0        1.319759  -88.014030  125.639318
     62          1           0        0.686167  -86.792850  124.769357
 ---------------------------------------------------------------------
 Rotational constants (GHZ):           0.2447442           0.0769772           0.0691298
 Standard basis: 6-31G(d) (6D, 7F)
   527 basis functions,   992 primitive gaussians,   527 cartesian basis functions
   117 alpha electrons      117 beta electrons
       nuclear repulsion energy      3406.3659442367 Hartrees.
 NAtoms=   62 NActive=   62 NUniq=   62 SFac= 1.00D+00 NAtFMM=   60 NAOKFM=T Big=T
 Integral buffers will be    131072 words long.
 Raffenetti 2 integral format.
 Two-electron integral symmetry is turned off.
 Nuclear repulsion after empirical dispersion term =     3406.2771936862 Hartrees.
 One-electron integrals computed using PRISM.
 NBasis=   527 RedAO= T EigKep=  4.35D-04  NBF=   527
 NBsUse=   527 1.00D-06 EigRej= -1.00D+00 NBFU=   527
 Initial guess from the checkpoint file:  "conf-997.chk"
 B after Tr=     0.000000    0.000000    0.000000
         Rot=    1.000000    0.000000    0.000000    0.000000 Ang=   0.00 deg.
 Requested convergence on RMS density matrix=1.00D-08 within 128 cycles.
 Requested convergence on MAX density matrix=1.00D-06.
 Requested convergence on             energy=1.00D-06.
 No special actions if energy rises.
 SCF Done:  E(RB3LYP) =  -1526.28219609     A.U. after    2 cycles
            NFock=  2  Conv=0.99D-08     -V/T= 2.0093

 **********************************************************************

            Population analysis using the SCF Density.

 **********************************************************************

 Alpha  occ. eigenvalues --  -19.33576 -19.32143 -19.27984 -19.27983 -19.25576
 Alpha  occ. eigenvalues --  -19.25199 -19.24535 -14.57309 -14.50565 -14.49228
 Alpha  occ. eigenvalues --  -14.41839 -10.46484 -10.45649 -10.43174 -10.42104
 Alpha  occ. eigenvalues --  -10.38359 -10.36742 -10.35536 -10.35048 -10.34913
 Alpha  occ. eigenvalues --  -10.32051 -10.30140 -10.29735 -10.29059 -10.28712
 Alpha  occ. eigenvalues --  -10.27482 -10.26874 -10.26549 -10.26407 -10.26019
 Alpha  occ. eigenvalues --  -10.25558  -1.24393  -1.23893  -1.17865  -1.17141
 Alpha  occ. eigenvalues --   -1.16104  -1.15110  -1.12690  -1.12203  -1.06479
 Alpha  occ. eigenvalues --   -1.05215  -0.97776  -0.94899  -0.93183  -0.91212
 Alpha  occ. eigenvalues --   -0.89297  -0.86922  -0.86123  -0.82024  -0.81907
 Alpha  occ. eigenvalues --   -0.79622  -0.78289  -0.75899  -0.75818  -0.74780
 Alpha  occ. eigenvalues --   -0.73622  -0.72433  -0.71745  -0.71188  -0.70613
 Alpha  occ. eigenvalues --   -0.69498  -0.67532  -0.66743  -0.66507  -0.66096
 Alpha  occ. eigenvalues --   -0.64736  -0.63032  -0.61655  -0.61537  -0.61271
 Alpha  occ. eigenvalues --   -0.60557  -0.59593  -0.59401  -0.58826  -0.57774
 Alpha  occ. eigenvalues --   -0.57509  -0.56932  -0.56223  -0.55697  -0.55321
 Alpha  occ. eigenvalues --   -0.54523  -0.54388  -0.54078  -0.53637  -0.52989
 Alpha  occ. eigenvalues --   -0.52453  -0.52254  -0.51455  -0.51254  -0.50495
 Alpha  occ. eigenvalues --   -0.49999  -0.49591  -0.49396  -0.49197  -0.48906
 Alpha  occ. eigenvalues --   -0.47661  -0.47369  -0.47057  -0.46929  -0.45312
 Alpha  occ. eigenvalues --   -0.45141  -0.44768  -0.43594  -0.43390  -0.42934
 Alpha  occ. eigenvalues --   -0.42697  -0.42050  -0.41707  -0.40926  -0.40600
 Alpha  occ. eigenvalues --   -0.40116  -0.39071  -0.38325  -0.37673  -0.34317
 Alpha  occ. eigenvalues --   -0.32388  -0.28995
 Alpha virt. eigenvalues --   -0.14758  -0.13874  -0.12975  -0.10431  -0.09716
 Alpha virt. eigenvalues --   -0.07447  -0.07090  -0.06336  -0.03041  -0.02011
 Alpha virt. eigenvalues --   -0.01769  -0.00928  -0.00689  -0.00055   0.00504
 Alpha virt. eigenvalues --    0.00602   0.00950   0.01412   0.02400   0.02495
 Alpha virt. eigenvalues --    0.02819   0.03532   0.04013   0.04224   0.04669
 Alpha virt. eigenvalues --    0.05138   0.05270   0.05945   0.06255   0.06407
 Alpha virt. eigenvalues --    0.06631   0.07476   0.07983   0.08459   0.09121
 Alpha virt. eigenvalues --    0.09291   0.09520   0.09845   0.10483   0.10776
 Alpha virt. eigenvalues --    0.11229   0.11379   0.11794   0.12654   0.12886
 Alpha virt. eigenvalues --    0.13055   0.13736   0.14608   0.14936   0.15156
 Alpha virt. eigenvalues --    0.15884   0.17012   0.17976   0.18623   0.20753
 Alpha virt. eigenvalues --    0.21225   0.23132   0.23459   0.24101   0.24441
 Alpha virt. eigenvalues --    0.25021   0.25979   0.26758   0.27332   0.28213
 Alpha virt. eigenvalues --    0.29049   0.30609   0.34931   0.35157   0.36948
 Alpha virt. eigenvalues --    0.38276   0.38600   0.39147   0.40698   0.41491
 Alpha virt. eigenvalues --    0.41645   0.42198   0.42957   0.43774   0.44529
 Alpha virt. eigenvalues --    0.44729   0.45080   0.45643   0.46184   0.46405
 Alpha virt. eigenvalues --    0.46698   0.47329   0.47757   0.48678   0.49049
 Alpha virt. eigenvalues --    0.50167   0.50497   0.50669   0.50830   0.51653
 Alpha virt. eigenvalues --    0.52031   0.52362   0.52923   0.53757   0.54182
 Alpha virt. eigenvalues --    0.54458   0.55308   0.55712   0.56250   0.56725
 Alpha virt. eigenvalues --    0.57326   0.57649   0.58173   0.58685   0.58896
 Alpha virt. eigenvalues --    0.59366   0.60267   0.61527   0.61907   0.62144
 Alpha virt. eigenvalues --    0.63298   0.64088   0.64656   0.65133   0.65559
 Alpha virt. eigenvalues --    0.66976   0.68177   0.68562   0.68849   0.69277
 Alpha virt. eigenvalues --    0.69975   0.70077   0.70325   0.70912   0.71843
 Alpha virt. eigenvalues --    0.72318   0.72650   0.73173   0.73336   0.74738
 Alpha virt. eigenvalues --    0.75500   0.75951   0.76175   0.76483   0.77038
 Alpha virt. eigenvalues --    0.77490   0.77894   0.78252   0.78478   0.78848
 Alpha virt. eigenvalues --    0.79719   0.80204   0.81131   0.81421   0.82313
 Alpha virt. eigenvalues --    0.82486   0.82758   0.83071   0.83448   0.83534
 Alpha virt. eigenvalues --    0.84425   0.84969   0.85787   0.86149   0.86950
 Alpha virt. eigenvalues --    0.87465   0.87624   0.88177   0.88757   0.89083
 Alpha virt. eigenvalues --    0.89316   0.90065   0.90418   0.92054   0.92620
 Alpha virt. eigenvalues --    0.93118   0.93943   0.94312   0.95752   0.96485
 Alpha virt. eigenvalues --    0.96700   0.97371   0.99237   0.99636   1.00081
 Alpha virt. eigenvalues --    1.01160   1.01615   1.03204   1.04424   1.05516
 Alpha virt. eigenvalues --    1.07626   1.08109   1.08466   1.08941   1.09900
 Alpha virt. eigenvalues --    1.11215   1.11937   1.12905   1.13993   1.14760
 Alpha virt. eigenvalues --    1.16060   1.16588   1.17454   1.18239   1.19377
 Alpha virt. eigenvalues --    1.21062   1.22051   1.22895   1.23984   1.25577
 Alpha virt. eigenvalues --    1.25954   1.26646   1.27596   1.28364   1.29240
 Alpha virt. eigenvalues --    1.29786   1.30240   1.31663   1.31900   1.33342
 Alpha virt. eigenvalues --    1.34260   1.35585   1.37302   1.37911   1.38415
 Alpha virt. eigenvalues --    1.39224   1.39627   1.40631   1.41625   1.43783
 Alpha virt. eigenvalues --    1.44600   1.46090   1.47258   1.47905   1.48981
 Alpha virt. eigenvalues --    1.50088   1.51529   1.52774   1.53827   1.55645
 Alpha virt. eigenvalues --    1.56570   1.57348   1.57790   1.60294   1.60577
 Alpha virt. eigenvalues --    1.61342   1.62963   1.63468   1.63943   1.64379
 Alpha virt. eigenvalues --    1.65254   1.65681   1.66484   1.66730   1.67217
 Alpha virt. eigenvalues --    1.67806   1.68367   1.70038   1.70098   1.70523
 Alpha virt. eigenvalues --    1.70906   1.72276   1.72867   1.73724   1.74276
 Alpha virt. eigenvalues --    1.74676   1.75932   1.76228   1.77068   1.78088
 Alpha virt. eigenvalues --    1.78771   1.79680   1.80285   1.81619   1.82224
 Alpha virt. eigenvalues --    1.83380   1.83757   1.84413   1.84769   1.84952
 Alpha virt. eigenvalues --    1.86561   1.87151   1.87432   1.87575   1.88656
 Alpha virt. eigenvalues --    1.88915   1.89684   1.89959   1.90570   1.91344
 Alpha virt. eigenvalues --    1.91645   1.92651   1.93448   1.93965   1.95783
 Alpha virt. eigenvalues --    1.96634   1.96741   1.97519   1.99431   1.99989
 Alpha virt. eigenvalues --    2.01304   2.02290   2.03742   2.05238   2.06134
 Alpha virt. eigenvalues --    2.06554   2.06960   2.07295   2.08243   2.09525
 Alpha virt. eigenvalues --    2.11587   2.12153   2.14139   2.17303   2.18418
 Alpha virt. eigenvalues --    2.18852   2.20096   2.20556   2.22139   2.22557
 Alpha virt. eigenvalues --    2.23195   2.23821   2.24905   2.25445   2.25722
 Alpha virt. eigenvalues --    2.26935   2.27649   2.28260   2.28909   2.30198
 Alpha virt. eigenvalues --    2.32066   2.32604   2.33378   2.33487   2.35081
 Alpha virt. eigenvalues --    2.35517   2.36684   2.37810   2.38715   2.39503
 Alpha virt. eigenvalues --    2.41690   2.42666   2.43767   2.45386   2.46467
 Alpha virt. eigenvalues --    2.47591   2.48554   2.50421   2.51084   2.52560
 Alpha virt. eigenvalues --    2.52981   2.53869   2.55174   2.55565   2.56066
 Alpha virt. eigenvalues --    2.57611   2.58953   2.59525   2.60066   2.61945
 Alpha virt. eigenvalues --    2.62808   2.65789   2.67240   2.69433   2.69797
 Alpha virt. eigenvalues --    2.71655   2.72572   2.74973   2.76814   2.80204
 Alpha virt. eigenvalues --    2.81635   2.82438   2.85572   2.86419   2.88127
 Alpha virt. eigenvalues --    2.89509   2.91542   2.92285   2.92480   2.94816
 Alpha virt. eigenvalues --    3.01190   3.02052   3.05157   3.34383   3.70090
 Alpha virt. eigenvalues --    3.77216   3.79457   3.83676   3.87398   3.90627
 Alpha virt. eigenvalues --    3.95580   3.98891   4.03048   4.03587   4.04459
 Alpha virt. eigenvalues --    4.05114   4.08797   4.11524   4.15232   4.17139
 Alpha virt. eigenvalues --    4.18560   4.21998   4.24334   4.26568   4.27953
 Alpha virt. eigenvalues --    4.29315   4.29924   4.39737   4.41815   4.42429
 Alpha virt. eigenvalues --    4.50074   4.52797   4.56602   4.64049   4.68782
          Condensed to atoms (all electrons):
 Mulliken charges:
               1
     1  N   -0.806357
     2  C   -0.161719
     3  C    0.638978
     4  O   -0.504081
     5  C   -0.291498
     6  C   -0.406501
     7  C    0.641631
     8  O   -0.471433
     9  O   -0.529879
    10  H    0.436649
    11  H    0.434049
    12  H    0.303299
    13  H    0.182060
    14  H    0.216651
    15  H    0.196794
    16  H    0.189901
    17  H    0.382985
    18  H    0.439666
    19  N   -0.625383
    20  C   -0.067053
    21  C    0.619213
    22  O   -0.537290
    23  C   -0.355226
    24  C    0.139331
    25  C   -0.190012
    26  C   -0.183905
    27  C   -0.154946
    28  C   -0.193322
    29  C    0.356010
    30  O   -0.630601
    31  H    0.330236
    32  H    0.215574
    33  H    0.163068
    34  H    0.164394
    35  H    0.129918
    36  H    0.151026
    37  H    0.155966
    38  H    0.134442
    39  H    0.415522
    40  N   -0.590426
    41  C   -0.055740
    42  C    0.605717
    43  O   -0.490500
    44  C   -0.291973
    45  C   -0.301354
    46  C   -0.269924
    47  C   -0.140390
    48  N   -0.758102
    49  O   -0.583107
    50  H    0.463564
    51  H    0.372683
    52  H    0.204002
    53  H    0.177251
    54  H    0.177242
    55  H    0.156189
    56  H    0.167070
    57  H    0.151517
    58  H    0.129143
    59  H    0.169049
    60  H    0.140193
    61  H    0.310445
    62  H    0.329291
 Sum of Mulliken charges =   1.00000
 Mulliken charges with hydrogens summed into heavy atoms:
               1
     1  N    0.450344
     2  C    0.141580
     3  C    0.638978
     4  O   -0.504081
     5  C    0.107213
     6  C   -0.019805
     7  C    0.641631
     8  O   -0.471433
     9  O   -0.093230
    19  N   -0.295147
    20  C    0.148521
    21  C    0.619213
    22  O   -0.537290
    23  C   -0.027764
    24  C    0.139331
    25  C   -0.060094
    26  C   -0.032878
    27  C    0.001020
    28  C   -0.058880
    29  C    0.356010
    30  O   -0.215079
    40  N   -0.217742
    41  C    0.148262
    42  C    0.605717
    43  O   -0.490500
    44  C    0.062519
    45  C    0.021905
    46  C    0.010736
    47  C    0.168852
    48  N   -0.118365
    49  O   -0.119543
 Electronic spatial extent (au):  <R**2>=       20291220.9798
 Charge=              1.0000 electrons
 Dipole moment (field-independent basis, Debye):
    X=            -12.0305    Y=           -422.0286    Z=            609.1849  Tot=            741.1876
 Quadrupole moment (field-independent basis, Debye-Ang):
   XX=           -126.3551   YY=          36921.0415   ZZ=          77140.3040
   XY=           1057.3088   XZ=          -1532.9259   YZ=         -53492.2008
 Traceless Quadrupole moment (field-independent basis, Debye-Ang):
   XX=         -38104.6852   YY=          -1057.2886   ZZ=          39161.9738
   XY=           1057.3088   XZ=          -1532.9259   YZ=         -53492.2008
 Octapole moment (field-independent basis, Debye-Ang**2):
  XXX=           1141.6759  YYY=       -3215960.6463  ZZZ=        9751940.3019  XYY=         -92490.2798
  XXY=          11099.5820  XXZ=         -16326.3199  XZZ=        -195110.1363  YZZ=       -6769423.7923
  YYZ=        4676449.5205  XYZ=         134665.8141
 Hexadecapole moment (field-independent basis, Debye-Ang**3):
 XXXX=         -10026.8615 YYYY=      278872424.2881 ZZZZ=     1230645891.0660 XXXY=        -101054.3200
 XXXZ=         149179.8915 YYYX=        8052037.8322 YYYZ=     -407009612.1153 ZZZX=      -24803686.0967
 ZZZY=     -855237823.1655 XXYY=        -977390.5349 XXZZ=       -2112216.9226 YYZZ=      591376080.6717
 XXYZ=        1434538.5046 YYXZ=      -11773780.9519 ZZXY=       17132560.9331
 N-N= 3.406277193686D+03 E-N=-1.034513253326D+04  KE= 1.512250709523D+03
 Unable to Open any file for archive entry.
 1\1\GINC-VIM-000\SP\RB3LYP\6-31G(d)\C20H31N4O7(1+)\KENGMITH\24-May-202
 2\0\\# B3LYP/6-31G* empiricaldispersion=gd3 guess=read geom=check nosy
 mm integral(ultrafinegrid)\\Candidate Structure: Conf:997 Charge calc 
 in gas phase\\1,1\N,0,-3.1199319239,-87.1891574962,125.6154004284\C,0,
 -2.3363918592,-88.3754794797,126.1369609778\C,0,-2.4872772364,-88.6921
 136546,127.6311838295\O,0,-1.5901230963,-89.3580569609,128.134110251\C
 ,0,-2.5859490623,-89.6564185324,125.3201172633\C,0,-2.4851391449,-89.5
 188649067,123.776689505\C,0,-1.3789714959,-88.5700138569,123.334619660
 4\O,0,-1.5182262175,-87.3600007045,123.4077308176\O,0,-0.2180920875,-8
 9.070135333,122.9035577923\H,0,-0.2390887661,-90.0406677955,122.851969
 0212\H,0,-2.7691333567,-87.0298090265,124.6403284338\H,0,-1.2846149938
 ,-88.0498352525,126.0171176567\H,0,-3.5696757419,-90.0797054911,125.55
 70438226\H,0,-1.8432389982,-90.3711997798,125.6854670706\H,0,-3.414121
 7645,-89.104514595,123.3716614741\H,0,-2.374416192,-90.5177912965,123.
 3420789854\H,0,-4.1360156144,-87.30919779,125.5996168291\H,0,-2.847506
 2743,-86.3268047699,126.1545149982\N,0,-3.5765756681,-88.2723339694,12
 8.34028391\C,0,-3.589042005,-88.3612952054,129.824209376\C,0,-3.248092
 1714,-86.9203739758,130.2463822697\O,0,-4.136491275,-86.1029110393,130
 .5041569455\C,0,-4.9280319828,-88.850876292,130.3824305422\C,0,-4.8323
 044223,-89.0885420561,131.8750071255\C,0,-4.3107032612,-90.2955562888,
 132.3655674259\C,0,-5.213203762,-88.1068178604,132.7961931412\C,0,-4.1
 754860183,-90.523525719,133.7296892963\C,0,-5.0862366256,-88.322058229
 ,134.1678271098\C,0,-4.566331339,-89.5327383379,134.6401031812\O,0,-4.
 4136849927,-89.8127412305,135.9638172644\H,0,-4.2467003616,-87.6290568
 317,127.9363508366\H,0,-2.7922780852,-89.0569025322,130.0918677461\H,0
 ,-5.7031681056,-88.1110708986,130.1561377394\H,0,-5.1857718354,-89.777
 8120539,129.8579675016\H,0,-4.0148018081,-91.0766332121,131.667693662\
 H,0,-5.605567902,-87.1597860151,132.4381539582\H,0,-3.7813482853,-91.4
 593497551,134.1119374642\H,0,-5.3937370216,-87.5506741038,134.87087363
 92\H,0,-4.7381812059,-89.0694037824,136.4959481671\N,0,-1.949537272,-8
 6.5490382839,130.0401757761\C,0,-1.6485302022,-85.1803892318,129.56635
 05389\C,0,-2.378070269,-85.0919486891,128.2108321386\O,0,-1.8424375227
 ,-85.3321776716,127.1373362505\C,0,-0.1378414298,-84.8470139054,129.47
 50455149\C,0,0.8763148876,-86.0027162527,129.3315342772\C,0,0.75510031
 13,-86.9250165758,128.1081715796\C,0,1.0561085407,-86.2981672927,126.7
 450467817\N,0,0.6519380442,-87.2442355734,125.6823743342\O,0,-3.695878
 1139,-84.8777369152,128.2342671616\H,0,-4.0357548198,-84.9182638645,12
 9.1638458768\H,0,-1.3184317979,-87.2776458098,129.7261544363\H,0,-2.13
 1221362,-84.489013632,130.2614956012\H,0,-0.0167792968,-84.1383102907,
 128.6494023568\H,0,0.1235302811,-84.3025399399,130.3879521031\H,0,0.83
 30929732,-86.6182980405,130.2398815894\H,0,1.8734700707,-85.5448890542
 ,129.343251876\H,0,1.4222819556,-87.7842796591,128.2602749093\H,0,-0.2
 478309389,-87.3485725488,128.0471541191\H,0,0.4646510486,-85.390799334
 6,126.611466623\H,0,2.118550913,-86.0121807512,126.6877648561\H,0,1.31
 97594119,-88.0140299063,125.6393175228\H,0,0.686167017,-86.7928495265,
 124.7693571978\\Version=ES64L-G16RevC.01\HF=-1526.2821961\RMSD=9.861e-
 09\Dipole=-0.1147646,-0.2784407,-3.5210376\Quadrupole=-28329.8995533,-
 786.0681634,29115.9677167,786.0831885,-1139.6928618,-39770.1402466\PG=
 C01 [X(C20H31N4O7)]\\@
 The archive entry for this job was punched.


 IF IT HAPPENS, IT MUST BE POSSIBLE.

 -- THE UNNAMED LAW FROM PAUL DICKSON'S 
    "THE OFFICIAL RULES"
 Job cpu time:       0 days  0 hours  2 minutes 40.9 seconds.
 Elapsed time:       0 days  0 hours  0 minutes 40.8 seconds.
 File lengths (MBytes):  RWF=    264 Int=      0 D2E=      0 Chk=     40 Scr=     16
 Normal termination of Gaussian 16 at Tue May 24 19:13:38 2022.
