 Entering Gaussian System, Link 0=/opt/software/Gaussian/g16-AVX2-C.01/g16/g16
 Input=charge-conf-123.com
 Output=charge-conf-123.log
 Initial command:
 /opt/software/Gaussian/g16-AVX2-C.01/g16/l1.exe "/mnt/gs18/scratch/users/kengmith/Gau-5274.inp" -scrdir="/mnt/gs18/scratch/users/kengmith/"
 Entering Link 1 = /opt/software/Gaussian/g16-AVX2-C.01/g16/l1.exe PID=      5303.
  
 Copyright (c) 1988-2019, Gaussian, Inc.  All Rights Reserved.
  
 This is part of the Gaussian(R) 16 program.  It is based on
 the Gaussian(R) 09 system (copyright 2009, Gaussian, Inc.),
 the Gaussian(R) 03 system (copyright 2003, Gaussian, Inc.),
 the Gaussian(R) 98 system (copyright 1998, Gaussian, Inc.),
 the Gaussian(R) 94 system (copyright 1995, Gaussian, Inc.),
 the Gaussian 92(TM) system (copyright 1992, Gaussian, Inc.),
 the Gaussian 90(TM) system (copyright 1990, Gaussian, Inc.),
 the Gaussian 88(TM) system (copyright 1988, Gaussian, Inc.),
 the Gaussian 86(TM) system (copyright 1986, Carnegie Mellon
 University), and the Gaussian 82(TM) system (copyright 1983,
 Carnegie Mellon University). Gaussian is a federally registered
 trademark of Gaussian, Inc.
  
 This software contains proprietary and confidential information,
 including trade secrets, belonging to Gaussian, Inc.
  
 This software is provided under written license and may be
 used, copied, transmitted, or stored only in accord with that
 written license.
  
 The following legend is applicable only to US Government
 contracts under FAR:
  
                    RESTRICTED RIGHTS LEGEND
  
 Use, reproduction and disclosure by the US Government is
 subject to restrictions as set forth in subparagraphs (a)
 and (c) of the Commercial Computer Software - Restricted
 Rights clause in FAR 52.227-19.
  
 Gaussian, Inc.
 340 Quinnipiac St., Bldg. 40, Wallingford CT 06492
  
  
 ---------------------------------------------------------------
 Warning -- This program may not be used in any manner that
 competes with the business of Gaussian, Inc. or will provide
 assistance to any competitor of Gaussian, Inc.  The licensee
 of this program is prohibited from giving any competitor of
 Gaussian, Inc. access to this program.  By using this program,
 the user acknowledges that Gaussian, Inc. is engaged in the
 business of creating and licensing software in the field of
 computational chemistry and represents and warrants to the
 licensee that it is not a competitor of Gaussian, Inc. and that
 it will not use this program in any manner prohibited above.
 ---------------------------------------------------------------
  

 Cite this work as:
 Gaussian 16, Revision C.01,
 M. J. Frisch, G. W. Trucks, H. B. Schlegel, G. E. Scuseria, 
 M. A. Robb, J. R. Cheeseman, G. Scalmani, V. Barone, 
 G. A. Petersson, H. Nakatsuji, X. Li, M. Caricato, A. V. Marenich, 
 J. Bloino, B. G. Janesko, R. Gomperts, B. Mennucci, H. P. Hratchian, 
 J. V. Ortiz, A. F. Izmaylov, J. L. Sonnenberg, D. Williams-Young, 
 F. Ding, F. Lipparini, F. Egidi, J. Goings, B. Peng, A. Petrone, 
 T. Henderson, D. Ranasinghe, V. G. Zakrzewski, J. Gao, N. Rega, 
 G. Zheng, W. Liang, M. Hada, M. Ehara, K. Toyota, R. Fukuda, 
 J. Hasegawa, M. Ishida, T. Nakajima, Y. Honda, O. Kitao, H. Nakai, 
 T. Vreven, K. Throssell, J. A. Montgomery, Jr., J. E. Peralta, 
 F. Ogliaro, M. J. Bearpark, J. J. Heyd, E. N. Brothers, K. N. Kudin, 
 V. N. Staroverov, T. A. Keith, R. Kobayashi, J. Normand, 
 K. Raghavachari, A. P. Rendell, J. C. Burant, S. S. Iyengar, 
 J. Tomasi, M. Cossi, J. M. Millam, M. Klene, C. Adamo, R. Cammi, 
 J. W. Ochterski, R. L. Martin, K. Morokuma, O. Farkas, 
 J. B. Foresman, and D. J. Fox, Gaussian, Inc., Wallingford CT, 2019.
 
 ******************************************
 Gaussian 16:  ES64L-G16RevC.01  3-Jul-2019
                24-May-2022 
 ******************************************
 %mem=8gb
 %nproc=4
 Will use up to    4 processors via shared memory.
 %chk=conf-123.chk
 ----------------------------------------------------------------------
 # B3LYP/6-31G* empiricaldispersion=gd3 guess=read geom=check nosymm in
 tegral(ultrafinegrid)
 ----------------------------------------------------------------------
 1/29=2,38=1,172=1/1;
 2/12=2,15=1,40=1/2;
 3/5=1,6=6,7=1,11=2,14=-4,25=1,30=1,74=-5,75=-5,116=-2,124=31/1,2,3;
 4/5=1/1;
 5/5=2,38=6/2;
 6/7=2,8=2,9=2,10=2,28=1/1;
 99/5=1,9=1/99;
 ------------------------------------------------------
 Candidate Structure: Conf:123 Charge calc in gas phase
 ------------------------------------------------------
 Structure from the checkpoint file:  "conf-123.chk"
 Charge =  1 Multiplicity = 1
 Redundant internal coordinates found in file.  (old form).
 N,0,-4.3866504291,-89.3316393072,126.9958513041
 C,0,-3.5720915146,-90.1094009813,127.9931355679
 C,0,-2.314397942,-89.2518346108,128.2700848113
 O,0,-1.6841291967,-88.8426741621,127.2946096603
 C,0,-4.4141287278,-90.5106630432,129.2155445948
 C,0,-5.7997599506,-91.1509057754,128.9369243671
 C,0,-5.7962631168,-92.1436982865,127.7931949435
 O,0,-5.632298648,-91.8117178808,126.6267105731
 O,0,-5.9768237754,-93.4046918227,128.1799182827
 H,0,-5.9722749599,-93.9778034596,127.3870556159
 H,0,-5.1503205284,-89.9497890069,126.6739604541
 H,0,-3.2345218384,-91.0005052722,127.4574840635
 H,0,-4.598406968,-89.627489553,129.8386903434
 H,0,-3.810262922,-91.208287127,129.8062521871
 H,0,-6.5202091137,-90.3721185645,128.6618783466
 H,0,-6.1639790573,-91.6237330024,129.851058169
 H,0,-4.7452917176,-88.4678575027,127.4323004733
 H,0,-3.8556588946,-89.0220141766,126.095894024
 N,0,-2.0000713714,-88.9688970169,129.55319173
 C,0,-1.0854784172,-87.860276703,129.9159517953
 C,0,-1.9441879184,-86.5925179908,129.6835114061
 O,0,-2.6918446684,-86.1413206663,130.541267496
 C,0,-0.6081260177,-87.9876265199,131.3646437881
 C,0,0.4462709844,-86.9492418436,131.6844490027
 C,0,0.0944651015,-85.6882547823,132.179895338
 C,0,1.8023193534,-87.2167577196,131.4449729775
 C,0,1.0665877415,-84.7222985109,132.4352574656
 C,0,2.7823499569,-86.2627088409,131.6935346973
 C,0,2.4155420757,-85.0064933157,132.1929921595
 O,0,3.4178030093,-84.1120689481,132.4200984208
 H,0,-2.6421062309,-89.236834903,130.2868666583
 H,0,-0.2354319298,-87.8999639701,129.2311106819
 H,0,-1.4747419248,-87.8697571538,132.0258635095
 H,0,-0.2088298557,-88.9987672917,131.5058713323
 H,0,-0.9512412515,-85.4560656937,132.3581819017
 H,0,2.0995279552,-88.1933751229,131.0676827806
 H,0,0.7770116794,-83.7489666942,132.8261215534
 H,0,3.8329180566,-86.470261997,131.5187612592
 H,0,3.0482126156,-83.2937215616,132.787049067
 N,0,-1.9294951327,-86.1692493258,128.3899769788
 C,0,-3.0146454438,-85.415204125,127.769067153
 C,0,-4.361014833,-85.616892419,128.4588919644
 O,0,-5.1236439512,-84.7394464636,128.7519759158
 C,0,-3.0765991597,-85.8860818962,126.295092926
 C,0,-4.3260708144,-85.5214705495,125.4896194196
 C,0,-4.2791045935,-86.0832522687,124.0557160911
 C,0,-4.5649327697,-87.5824727467,123.8803409327
 N,0,-3.5524570839,-88.4969236292,124.4904986243
 O,0,-4.7232036608,-86.9530789475,128.6123039875
 H,0,-5.5597543643,-86.909500335,129.1156843101
 H,0,-1.3695481968,-86.7229856149,127.7528344393
 H,0,-2.8371643343,-84.3376456218,127.8301116594
 H,0,-2.1882785529,-85.4853836253,125.7894068754
 H,0,-2.9596615602,-86.9704311678,126.310250471
 H,0,-4.4340369255,-84.4314990201,125.4461388902
 H,0,-5.2290769494,-85.895717611,125.9920693389
 H,0,-5.0304964075,-85.5599330818,123.4528348884
 H,0,-3.3089725643,-85.8449478583,123.5956357995
 H,0,-5.5379287461,-87.8251232972,124.3283548381
 H,0,-4.6543234292,-87.7839469904,122.8055141818
 H,0,-2.6140250661,-88.1115851369,124.383296762
 H,0,-3.5420214235,-89.3728785673,123.9657785102
 Recover connectivity data from disk.
                           ----------------------------
                           !    Current Parameters    !
                           ! (Angstroms and Degrees)  !
 --------------------------                            --------------------------
 ! Name  Definition              Value                                          !
 --------------------------------------------------------------------------------
 ! R1    R(1,2)                  1.5043                                         !
 ! R2    R(1,11)                 1.0339                                         !
 ! R3    R(1,17)                 1.0321                                         !
 ! R4    R(1,18)                 1.0898                                         !
 ! R5    R(2,3)                  1.5472                                         !
 ! R6    R(2,5)                  1.5376                                         !
 ! R7    R(2,12)                 1.0931                                         !
 ! R8    R(3,4)                  1.2313                                         !
 ! R9    R(3,19)                 1.351                                          !
 ! R10   R(5,6)                  1.5516                                         !
 ! R11   R(5,13)                 1.0965                                         !
 ! R12   R(5,14)                 1.0956                                         !
 ! R13   R(6,7)                  1.5145                                         !
 ! R14   R(6,15)                 1.096                                          !
 ! R15   R(6,16)                 1.0917                                         !
 ! R16   R(7,8)                  1.2238                                         !
 ! R17   R(7,9)                  1.3313                                         !
 ! R18   R(9,10)                 0.9783                                         !
 ! R19   R(19,20)                1.4823                                         !
 ! R20   R(19,31)                1.0111                                         !
 ! R21   R(20,21)                1.5487                                         !
 ! R22   R(20,23)                1.5306                                         !
 ! R23   R(20,32)                1.0923                                         !
 ! R24   R(21,22)                1.2241                                         !
 ! R25   R(21,40)                1.3611                                         !
 ! R26   R(23,24)                1.514                                          !
 ! R27   R(23,33)                1.0964                                         !
 ! R28   R(23,34)                1.0963                                         !
 ! R29   R(24,25)                1.3998                                         !
 ! R30   R(24,26)                1.4028                                         !
 ! R31   R(25,27)                1.394                                          !
 ! R32   R(25,35)                1.0859                                         !
 ! R33   R(26,28)                1.3901                                         !
 ! R34   R(26,36)                1.0883                                         !
 ! R35   R(27,29)                1.3997                                         !
 ! R36   R(27,37)                1.0881                                         !
 ! R37   R(28,29)                1.4007                                         !
 ! R38   R(28,38)                1.085                                          !
 ! R39   R(29,30)                1.3624                                         !
 ! R40   R(30,39)                0.97                                           !
 ! R41   R(40,41)                1.46                                           !
 ! R42   R(40,51)                1.013                                          !
 ! R43   R(41,42)                1.5262                                         !
 ! R44   R(41,44)                1.5486                                         !
 ! R45   R(41,52)                1.0938                                         !
 ! R46   R(42,43)                1.1989                                         !
 ! R47   R(42,49)                1.3929                                         !
 ! R48   R(44,45)                1.5307                                         !
 ! R49   R(44,53)                1.0979                                         !
 ! R50   R(44,54)                1.0907                                         !
 ! R51   R(45,46)                1.5407                                         !
 ! R52   R(45,55)                1.0962                                         !
 ! R53   R(45,56)                1.0991                                         !
 ! R54   R(46,47)                1.5363                                         !
 ! R55   R(46,57)                1.0963                                         !
 ! R56   R(46,58)                1.0998                                         !
 ! R57   R(47,48)                1.4945                                         !
 ! R58   R(47,59)                1.0983                                         !
 ! R59   R(47,60)                1.0972                                         !
 ! R60   R(48,61)                1.0201                                         !
 ! R61   R(48,62)                1.0211                                         !
 ! R62   R(49,50)                0.9773                                         !
 ! A1    A(2,1,11)             107.292                                          !
 ! A2    A(2,1,17)             109.9082                                         !
 ! A3    A(2,1,18)             115.4998                                         !
 ! A4    A(11,1,17)            112.0475                                         !
 ! A5    A(11,1,18)            105.8219                                         !
 ! A6    A(17,1,18)            106.3039                                         !
 ! A7    A(1,2,3)              105.7984                                         !
 ! A8    A(1,2,5)              111.4343                                         !
 ! A9    A(1,2,12)             105.2971                                         !
 ! A10   A(3,2,5)              116.5822                                         !
 ! A11   A(3,2,12)             106.769                                          !
 ! A12   A(5,2,12)             110.239                                          !
 ! A13   A(2,3,4)              117.2867                                         !
 ! A14   A(2,3,19)             118.3724                                         !
 ! A15   A(4,3,19)             124.3128                                         !
 ! A16   A(2,5,6)              116.9981                                         !
 ! A17   A(2,5,13)             109.4903                                         !
 ! A18   A(2,5,14)             107.0361                                         !
 ! A19   A(6,5,13)             106.5185                                         !
 ! A20   A(6,5,14)             109.0441                                         !
 ! A21   A(13,5,14)            107.4039                                         !
 ! A22   A(5,6,7)              113.8303                                         !
 ! A23   A(5,6,15)             109.809                                          !
 ! A24   A(5,6,16)             109.0433                                         !
 ! A25   A(7,6,15)             106.1287                                         !
 ! A26   A(7,6,16)             110.4382                                         !
 ! A27   A(15,6,16)            107.3724                                         !
 ! A28   A(6,7,8)              122.8389                                         !
 ! A29   A(6,7,9)              113.655                                          !
 ! A30   A(8,7,9)              123.5039                                         !
 ! A31   A(7,9,10)             108.5925                                         !
 ! A32   A(3,19,20)            122.1831                                         !
 ! A33   A(3,19,31)            119.0733                                         !
 ! A34   A(20,19,31)           114.3572                                         !
 ! A35   A(19,20,21)           103.4965                                         !
 ! A36   A(19,20,23)           111.213                                          !
 ! A37   A(19,20,32)           107.431                                          !
 ! A38   A(21,20,23)           112.5241                                         !
 ! A39   A(21,20,32)           111.5383                                         !
 ! A40   A(23,20,32)           110.3456                                         !
 ! A41   A(20,21,22)           122.359                                          !
 ! A42   A(20,21,40)           113.0293                                         !
 ! A43   A(22,21,40)           123.9126                                         !
 ! A44   A(20,23,24)           111.1033                                         !
 ! A45   A(20,23,33)           108.3817                                         !
 ! A46   A(20,23,34)           108.1958                                         !
 ! A47   A(24,23,33)           110.4469                                         !
 ! A48   A(24,23,34)           110.5925                                         !
 ! A49   A(33,23,34)           108.0206                                         !
 ! A50   A(23,24,25)           121.1701                                         !
 ! A51   A(23,24,26)           120.4222                                         !
 ! A52   A(25,24,26)           118.3714                                         !
 ! A53   A(24,25,27)           120.9173                                         !
 ! A54   A(24,25,35)           119.5223                                         !
 ! A55   A(27,25,35)           119.5574                                         !
 ! A56   A(24,26,28)           121.3392                                         !
 ! A57   A(24,26,36)           119.6237                                         !
 ! A58   A(28,26,36)           119.0334                                         !
 ! A59   A(25,27,29)           119.9784                                         !
 ! A60   A(25,27,37)           120.0031                                         !
 ! A61   A(29,27,37)           120.0181                                         !
 ! A62   A(26,28,29)           119.6455                                         !
 ! A63   A(26,28,38)           121.501                                          !
 ! A64   A(29,28,38)           118.8507                                         !
 ! A65   A(27,29,28)           119.7477                                         !
 ! A66   A(27,29,30)           123.1509                                         !
 ! A67   A(28,29,30)           117.1014                                         !
 ! A68   A(29,30,39)           109.6712                                         !
 ! A69   A(21,40,41)           123.831                                          !
 ! A70   A(21,40,51)           115.7047                                         !
 ! A71   A(41,40,51)           115.1935                                         !
 ! A72   A(40,41,42)           113.2785                                         !
 ! A73   A(40,41,44)           106.1096                                         !
 ! A74   A(40,41,52)           111.3747                                         !
 ! A75   A(42,41,44)           110.7772                                         !
 ! A76   A(42,41,52)           104.3658                                         !
 ! A77   A(44,41,52)           111.0492                                         !
 ! A78   A(41,42,43)           125.0944                                         !
 ! A79   A(41,42,49)           113.9505                                         !
 ! A80   A(43,42,49)           120.647                                          !
 ! A81   A(41,44,45)           117.4578                                         !
 ! A82   A(41,44,53)           107.1607                                         !
 ! A83   A(41,44,54)           106.545                                          !
 ! A84   A(45,44,53)           109.3391                                         !
 ! A85   A(45,44,54)           109.3682                                         !
 ! A86   A(53,44,54)           106.4086                                         !
 ! A87   A(44,45,46)           112.2099                                         !
 ! A88   A(44,45,55)           109.7632                                         !
 ! A89   A(44,45,56)           110.4261                                         !
 ! A90   A(46,45,55)           109.1865                                         !
 ! A91   A(46,45,56)           109.0473                                         !
 ! A92   A(55,45,56)           106.0097                                         !
 ! A93   A(45,46,47)           117.1547                                         !
 ! A94   A(45,46,57)           108.472                                          !
 ! A95   A(45,46,58)           109.7063                                         !
 ! A96   A(47,46,57)           105.994                                          !
 ! A97   A(47,46,58)           109.1358                                         !
 ! A98   A(57,46,58)           105.7289                                         !
 ! A99   A(46,47,48)           115.1166                                         !
 ! A100  A(46,47,59)           109.5031                                         !
 ! A101  A(46,47,60)           107.8296                                         !
 ! A102  A(48,47,59)           107.364                                          !
 ! A103  A(48,47,60)           110.0461                                         !
 ! A104  A(59,47,60)           106.6693                                         !
 ! A105  A(47,48,61)           110.4372                                         !
 ! A106  A(47,48,62)           108.7842                                         !
 ! A107  A(61,48,62)           105.1075                                         !
 ! A108  A(42,49,50)           103.6821                                         !
 ! D1    D(11,1,2,3)           170.6814                                         !
 ! D2    D(11,1,2,5)           -61.6799                                         !
 ! D3    D(11,1,2,12)           57.8363                                         !
 ! D4    D(17,1,2,3)           -67.254                                          !
 ! D5    D(17,1,2,5)            60.3847                                         !
 ! D6    D(17,1,2,12)          179.9009                                         !
 ! D7    D(18,1,2,3)            52.9803                                         !
 ! D8    D(18,1,2,5)          -179.381                                          !
 ! D9    D(18,1,2,12)          -59.8648                                         !
 ! D10   D(1,2,3,4)            -50.4394                                         !
 ! D11   D(1,2,3,19)           127.718                                          !
 ! D12   D(5,2,3,4)           -174.9284                                         !
 ! D13   D(5,2,3,19)             3.2291                                         !
 ! D14   D(12,2,3,4)            61.3759                                         !
 ! D15   D(12,2,3,19)         -120.4667                                         !
 ! D16   D(1,2,5,6)             47.9834                                         !
 ! D17   D(1,2,5,13)           -73.2695                                         !
 ! D18   D(1,2,5,14)           170.6075                                         !
 ! D19   D(3,2,5,6)            169.5503                                         !
 ! D20   D(3,2,5,13)            48.2974                                         !
 ! D21   D(3,2,5,14)           -67.8255                                         !
 ! D22   D(12,2,5,6)           -68.5567                                         !
 ! D23   D(12,2,5,13)          170.1903                                         !
 ! D24   D(12,2,5,14)           54.0674                                         !
 ! D25   D(2,3,19,20)         -161.6466                                         !
 ! D26   D(2,3,19,31)           -6.4927                                         !
 ! D27   D(4,3,19,20)           16.3708                                         !
 ! D28   D(4,3,19,31)          171.5247                                         !
 ! D29   D(2,5,6,7)             41.1239                                         !
 ! D30   D(2,5,6,15)           -77.6844                                         !
 ! D31   D(2,5,6,16)           164.9243                                         !
 ! D32   D(13,5,6,7)           163.9213                                         !
 ! D33   D(13,5,6,15)           45.113                                          !
 ! D34   D(13,5,6,16)          -72.2783                                         !
 ! D35   D(14,5,6,7)           -80.4577                                         !
 ! D36   D(14,5,6,15)          160.734                                          !
 ! D37   D(14,5,6,16)           43.3427                                         !
 ! D38   D(5,6,7,8)            -68.6732                                         !
 ! D39   D(5,6,7,9)            110.8117                                         !
 ! D40   D(15,6,7,8)            52.2156                                         !
 ! D41   D(15,6,7,9)          -128.2994                                         !
 ! D42   D(16,6,7,8)           168.285                                          !
 ! D43   D(16,6,7,9)           -12.2301                                         !
 ! D44   D(6,7,9,10)           179.3396                                         !
 ! D45   D(8,7,9,10)            -1.1794                                         !
 ! D46   D(3,19,20,21)          74.1757                                         !
 ! D47   D(3,19,20,23)        -164.7771                                         !
 ! D48   D(3,19,20,32)         -43.9287                                         !
 ! D49   D(31,19,20,21)        -82.051                                          !
 ! D50   D(31,19,20,23)         38.9962                                         !
 ! D51   D(31,19,20,32)        159.8446                                         !
 ! D52   D(19,20,21,22)         86.1882                                         !
 ! D53   D(19,20,21,40)        -84.5728                                         !
 ! D54   D(23,20,21,22)        -33.9692                                         !
 ! D55   D(23,20,21,40)        155.2698                                         !
 ! D56   D(32,20,21,22)       -158.6029                                         !
 ! D57   D(32,20,21,40)         30.6361                                         !
 ! D58   D(19,20,23,24)        173.4724                                         !
 ! D59   D(19,20,23,33)        -65.0052                                         !
 ! D60   D(19,20,23,34)         51.8912                                         !
 ! D61   D(21,20,23,24)        -70.934                                          !
 ! D62   D(21,20,23,33)         50.5884                                         !
 ! D63   D(21,20,23,34)        167.4849                                         !
 ! D64   D(32,20,23,24)         54.3525                                         !
 ! D65   D(32,20,23,33)        175.8749                                         !
 ! D66   D(32,20,23,34)        -67.2286                                         !
 ! D67   D(20,21,40,41)        152.9541                                         !
 ! D68   D(20,21,40,51)         -0.089                                          !
 ! D69   D(22,21,40,41)        -17.6404                                         !
 ! D70   D(22,21,40,51)       -170.6834                                         !
 ! D71   D(20,23,24,25)         89.6637                                         !
 ! D72   D(20,23,24,26)        -88.1088                                         !
 ! D73   D(33,23,24,25)        -30.6432                                         !
 ! D74   D(33,23,24,26)        151.5843                                         !
 ! D75   D(34,23,24,25)       -150.1664                                         !
 ! D76   D(34,23,24,26)         32.0611                                         !
 ! D77   D(23,24,25,27)       -178.0872                                         !
 ! D78   D(23,24,25,35)          1.2869                                         !
 ! D79   D(26,24,25,27)         -0.2702                                         !
 ! D80   D(26,24,25,35)        179.1039                                         !
 ! D81   D(23,24,26,28)        178.032                                          !
 ! D82   D(23,24,26,36)         -2.677                                          !
 ! D83   D(25,24,26,28)          0.1981                                         !
 ! D84   D(25,24,26,36)        179.4891                                         !
 ! D85   D(24,25,27,29)          0.1606                                         !
 ! D86   D(24,25,27,37)       -179.6226                                         !
 ! D87   D(35,25,27,29)       -179.2133                                         !
 ! D88   D(35,25,27,37)          1.0035                                         !
 ! D89   D(24,26,28,29)         -0.0156                                         !
 ! D90   D(24,26,28,38)        179.3713                                         !
 ! D91   D(36,26,28,29)       -179.3107                                         !
 ! D92   D(36,26,28,38)          0.0762                                         !
 ! D93   D(25,27,29,28)          0.0276                                         !
 ! D94   D(25,27,29,30)       -179.9486                                         !
 ! D95   D(37,27,29,28)        179.8108                                         !
 ! D96   D(37,27,29,30)         -0.1654                                         !
 ! D97   D(26,28,29,27)         -0.0991                                         !
 ! D98   D(26,28,29,30)        179.8786                                         !
 ! D99   D(38,28,29,27)       -179.5023                                         !
 ! D100  D(38,28,29,30)          0.4754                                         !
 ! D101  D(27,29,30,39)          1.6354                                         !
 ! D102  D(28,29,30,39)       -178.3415                                         !
 ! D103  D(21,40,41,42)        -23.4197                                         !
 ! D104  D(21,40,41,44)       -145.1695                                         !
 ! D105  D(21,40,41,52)         93.8663                                         !
 ! D106  D(51,40,41,42)        129.7467                                         !
 ! D107  D(51,40,41,44)          7.9969                                         !
 ! D108  D(51,40,41,52)       -112.9673                                         !
 ! D109  D(40,41,42,43)        133.7331                                         !
 ! D110  D(40,41,42,49)        -52.6383                                         !
 ! D111  D(44,41,42,43)       -107.1688                                         !
 ! D112  D(44,41,42,49)         66.4599                                         !
 ! D113  D(52,41,42,43)         12.417                                          !
 ! D114  D(52,41,42,49)       -173.9544                                         !
 ! D115  D(40,41,44,45)        165.5612                                         !
 ! D116  D(40,41,44,53)        -70.9997                                         !
 ! D117  D(40,41,44,54)         42.5879                                         !
 ! D118  D(42,41,44,45)         42.2253                                         !
 ! D119  D(42,41,44,53)        165.6644                                         !
 ! D120  D(42,41,44,54)        -80.7479                                         !
 ! D121  D(52,41,44,45)        -73.265                                          !
 ! D122  D(52,41,44,53)         50.1741                                         !
 ! D123  D(52,41,44,54)        163.7618                                         !
 ! D124  D(41,42,49,50)        176.2165                                         !
 ! D125  D(43,42,49,50)         -9.8417                                         !
 ! D126  D(41,44,45,46)       -178.3285                                         !
 ! D127  D(41,44,45,55)         60.0774                                         !
 ! D128  D(41,44,45,56)        -56.444                                          !
 ! D129  D(53,44,45,46)         59.3435                                         !
 ! D130  D(53,44,45,55)        -62.2505                                         !
 ! D131  D(53,44,45,56)       -178.7719                                         !
 ! D132  D(54,44,45,46)        -56.8057                                         !
 ! D133  D(54,44,45,55)       -178.3997                                         !
 ! D134  D(54,44,45,56)         65.0789                                         !
 ! D135  D(44,45,46,47)         76.4479                                         !
 ! D136  D(44,45,46,57)       -163.6951                                         !
 ! D137  D(44,45,46,58)        -48.6556                                         !
 ! D138  D(55,45,46,47)       -161.6286                                         !
 ! D139  D(55,45,46,57)        -41.7716                                         !
 ! D140  D(55,45,46,58)         73.2679                                         !
 ! D141  D(56,45,46,47)        -46.2199                                         !
 ! D142  D(56,45,46,57)         73.6372                                         !
 ! D143  D(56,45,46,58)       -171.3234                                         !
 ! D144  D(45,46,47,48)        -65.8255                                         !
 ! D145  D(45,46,47,59)         55.219                                          !
 ! D146  D(45,46,47,60)        170.9138                                         !
 ! D147  D(57,46,47,48)        173.0129                                         !
 ! D148  D(57,46,47,59)        -65.9426                                         !
 ! D149  D(57,46,47,60)         49.7522                                         !
 ! D150  D(58,46,47,48)         59.5626                                         !
 ! D151  D(58,46,47,59)       -179.3929                                         !
 ! D152  D(58,46,47,60)        -63.6981                                         !
 ! D153  D(46,47,48,61)        -37.1792                                         !
 ! D154  D(46,47,48,62)       -152.047                                          !
 ! D155  D(59,47,48,61)       -159.3817                                         !
 ! D156  D(59,47,48,62)         85.7505                                         !
 ! D157  D(60,47,48,61)         84.8953                                         !
 ! D158  D(60,47,48,62)        -29.9725                                         !
 --------------------------------------------------------------------------------
 Symmetry turned off by external request.
 Stoichiometry    C20H31N4O7(1+)
 Framework group  C1[X(C20H31N4O7)]
 Deg. of freedom   180
 Full point group                 C1      NOp   1
                          Input orientation:                          
 ---------------------------------------------------------------------
 Center     Atomic      Atomic             Coordinates (Angstroms)
 Number     Number       Type             X           Y           Z
 ---------------------------------------------------------------------
      1          7           0       -4.386650  -89.331639  126.995851
      2          6           0       -3.572092  -90.109401  127.993136
      3          6           0       -2.314398  -89.251835  128.270085
      4          8           0       -1.684129  -88.842674  127.294610
      5          6           0       -4.414129  -90.510663  129.215545
      6          6           0       -5.799760  -91.150906  128.936924
      7          6           0       -5.796263  -92.143698  127.793195
      8          8           0       -5.632299  -91.811718  126.626711
      9          8           0       -5.976824  -93.404692  128.179918
     10          1           0       -5.972275  -93.977803  127.387056
     11          1           0       -5.150321  -89.949789  126.673960
     12          1           0       -3.234522  -91.000505  127.457484
     13          1           0       -4.598407  -89.627490  129.838690
     14          1           0       -3.810263  -91.208287  129.806252
     15          1           0       -6.520209  -90.372119  128.661878
     16          1           0       -6.163979  -91.623733  129.851058
     17          1           0       -4.745292  -88.467858  127.432300
     18          1           0       -3.855659  -89.022014  126.095894
     19          7           0       -2.000071  -88.968897  129.553192
     20          6           0       -1.085478  -87.860277  129.915952
     21          6           0       -1.944188  -86.592518  129.683511
     22          8           0       -2.691845  -86.141321  130.541267
     23          6           0       -0.608126  -87.987627  131.364644
     24          6           0        0.446271  -86.949242  131.684449
     25          6           0        0.094465  -85.688255  132.179895
     26          6           0        1.802319  -87.216758  131.444973
     27          6           0        1.066588  -84.722299  132.435257
     28          6           0        2.782350  -86.262709  131.693535
     29          6           0        2.415542  -85.006493  132.192992
     30          8           0        3.417803  -84.112069  132.420098
     31          1           0       -2.642106  -89.236835  130.286867
     32          1           0       -0.235432  -87.899964  129.231111
     33          1           0       -1.474742  -87.869757  132.025864
     34          1           0       -0.208830  -88.998767  131.505871
     35          1           0       -0.951241  -85.456066  132.358182
     36          1           0        2.099528  -88.193375  131.067683
     37          1           0        0.777012  -83.748967  132.826122
     38          1           0        3.832918  -86.470262  131.518761
     39          1           0        3.048213  -83.293722  132.787049
     40          7           0       -1.929495  -86.169249  128.389977
     41          6           0       -3.014645  -85.415204  127.769067
     42          6           0       -4.361015  -85.616892  128.458892
     43          8           0       -5.123644  -84.739446  128.751976
     44          6           0       -3.076599  -85.886082  126.295093
     45          6           0       -4.326071  -85.521471  125.489619
     46          6           0       -4.279105  -86.083252  124.055716
     47          6           0       -4.564933  -87.582473  123.880341
     48          7           0       -3.552457  -88.496924  124.490499
     49          8           0       -4.723204  -86.953079  128.612304
     50          1           0       -5.559754  -86.909500  129.115684
     51          1           0       -1.369548  -86.722986  127.752834
     52          1           0       -2.837164  -84.337646  127.830112
     53          1           0       -2.188279  -85.485384  125.789407
     54          1           0       -2.959662  -86.970431  126.310250
     55          1           0       -4.434037  -84.431499  125.446139
     56          1           0       -5.229077  -85.895718  125.992069
     57          1           0       -5.030496  -85.559933  123.452835
     58          1           0       -3.308973  -85.844948  123.595636
     59          1           0       -5.537929  -87.825123  124.328355
     60          1           0       -4.654323  -87.783947  122.805514
     61          1           0       -2.614025  -88.111585  124.383297
     62          1           0       -3.542021  -89.372879  123.965779
 ---------------------------------------------------------------------
 Rotational constants (GHZ):           0.2006782           0.0778782           0.0653073
 Standard basis: 6-31G(d) (6D, 7F)
   527 basis functions,   992 primitive gaussians,   527 cartesian basis functions
   117 alpha electrons      117 beta electrons
       nuclear repulsion energy      3345.6407995595 Hartrees.
 NAtoms=   62 NActive=   62 NUniq=   62 SFac= 1.00D+00 NAtFMM=   60 NAOKFM=T Big=T
 Integral buffers will be    131072 words long.
 Raffenetti 2 integral format.
 Two-electron integral symmetry is turned off.
 Nuclear repulsion after empirical dispersion term =     3345.5567861679 Hartrees.
 One-electron integrals computed using PRISM.
 NBasis=   527 RedAO= T EigKep=  4.34D-04  NBF=   527
 NBsUse=   527 1.00D-06 EigRej= -1.00D+00 NBFU=   527
 Initial guess from the checkpoint file:  "conf-123.chk"
 B after Tr=     0.000000    0.000000    0.000000
         Rot=    1.000000    0.000000    0.000000    0.000000 Ang=   0.00 deg.
 Requested convergence on RMS density matrix=1.00D-08 within 128 cycles.
 Requested convergence on MAX density matrix=1.00D-06.
 Requested convergence on             energy=1.00D-06.
 No special actions if energy rises.
 SCF Done:  E(RB3LYP) =  -1526.30154861     A.U. after    1 cycles
            NFock=  1  Conv=0.67D-08     -V/T= 2.0093

 **********************************************************************

            Population analysis using the SCF Density.

 **********************************************************************

 Alpha  occ. eigenvalues --  -19.33648 -19.32416 -19.28488 -19.25660 -19.25492
 Alpha  occ. eigenvalues --  -19.24045 -19.22394 -14.54891 -14.49904 -14.46761
 Alpha  occ. eigenvalues --  -14.46670 -10.46652 -10.43727 -10.43139 -10.39573
 Alpha  occ. eigenvalues --  -10.39324 -10.35505 -10.35274 -10.34794 -10.34530
 Alpha  occ. eigenvalues --  -10.33579 -10.31507 -10.30666 -10.30033 -10.29882
 Alpha  occ. eigenvalues --  -10.28500 -10.26318 -10.26006 -10.25758 -10.25464
 Alpha  occ. eigenvalues --  -10.25028  -1.24834  -1.22244  -1.17764  -1.15846
 Alpha  occ. eigenvalues --   -1.14317  -1.13515  -1.12181  -1.10524  -1.05972
 Alpha  occ. eigenvalues --   -1.03789  -1.02005  -0.95159  -0.92627  -0.91896
 Alpha  occ. eigenvalues --   -0.89412  -0.87366  -0.86433  -0.81808  -0.81399
 Alpha  occ. eigenvalues --   -0.80665  -0.79661  -0.76274  -0.74744  -0.73929
 Alpha  occ. eigenvalues --   -0.73184  -0.71652  -0.71068  -0.70090  -0.68971
 Alpha  occ. eigenvalues --   -0.68801  -0.67902  -0.65713  -0.64590  -0.64430
 Alpha  occ. eigenvalues --   -0.63201  -0.62339  -0.62058  -0.61154  -0.60923
 Alpha  occ. eigenvalues --   -0.60736  -0.60453  -0.59201  -0.58914  -0.58646
 Alpha  occ. eigenvalues --   -0.58384  -0.57587  -0.56673  -0.55939  -0.55450
 Alpha  occ. eigenvalues --   -0.54634  -0.54248  -0.53970  -0.53756  -0.53233
 Alpha  occ. eigenvalues --   -0.52002  -0.51853  -0.51540  -0.51292  -0.50961
 Alpha  occ. eigenvalues --   -0.50548  -0.49888  -0.49795  -0.48896  -0.48605
 Alpha  occ. eigenvalues --   -0.48248  -0.47191  -0.46737  -0.46594  -0.45720
 Alpha  occ. eigenvalues --   -0.45557  -0.45258  -0.44250  -0.44193  -0.44026
 Alpha  occ. eigenvalues --   -0.42828  -0.42240  -0.40454  -0.40259  -0.39699
 Alpha  occ. eigenvalues --   -0.39459  -0.39344  -0.38691  -0.36433  -0.35322
 Alpha  occ. eigenvalues --   -0.31826  -0.28466
 Alpha virt. eigenvalues --   -0.13876  -0.13347  -0.11030  -0.08275  -0.07546
 Alpha virt. eigenvalues --   -0.06740  -0.05858  -0.05214  -0.04603  -0.03649
 Alpha virt. eigenvalues --   -0.02223  -0.01708  -0.01090  -0.00618  -0.00099
 Alpha virt. eigenvalues --    0.00564   0.00910   0.01239   0.01768   0.02309
 Alpha virt. eigenvalues --    0.02539   0.02973   0.03711   0.04174   0.04431
 Alpha virt. eigenvalues --    0.04569   0.05304   0.05522   0.05836   0.06030
 Alpha virt. eigenvalues --    0.06434   0.06812   0.06984   0.07508   0.08266
 Alpha virt. eigenvalues --    0.08455   0.08892   0.08963   0.09596   0.09946
 Alpha virt. eigenvalues --    0.10492   0.10890   0.11525   0.12449   0.12685
 Alpha virt. eigenvalues --    0.13449   0.13816   0.14555   0.15194   0.15676
 Alpha virt. eigenvalues --    0.16187   0.16693   0.17296   0.18216   0.19012
 Alpha virt. eigenvalues --    0.19160   0.21389   0.22682   0.23896   0.24948
 Alpha virt. eigenvalues --    0.25319   0.25946   0.27422   0.27803   0.29517
 Alpha virt. eigenvalues --    0.29758   0.31088   0.35005   0.35979   0.37164
 Alpha virt. eigenvalues --    0.38792   0.39456   0.39991   0.40958   0.41047
 Alpha virt. eigenvalues --    0.41907   0.42554   0.42858   0.43570   0.44307
 Alpha virt. eigenvalues --    0.45216   0.45675   0.46551   0.46772   0.47016
 Alpha virt. eigenvalues --    0.47397   0.48049   0.48593   0.48661   0.49421
 Alpha virt. eigenvalues --    0.49788   0.50663   0.51159   0.51609   0.51967
 Alpha virt. eigenvalues --    0.52526   0.53205   0.53970   0.54219   0.54719
 Alpha virt. eigenvalues --    0.55033   0.55107   0.55408   0.55984   0.56825
 Alpha virt. eigenvalues --    0.57105   0.57179   0.57982   0.58457   0.59025
 Alpha virt. eigenvalues --    0.59414   0.60856   0.61332   0.61725   0.62435
 Alpha virt. eigenvalues --    0.63482   0.64052   0.64673   0.65291   0.65531
 Alpha virt. eigenvalues --    0.66530   0.67874   0.68075   0.69193   0.69656
 Alpha virt. eigenvalues --    0.69717   0.70788   0.71784   0.72395   0.72519
 Alpha virt. eigenvalues --    0.73005   0.73321   0.73812   0.73874   0.74585
 Alpha virt. eigenvalues --    0.74983   0.75090   0.76103   0.76399   0.77369
 Alpha virt. eigenvalues --    0.77592   0.77883   0.78286   0.78444   0.78792
 Alpha virt. eigenvalues --    0.78983   0.80228   0.80357   0.80972   0.81165
 Alpha virt. eigenvalues --    0.81659   0.82451   0.83386   0.83627   0.83799
 Alpha virt. eigenvalues --    0.84300   0.84646   0.84915   0.85090   0.85636
 Alpha virt. eigenvalues --    0.87531   0.88114   0.88190   0.88802   0.89019
 Alpha virt. eigenvalues --    0.89485   0.90164   0.91041   0.91426   0.91708
 Alpha virt. eigenvalues --    0.92013   0.93335   0.93487   0.93835   0.95020
 Alpha virt. eigenvalues --    0.95539   0.96082   0.96636   0.97644   0.98371
 Alpha virt. eigenvalues --    0.99078   0.99693   1.01496   1.02745   1.05028
 Alpha virt. eigenvalues --    1.05641   1.06004   1.06969   1.08311   1.09024
 Alpha virt. eigenvalues --    1.09954   1.10145   1.11558   1.13329   1.14086
 Alpha virt. eigenvalues --    1.14360   1.16306   1.17956   1.18399   1.19352
 Alpha virt. eigenvalues --    1.20745   1.21447   1.22930   1.24014   1.24444
 Alpha virt. eigenvalues --    1.25645   1.27343   1.28290   1.28889   1.29854
 Alpha virt. eigenvalues --    1.30121   1.30578   1.33228   1.33658   1.34225
 Alpha virt. eigenvalues --    1.35035   1.36219   1.37503   1.38493   1.39323
 Alpha virt. eigenvalues --    1.39602   1.39982   1.41720   1.42550   1.43191
 Alpha virt. eigenvalues --    1.44070   1.45284   1.45969   1.48122   1.49694
 Alpha virt. eigenvalues --    1.50689   1.51439   1.51959   1.54752   1.54988
 Alpha virt. eigenvalues --    1.55188   1.56861   1.58716   1.60205   1.61451
 Alpha virt. eigenvalues --    1.62384   1.62654   1.63795   1.64120   1.64587
 Alpha virt. eigenvalues --    1.65790   1.66476   1.66896   1.67173   1.67934
 Alpha virt. eigenvalues --    1.68536   1.68882   1.68987   1.69882   1.70781
 Alpha virt. eigenvalues --    1.71619   1.72262   1.73065   1.73470   1.73682
 Alpha virt. eigenvalues --    1.74683   1.75058   1.76091   1.77443   1.78309
 Alpha virt. eigenvalues --    1.78857   1.79360   1.79952   1.80772   1.81214
 Alpha virt. eigenvalues --    1.81927   1.82788   1.82836   1.83936   1.84955
 Alpha virt. eigenvalues --    1.86750   1.87549   1.87930   1.88239   1.88752
 Alpha virt. eigenvalues --    1.89510   1.89709   1.90137   1.90985   1.91190
 Alpha virt. eigenvalues --    1.91692   1.92661   1.93878   1.94752   1.95234
 Alpha virt. eigenvalues --    1.96351   1.97312   1.97430   1.99089   1.99418
 Alpha virt. eigenvalues --    2.00171   2.00296   2.01654   2.03744   2.05288
 Alpha virt. eigenvalues --    2.06292   2.07022   2.07678   2.07902   2.11060
 Alpha virt. eigenvalues --    2.11712   2.13947   2.16005   2.16873   2.17474
 Alpha virt. eigenvalues --    2.19514   2.20028   2.20741   2.21094   2.22289
 Alpha virt. eigenvalues --    2.22921   2.23278   2.24443   2.25163   2.25971
 Alpha virt. eigenvalues --    2.27272   2.27615   2.29302   2.29857   2.30656
 Alpha virt. eigenvalues --    2.31139   2.31930   2.32785   2.33559   2.34092
 Alpha virt. eigenvalues --    2.34922   2.36527   2.37969   2.38590   2.39847
 Alpha virt. eigenvalues --    2.41337   2.42919   2.46024   2.46206   2.47507
 Alpha virt. eigenvalues --    2.49233   2.49689   2.50004   2.52566   2.53183
 Alpha virt. eigenvalues --    2.54156   2.55114   2.55893   2.57386   2.57494
 Alpha virt. eigenvalues --    2.58519   2.59258   2.59345   2.60204   2.61686
 Alpha virt. eigenvalues --    2.64389   2.64942   2.66199   2.68225   2.70748
 Alpha virt. eigenvalues --    2.71166   2.72103   2.75438   2.76482   2.80338
 Alpha virt. eigenvalues --    2.82020   2.82895   2.83641   2.86227   2.89010
 Alpha virt. eigenvalues --    2.89390   2.90939   2.93022   2.93725   2.97981
 Alpha virt. eigenvalues --    3.03170   3.05521   3.08473   3.34968   3.74108
 Alpha virt. eigenvalues --    3.74867   3.79694   3.86096   3.87720   3.89065
 Alpha virt. eigenvalues --    3.93318   3.99885   4.02447   4.03518   4.05022
 Alpha virt. eigenvalues --    4.05322   4.10041   4.10323   4.13676   4.16071
 Alpha virt. eigenvalues --    4.18270   4.22001   4.25092   4.25991   4.30327
 Alpha virt. eigenvalues --    4.33015   4.35364   4.38597   4.40776   4.42880
 Alpha virt. eigenvalues --    4.46171   4.56822   4.60823   4.63114   4.69517
          Condensed to atoms (all electrons):
 Mulliken charges:
               1
     1  N   -0.837028
     2  C   -0.087002
     3  C    0.645911
     4  O   -0.532003
     5  C   -0.331330
     6  C   -0.373211
     7  C    0.604640
     8  O   -0.483729
     9  O   -0.524716
    10  H    0.438273
    11  H    0.406257
    12  H    0.222467
    13  H    0.179299
    14  H    0.204617
    15  H    0.186030
    16  H    0.219820
    17  H    0.411728
    18  H    0.473590
    19  N   -0.603009
    20  C   -0.068490
    21  C    0.640685
    22  O   -0.519088
    23  C   -0.378937
    24  C    0.141119
    25  C   -0.187992
    26  C   -0.189052
    27  C   -0.194827
    28  C   -0.156087
    29  C    0.355828
    30  O   -0.632227
    31  H    0.353651
    32  H    0.193094
    33  H    0.169725
    34  H    0.162365
    35  H    0.160046
    36  H    0.127829
    37  H    0.133981
    38  H    0.153927
    39  H    0.414720
    40  N   -0.622198
    41  C    0.022723
    42  C    0.608002
    43  O   -0.418653
    44  C   -0.352807
    45  C   -0.272381
    46  C   -0.288047
    47  C   -0.138443
    48  N   -0.791690
    49  O   -0.633766
    50  H    0.424202
    51  H    0.365551
    52  H    0.206140
    53  H    0.175189
    54  H    0.164409
    55  H    0.177877
    56  H    0.136799
    57  H    0.176525
    58  H    0.154169
    59  H    0.145951
    60  H    0.172381
    61  H    0.345578
    62  H    0.341615
 Sum of Mulliken charges =   1.00000
 Mulliken charges with hydrogens summed into heavy atoms:
               1
     1  N    0.454548
     2  C    0.135465
     3  C    0.645911
     4  O   -0.532003
     5  C    0.052586
     6  C    0.032639
     7  C    0.604640
     8  O   -0.483729
     9  O   -0.086443
    19  N   -0.249358
    20  C    0.124603
    21  C    0.640685
    22  O   -0.519088
    23  C   -0.046847
    24  C    0.141119
    25  C   -0.027946
    26  C   -0.061222
    27  C   -0.060846
    28  C   -0.002160
    29  C    0.355828
    30  O   -0.217507
    40  N   -0.256647
    41  C    0.228863
    42  C    0.608002
    43  O   -0.418653
    44  C   -0.013209
    45  C    0.042296
    46  C    0.042647
    47  C    0.179889
    48  N   -0.104496
    49  O   -0.209564
 Electronic spatial extent (au):  <R**2>=       20281591.3996
 Charge=              1.0000 electrons
 Dipole moment (field-independent basis, Debye):
    X=            -19.3984    Y=           -429.2527    Z=            611.0021  Tot=            746.9656
 Quadrupole moment (field-independent basis, Debye-Ang):
   XX=            -85.8913   YY=          38219.4979   ZZ=          77577.9371
   XY=           1755.4811   XZ=          -2460.4342   YZ=         -54609.6814
 Traceless Quadrupole moment (field-independent basis, Debye-Ang):
   XX=         -38656.4059   YY=           -351.0167   ZZ=          39007.4225
   XY=           1755.4811   XZ=          -2460.4342   YZ=         -54609.6814
 Octapole moment (field-independent basis, Debye-Ang**2):
  XXX=            807.4385  YYY=       -3391100.2056  ZZZ=        9830543.9514  XYY=        -158437.4659
  XXY=           7228.2805  XXZ=         -11207.2224  XZZ=        -311709.6290  YZZ=       -6934635.9344
  YYZ=        4862589.6051  XYZ=         222775.6469
 Hexadecapole moment (field-independent basis, Debye-Ang**3):
 XXXX=         -11609.2301 YYYY=      299880518.5533 ZZZZ=     1243116505.7568 XXXY=         -71032.0885
 XXXZ=         101917.1938 YYYX=       14263611.8325 YYYZ=     -431451299.4076 ZZZX=      -39443862.5367
 ZZZY=     -878893372.0343 XXYY=        -609621.3090 XXZZ=       -1465025.1441 YYZZ=      617527691.4714
 XXYZ=         943497.8548 YYXZ=      -20115879.8895 ZZXY=       28238694.9188
 N-N= 3.345556786168D+03 E-N=-1.022409323190D+04  KE= 1.512233625246D+03
 Unable to Open any file for archive entry.
 1\1\GINC-VIM-001\SP\RB3LYP\6-31G(d)\C20H31N4O7(1+)\KENGMITH\24-May-202
 2\0\\# B3LYP/6-31G* empiricaldispersion=gd3 guess=read geom=check nosy
 mm integral(ultrafinegrid)\\Candidate Structure: Conf:123 Charge calc 
 in gas phase\\1,1\N,0,-4.3866504291,-89.3316393072,126.9958513041\C,0,
 -3.5720915146,-90.1094009813,127.9931355679\C,0,-2.314397942,-89.25183
 46108,128.2700848113\O,0,-1.6841291967,-88.8426741621,127.2946096603\C
 ,0,-4.4141287278,-90.5106630432,129.2155445948\C,0,-5.7997599506,-91.1
 509057754,128.9369243671\C,0,-5.7962631168,-92.1436982865,127.79319494
 35\O,0,-5.632298648,-91.8117178808,126.6267105731\O,0,-5.9768237754,-9
 3.4046918227,128.1799182827\H,0,-5.9722749599,-93.9778034596,127.38705
 56159\H,0,-5.1503205284,-89.9497890069,126.6739604541\H,0,-3.234521838
 4,-91.0005052722,127.4574840635\H,0,-4.598406968,-89.627489553,129.838
 6903434\H,0,-3.810262922,-91.208287127,129.8062521871\H,0,-6.520209113
 7,-90.3721185645,128.6618783466\H,0,-6.1639790573,-91.6237330024,129.8
 51058169\H,0,-4.7452917176,-88.4678575027,127.4323004733\H,0,-3.855658
 8946,-89.0220141766,126.095894024\N,0,-2.0000713714,-88.9688970169,129
 .55319173\C,0,-1.0854784172,-87.860276703,129.9159517953\C,0,-1.944187
 9184,-86.5925179908,129.6835114061\O,0,-2.6918446684,-86.1413206663,13
 0.541267496\C,0,-0.6081260177,-87.9876265199,131.3646437881\C,0,0.4462
 709844,-86.9492418436,131.6844490027\C,0,0.0944651015,-85.6882547823,1
 32.179895338\C,0,1.8023193534,-87.2167577196,131.4449729775\C,0,1.0665
 877415,-84.7222985109,132.4352574656\C,0,2.7823499569,-86.2627088409,1
 31.6935346973\C,0,2.4155420757,-85.0064933157,132.1929921595\O,0,3.417
 8030093,-84.1120689481,132.4200984208\H,0,-2.6421062309,-89.236834903,
 130.2868666583\H,0,-0.2354319298,-87.8999639701,129.2311106819\H,0,-1.
 4747419248,-87.8697571538,132.0258635095\H,0,-0.2088298557,-88.9987672
 917,131.5058713323\H,0,-0.9512412515,-85.4560656937,132.3581819017\H,0
 ,2.0995279552,-88.1933751229,131.0676827806\H,0,0.7770116794,-83.74896
 66942,132.8261215534\H,0,3.8329180566,-86.470261997,131.5187612592\H,0
 ,3.0482126156,-83.2937215616,132.787049067\N,0,-1.9294951327,-86.16924
 93258,128.3899769788\C,0,-3.0146454438,-85.415204125,127.769067153\C,0
 ,-4.361014833,-85.616892419,128.4588919644\O,0,-5.1236439512,-84.73944
 64636,128.7519759158\C,0,-3.0765991597,-85.8860818962,126.295092926\C,
 0,-4.3260708144,-85.5214705495,125.4896194196\C,0,-4.2791045935,-86.08
 32522687,124.0557160911\C,0,-4.5649327697,-87.5824727467,123.880340932
 7\N,0,-3.5524570839,-88.4969236292,124.4904986243\O,0,-4.7232036608,-8
 6.9530789475,128.6123039875\H,0,-5.5597543643,-86.909500335,129.115684
 3101\H,0,-1.3695481968,-86.7229856149,127.7528344393\H,0,-2.8371643343
 ,-84.3376456218,127.8301116594\H,0,-2.1882785529,-85.4853836253,125.78
 94068754\H,0,-2.9596615602,-86.9704311678,126.310250471\H,0,-4.4340369
 255,-84.4314990201,125.4461388902\H,0,-5.2290769494,-85.895717611,125.
 9920693389\H,0,-5.0304964075,-85.5599330818,123.4528348884\H,0,-3.3089
 725643,-85.8449478583,123.5956357995\H,0,-5.5379287461,-87.8251232972,
 124.3283548381\H,0,-4.6543234292,-87.7839469904,122.8055141818\H,0,-2.
 6140250661,-88.1115851369,124.383296762\H,0,-3.5420214235,-89.37287856
 73,123.9657785102\\Version=ES64L-G16RevC.01\HF=-1526.3015486\RMSD=6.70
 6e-09\Dipole=-2.8492223,-3.1815825,-2.7648983\Quadrupole=-28740.090311
 8,-260.9722866,29001.0625985,1305.1572029,-1829.2724938,-40600.9596353
 \PG=C01 [X(C20H31N4O7)]\\@
 The archive entry for this job was punched.


 BE NOT THE FIRST BY WHOM THE NEW ARE TRIED,
 NOR YET THE THE LAST TO LAY THE OLD ASIDE.

                          -- ALEXANDER POPE
 Job cpu time:       0 days  0 hours  1 minutes 41.8 seconds.
 Elapsed time:       0 days  0 hours  0 minutes 25.9 seconds.
 File lengths (MBytes):  RWF=    264 Int=      0 D2E=      0 Chk=     40 Scr=     16
 Normal termination of Gaussian 16 at Tue May 24 19:13:23 2022.
