 Entering Gaussian System, Link 0=/opt/software/Gaussian/g16-AVX2-C.01/g16/g16
 Input=charge-conf-370.com
 Output=charge-conf-370.log
 Initial command:
 /opt/software/Gaussian/g16-AVX2-C.01/g16/l1.exe "/mnt/gs18/scratch/users/kengmith/Gau-56788.inp" -scrdir="/mnt/gs18/scratch/users/kengmith/"
 Entering Link 1 = /opt/software/Gaussian/g16-AVX2-C.01/g16/l1.exe PID=     56821.
  
 Copyright (c) 1988-2019, Gaussian, Inc.  All Rights Reserved.
  
 This is part of the Gaussian(R) 16 program.  It is based on
 the Gaussian(R) 09 system (copyright 2009, Gaussian, Inc.),
 the Gaussian(R) 03 system (copyright 2003, Gaussian, Inc.),
 the Gaussian(R) 98 system (copyright 1998, Gaussian, Inc.),
 the Gaussian(R) 94 system (copyright 1995, Gaussian, Inc.),
 the Gaussian 92(TM) system (copyright 1992, Gaussian, Inc.),
 the Gaussian 90(TM) system (copyright 1990, Gaussian, Inc.),
 the Gaussian 88(TM) system (copyright 1988, Gaussian, Inc.),
 the Gaussian 86(TM) system (copyright 1986, Carnegie Mellon
 University), and the Gaussian 82(TM) system (copyright 1983,
 Carnegie Mellon University). Gaussian is a federally registered
 trademark of Gaussian, Inc.
  
 This software contains proprietary and confidential information,
 including trade secrets, belonging to Gaussian, Inc.
  
 This software is provided under written license and may be
 used, copied, transmitted, or stored only in accord with that
 written license.
  
 The following legend is applicable only to US Government
 contracts under FAR:
  
                    RESTRICTED RIGHTS LEGEND
  
 Use, reproduction and disclosure by the US Government is
 subject to restrictions as set forth in subparagraphs (a)
 and (c) of the Commercial Computer Software - Restricted
 Rights clause in FAR 52.227-19.
  
 Gaussian, Inc.
 340 Quinnipiac St., Bldg. 40, Wallingford CT 06492
  
  
 ---------------------------------------------------------------
 Warning -- This program may not be used in any manner that
 competes with the business of Gaussian, Inc. or will provide
 assistance to any competitor of Gaussian, Inc.  The licensee
 of this program is prohibited from giving any competitor of
 Gaussian, Inc. access to this program.  By using this program,
 the user acknowledges that Gaussian, Inc. is engaged in the
 business of creating and licensing software in the field of
 computational chemistry and represents and warrants to the
 licensee that it is not a competitor of Gaussian, Inc. and that
 it will not use this program in any manner prohibited above.
 ---------------------------------------------------------------
  

 Cite this work as:
 Gaussian 16, Revision C.01,
 M. J. Frisch, G. W. Trucks, H. B. Schlegel, G. E. Scuseria, 
 M. A. Robb, J. R. Cheeseman, G. Scalmani, V. Barone, 
 G. A. Petersson, H. Nakatsuji, X. Li, M. Caricato, A. V. Marenich, 
 J. Bloino, B. G. Janesko, R. Gomperts, B. Mennucci, H. P. Hratchian, 
 J. V. Ortiz, A. F. Izmaylov, J. L. Sonnenberg, D. Williams-Young, 
 F. Ding, F. Lipparini, F. Egidi, J. Goings, B. Peng, A. Petrone, 
 T. Henderson, D. Ranasinghe, V. G. Zakrzewski, J. Gao, N. Rega, 
 G. Zheng, W. Liang, M. Hada, M. Ehara, K. Toyota, R. Fukuda, 
 J. Hasegawa, M. Ishida, T. Nakajima, Y. Honda, O. Kitao, H. Nakai, 
 T. Vreven, K. Throssell, J. A. Montgomery, Jr., J. E. Peralta, 
 F. Ogliaro, M. J. Bearpark, J. J. Heyd, E. N. Brothers, K. N. Kudin, 
 V. N. Staroverov, T. A. Keith, R. Kobayashi, J. Normand, 
 K. Raghavachari, A. P. Rendell, J. C. Burant, S. S. Iyengar, 
 J. Tomasi, M. Cossi, J. M. Millam, M. Klene, C. Adamo, R. Cammi, 
 J. W. Ochterski, R. L. Martin, K. Morokuma, O. Farkas, 
 J. B. Foresman, and D. J. Fox, Gaussian, Inc., Wallingford CT, 2019.
 
 ******************************************
 Gaussian 16:  ES64L-G16RevC.01  3-Jul-2019
                24-May-2022 
 ******************************************
 %mem=8gb
 %nproc=4
 Will use up to    4 processors via shared memory.
 %chk=conf-370.chk
 ----------------------------------------------------------------------
 # B3LYP/6-31G* empiricaldispersion=gd3 guess=read geom=check nosymm in
 tegral(ultrafinegrid)
 ----------------------------------------------------------------------
 1/29=2,38=1,172=1/1;
 2/12=2,15=1,40=1/2;
 3/5=1,6=6,7=1,11=2,14=-4,25=1,30=1,74=-5,75=-5,116=-2,124=31/1,2,3;
 4/5=1/1;
 5/5=2,38=6/2;
 6/7=2,8=2,9=2,10=2,28=1/1;
 99/5=1,9=1/99;
 ------------------------------------------------------
 Candidate Structure: Conf:370 Charge calc in gas phase
 ------------------------------------------------------
 Structure from the checkpoint file:  "conf-370.chk"
 Charge =  1 Multiplicity = 1
 Redundant internal coordinates found in file.  (old form).
 N,0,-5.9466075656,-86.5427127265,128.3880553058
 C,0,-5.4176363793,-87.807230284,129.0274045527
 C,0,-4.4652831818,-87.6649348339,130.2198282645
 O,0,-4.1085016842,-88.7029206289,130.761123478
 C,0,-6.5147120929,-88.8654953086,129.1111355729
 C,0,-7.1558373949,-89.1729615558,127.7214932466
 C,0,-6.1538653492,-89.0003981207,126.5694007842
 O,0,-5.9580039098,-87.7944143579,126.1564526757
 O,0,-5.5360579416,-90.0017912153,126.1427136421
 H,0,-4.506389413,-89.8069534803,124.9368345007
 H,0,-6.1979280541,-86.8773591839,127.3643034276
 H,0,-4.6934010367,-88.1504336659,128.2878177052
 H,0,-7.2914988627,-88.5800614919,129.8301541237
 H,0,-6.0267265457,-89.7572227622,129.5104646642
 H,0,-7.9990472474,-88.4988226074,127.5363426402
 H,0,-7.5386418914,-90.1951057302,127.7228825352
 H,0,-6.7440799672,-86.1335676534,128.8818883471
 H,0,-5.2139801678,-85.8379690553,128.2683321793
 N,0,-3.8478882522,-86.4616737745,130.4341013448
 C,0,-2.3814965254,-86.4459593155,130.6845453757
 C,0,-1.7687766229,-86.6858766527,129.2790267656
 O,0,-1.4773624471,-85.7720626591,128.5191035406
 C,0,-1.9205509073,-85.1258342761,131.3050688841
 C,0,-0.4659650553,-85.1949132901,131.7224146937
 C,0,-0.1157933507,-85.6626766921,132.9941996446
 C,0,0.5632323964,-84.8363512158,130.8386102537
 C,0,1.2187499158,-85.7699142849,133.3821860874
 C,0,1.8988566785,-84.9373548314,131.2121720733
 C,0,2.2331472125,-85.4056472411,132.4887881466
 O,0,3.5585711133,-85.4818393349,132.7966408201
 H,0,-4.1616515303,-85.6447714412,129.9258138172
 H,0,-2.1688406933,-87.2753514749,131.3607627285
 H,0,-2.0709107391,-84.322595777,130.5743500333
 H,0,-2.5617323895,-84.920580792,132.1695517896
 H,0,-0.8948779731,-85.9396573066,133.7016036109
 H,0,0.3105355933,-84.4810137426,129.8442521175
 H,0,1.4714076779,-86.1271469321,134.3784179087
 H,0,2.6973407184,-84.6531003887,130.5345345553
 H,0,3.6646689571,-85.7893943695,133.7104374637
 N,0,-1.7585714707,-87.9946682279,128.8873135127
 C,0,-1.4970957602,-88.4076078714,127.5203978761
 C,0,-2.3320932387,-87.6844411271,126.4652996816
 O,0,-2.0659744384,-87.7453041067,125.2752517087
 C,0,-1.9019721473,-89.9065093404,127.3851967854
 C,0,-1.4140789418,-90.6179448855,126.0985252377
 C,0,-2.4757769047,-91.5512008761,125.4531379401
 C,0,-3.0058668075,-91.0918995721,124.0928508689
 N,0,-3.7431481613,-89.7776518195,124.1739960504
 O,0,-3.4882947222,-87.1762312957,126.9136342785
 H,0,-4.1719908518,-87.1793433076,126.195444124
 H,0,-2.0669884715,-88.6989909628,129.5464253769
 H,0,-0.4445603528,-88.2634251975,127.256764832
 H,0,-1.5084901871,-90.43163813,128.2630582365
 H,0,-2.9963203058,-89.9608441503,127.4637283276
 H,0,-0.5229853234,-91.2034560425,126.3426501028
 H,0,-1.0800667199,-89.8750944962,125.3677564869
 H,0,-2.0468931024,-92.5441531211,125.2802075265
 H,0,-3.3266411432,-91.7028270247,126.1276729953
 H,0,-2.1950166574,-90.9632774866,123.3699778979
 H,0,-3.7159270774,-91.8205096936,123.6936072127
 H,0,-4.1930362776,-89.5515966176,123.2829984116
 H,0,-3.1046839188,-88.9955324619,124.4040764286
 Recover connectivity data from disk.
                           ----------------------------
                           !    Current Parameters    !
                           ! (Angstroms and Degrees)  !
 --------------------------                            --------------------------
 ! Name  Definition              Value                                          !
 --------------------------------------------------------------------------------
 ! R1    R(1,2)                  1.5125                                         !
 ! R2    R(1,11)                 1.106                                          !
 ! R3    R(1,17)                 1.0233                                         !
 ! R4    R(1,18)                 1.0236                                         !
 ! R5    R(2,3)                  1.5327                                         !
 ! R6    R(2,5)                  1.5266                                         !
 ! R7    R(2,12)                 1.0905                                         !
 ! R8    R(3,4)                  1.2238                                         !
 ! R9    R(3,19)                 1.3693                                         !
 ! R10   R(5,6)                  1.561                                          !
 ! R11   R(5,13)                 1.0963                                         !
 ! R12   R(5,14)                 1.0921                                         !
 ! R13   R(6,7)                  1.5366                                         !
 ! R14   R(6,15)                 1.0953                                         !
 ! R15   R(6,16)                 1.0915                                         !
 ! R16   R(7,8)                  1.2897                                         !
 ! R17   R(7,9)                  1.2516                                         !
 ! R18   R(9,10)                 1.5976                                         !
 ! R19   R(19,20)                1.4877                                         !
 ! R20   R(19,31)                1.012                                          !
 ! R21   R(20,21)                1.5519                                         !
 ! R22   R(20,23)                1.5298                                         !
 ! R23   R(20,32)                1.091                                          !
 ! R24   R(21,22)                1.2237                                         !
 ! R25   R(21,40)                1.3662                                         !
 ! R26   R(23,24)                1.5148                                         !
 ! R27   R(23,33)                1.0962                                         !
 ! R28   R(23,34)                1.0957                                         !
 ! R29   R(24,25)                1.3996                                         !
 ! R30   R(24,26)                1.4032                                         !
 ! R31   R(25,27)                1.3939                                         !
 ! R32   R(25,35)                1.0882                                         !
 ! R33   R(26,28)                1.3906                                         !
 ! R34   R(26,36)                1.0858                                         !
 ! R35   R(27,29)                1.3999                                         !
 ! R36   R(27,37)                1.0881                                         !
 ! R37   R(28,29)                1.4003                                         !
 ! R38   R(28,38)                1.0852                                         !
 ! R39   R(29,30)                1.3628                                         !
 ! R40   R(30,39)                0.97                                           !
 ! R41   R(40,41)                1.4517                                         !
 ! R42   R(40,51)                1.0127                                         !
 ! R43   R(41,42)                1.5276                                         !
 ! R44   R(41,44)                1.5585                                         !
 ! R45   R(41,52)                1.0946                                         !
 ! R46   R(42,43)                1.221                                          !
 ! R47   R(42,49)                1.3402                                         !
 ! R48   R(44,45)                1.5491                                         !
 ! R49   R(44,53)                1.096                                          !
 ! R50   R(44,54)                1.0985                                         !
 ! R51   R(45,46)                1.5539                                         !
 ! R52   R(45,55)                1.0938                                         !
 ! R53   R(45,56)                1.0943                                         !
 ! R54   R(46,47)                1.5305                                         !
 ! R55   R(46,57)                1.0954                                         !
 ! R56   R(46,58)                1.0963                                         !
 ! R57   R(47,48)                1.5091                                         !
 ! R58   R(47,59)                1.0939                                         !
 ! R59   R(47,60)                1.0929                                         !
 ! R60   R(48,61)                1.0234                                         !
 ! R61   R(48,62)                1.0355                                         !
 ! R62   R(49,50)                0.9916                                         !
 ! A1    A(2,1,11)             102.579                                          !
 ! A2    A(2,1,17)             113.7546                                         !
 ! A3    A(2,1,18)             112.0087                                         !
 ! A4    A(11,1,17)            112.9905                                         !
 ! A5    A(11,1,18)            105.2303                                         !
 ! A6    A(17,1,18)            109.8121                                         !
 ! A7    A(1,2,3)              117.9415                                         !
 ! A8    A(1,2,5)              110.5741                                         !
 ! A9    A(1,2,12)             102.0461                                         !
 ! A10   A(3,2,5)              117.9192                                         !
 ! A11   A(3,2,12)              98.2904                                         !
 ! A12   A(5,2,12)             107.2347                                         !
 ! A13   A(2,3,4)              116.5205                                         !
 ! A14   A(2,3,19)             118.9142                                         !
 ! A15   A(4,3,19)             123.0015                                         !
 ! A16   A(2,5,6)              112.5117                                         !
 ! A17   A(2,5,13)             111.3881                                         !
 ! A18   A(2,5,14)             105.3648                                         !
 ! A19   A(6,5,13)             110.1291                                         !
 ! A20   A(6,5,14)             110.3769                                         !
 ! A21   A(13,5,14)            106.8203                                         !
 ! A22   A(5,6,7)              112.1813                                         !
 ! A23   A(5,6,15)             110.2083                                         !
 ! A24   A(5,6,16)             109.1093                                         !
 ! A25   A(7,6,15)             107.8261                                         !
 ! A26   A(7,6,16)             109.5619                                         !
 ! A27   A(15,6,16)            107.854                                          !
 ! A28   A(6,7,8)              116.3672                                         !
 ! A29   A(6,7,9)              119.1849                                         !
 ! A30   A(8,7,9)              124.3354                                         !
 ! A31   A(7,9,10)             118.5471                                         !
 ! A32   A(3,19,20)            118.689                                          !
 ! A33   A(3,19,31)            119.4034                                         !
 ! A34   A(20,19,31)           112.4345                                         !
 ! A35   A(19,20,21)           103.5953                                         !
 ! A36   A(19,20,23)           111.987                                          !
 ! A37   A(19,20,32)           106.7636                                         !
 ! A38   A(21,20,23)           112.4455                                         !
 ! A39   A(21,20,32)           111.5212                                         !
 ! A40   A(23,20,32)           110.2345                                         !
 ! A41   A(20,21,22)           122.7513                                         !
 ! A42   A(20,21,40)           114.25                                           !
 ! A43   A(22,21,40)           122.3813                                         !
 ! A44   A(20,23,24)           111.2063                                         !
 ! A45   A(20,23,33)           108.6987                                         !
 ! A46   A(20,23,34)           107.7798                                         !
 ! A47   A(24,23,33)           110.4113                                         !
 ! A48   A(24,23,34)           110.6755                                         !
 ! A49   A(33,23,34)           107.9618                                         !
 ! A50   A(23,24,25)           120.3863                                         !
 ! A51   A(23,24,26)           121.2728                                         !
 ! A52   A(25,24,26)           118.3093                                         !
 ! A53   A(24,25,27)           121.2096                                         !
 ! A54   A(24,25,35)           119.7794                                         !
 ! A55   A(27,25,35)           119.0079                                         !
 ! A56   A(24,26,28)           121.1133                                         !
 ! A57   A(24,26,36)           119.3246                                         !
 ! A58   A(28,26,36)           119.5606                                         !
 ! A59   A(25,27,29)           119.7411                                         !
 ! A60   A(25,27,37)           120.1597                                         !
 ! A61   A(29,27,37)           120.0971                                         !
 ! A62   A(26,28,29)           119.9013                                         !
 ! A63   A(26,28,38)           121.3304                                         !
 ! A64   A(29,28,38)           118.7669                                         !
 ! A65   A(27,29,28)           119.7251                                         !
 ! A66   A(27,29,30)           123.0931                                         !
 ! A67   A(28,29,30)           117.1817                                         !
 ! A68   A(29,30,39)           109.6887                                         !
 ! A69   A(21,40,41)           122.9449                                         !
 ! A70   A(21,40,51)           118.5138                                         !
 ! A71   A(41,40,51)           118.0246                                         !
 ! A72   A(40,41,42)           114.6617                                         !
 ! A73   A(40,41,44)           107.9673                                         !
 ! A74   A(40,41,52)           111.2551                                         !
 ! A75   A(42,41,44)           104.678                                          !
 ! A76   A(42,41,52)           107.2718                                         !
 ! A77   A(44,41,52)           110.8301                                         !
 ! A78   A(41,42,43)           122.0382                                         !
 ! A79   A(41,42,49)           114.8372                                         !
 ! A80   A(43,42,49)           122.2087                                         !
 ! A81   A(41,44,45)           115.5902                                         !
 ! A82   A(41,44,53)           107.3409                                         !
 ! A83   A(41,44,54)           107.468                                          !
 ! A84   A(45,44,53)           109.3999                                         !
 ! A85   A(45,44,54)           110.5132                                         !
 ! A86   A(53,44,54)           106.0631                                         !
 ! A87   A(44,45,46)           113.9288                                         !
 ! A88   A(44,45,55)           108.4838                                         !
 ! A89   A(44,45,56)           109.819                                          !
 ! A90   A(46,45,55)           109.1361                                         !
 ! A91   A(46,45,56)           109.8096                                         !
 ! A92   A(55,45,56)           105.2935                                         !
 ! A93   A(45,46,47)           115.1855                                         !
 ! A94   A(45,46,57)           110.0282                                         !
 ! A95   A(45,46,58)           110.9641                                         !
 ! A96   A(47,46,57)           105.5063                                         !
 ! A97   A(47,46,58)           108.6354                                         !
 ! A98   A(57,46,58)           106.0002                                         !
 ! A99   A(46,47,48)           112.5058                                         !
 ! A100  A(46,47,59)           111.4629                                         !
 ! A101  A(46,47,60)           110.4653                                         !
 ! A102  A(48,47,59)           107.1743                                         !
 ! A103  A(48,47,60)           106.4284                                         !
 ! A104  A(59,47,60)           108.5771                                         !
 ! A105  A(47,48,61)           111.1195                                         !
 ! A106  A(47,48,62)           111.6226                                         !
 ! A107  A(61,48,62)           107.3165                                         !
 ! A108  A(42,49,50)           110.5703                                         !
 ! D1    D(11,1,2,3)           155.9528                                         !
 ! D2    D(11,1,2,5)           -64.1216                                         !
 ! D3    D(11,1,2,12)           49.6879                                         !
 ! D4    D(17,1,2,3)           -81.6739                                         !
 ! D5    D(17,1,2,5)            58.2516                                         !
 ! D6    D(17,1,2,12)          172.0612                                         !
 ! D7    D(18,1,2,3)            43.5875                                         !
 ! D8    D(18,1,2,5)          -176.487                                          !
 ! D9    D(18,1,2,12)          -62.6774                                         !
 ! D10   D(1,2,3,4)            176.2957                                         !
 ! D11   D(1,2,3,19)           -17.5278                                         !
 ! D12   D(5,2,3,4)             39.3047                                         !
 ! D13   D(5,2,3,19)          -154.5188                                         !
 ! D14   D(12,2,3,4)           -75.282                                          !
 ! D15   D(12,2,3,19)           90.8945                                         !
 ! D16   D(1,2,5,6)             55.5034                                         !
 ! D17   D(1,2,5,13)           -68.7185                                         !
 ! D18   D(1,2,5,14)           175.8195                                         !
 ! D19   D(3,2,5,6)           -164.5611                                         !
 ! D20   D(3,2,5,13)            71.217                                          !
 ! D21   D(3,2,5,14)           -44.245                                          !
 ! D22   D(12,2,5,6)           -54.974                                          !
 ! D23   D(12,2,5,13)         -179.1959                                         !
 ! D24   D(12,2,5,14)           65.3421                                         !
 ! D25   D(2,3,19,20)         -131.8487                                         !
 ! D26   D(2,3,19,31)           12.0281                                         !
 ! D27   D(4,3,19,20)           33.3824                                         !
 ! D28   D(4,3,19,31)          177.2592                                         !
 ! D29   D(2,5,6,7)             31.1444                                         !
 ! D30   D(2,5,6,15)           -89.0116                                         !
 ! D31   D(2,5,6,16)           152.7405                                         !
 ! D32   D(13,5,6,7)           156.0588                                         !
 ! D33   D(13,5,6,15)           35.9028                                         !
 ! D34   D(13,5,6,16)          -82.3451                                         !
 ! D35   D(14,5,6,7)           -86.2368                                         !
 ! D36   D(14,5,6,15)          153.6072                                         !
 ! D37   D(14,5,6,16)           35.3593                                         !
 ! D38   D(5,6,7,8)            -81.042                                          !
 ! D39   D(5,6,7,9)             95.2695                                         !
 ! D40   D(15,6,7,8)            40.4891                                         !
 ! D41   D(15,6,7,9)          -143.1994                                         !
 ! D42   D(16,6,7,8)           157.6214                                         !
 ! D43   D(16,6,7,9)           -26.0671                                         !
 ! D44   D(6,7,9,10)           179.5288                                         !
 ! D45   D(8,7,9,10)            -4.4739                                         !
 ! D46   D(3,19,20,21)          75.5756                                         !
 ! D47   D(3,19,20,23)        -163.0071                                         !
 ! D48   D(3,19,20,32)         -42.2654                                         !
 ! D49   D(31,19,20,21)        -70.6698                                         !
 ! D50   D(31,19,20,23)         50.7474                                         !
 ! D51   D(31,19,20,32)        171.4891                                         !
 ! D52   D(19,20,21,22)         90.7646                                         !
 ! D53   D(19,20,21,40)        -80.4148                                         !
 ! D54   D(23,20,21,22)        -30.3442                                         !
 ! D55   D(23,20,21,40)        158.4765                                         !
 ! D56   D(32,20,21,22)       -154.7574                                         !
 ! D57   D(32,20,21,40)         34.0632                                         !
 ! D58   D(19,20,23,24)        172.422                                          !
 ! D59   D(19,20,23,33)        -65.8252                                         !
 ! D60   D(19,20,23,34)         50.9463                                         !
 ! D61   D(21,20,23,24)        -71.4057                                         !
 ! D62   D(21,20,23,33)         50.3471                                         !
 ! D63   D(21,20,23,34)        167.1185                                         !
 ! D64   D(32,20,23,24)         53.7146                                         !
 ! D65   D(32,20,23,33)        175.4674                                         !
 ! D66   D(32,20,23,34)        -67.7611                                         !
 ! D67   D(20,21,40,41)        166.6641                                         !
 ! D68   D(20,21,40,51)         -4.9196                                         !
 ! D69   D(22,21,40,41)         -4.5519                                         !
 ! D70   D(22,21,40,51)       -176.1356                                         !
 ! D71   D(20,23,24,25)        -88.0471                                         !
 ! D72   D(20,23,24,26)         89.8744                                         !
 ! D73   D(33,23,24,25)        151.2026                                         !
 ! D74   D(33,23,24,26)        -30.8759                                         !
 ! D75   D(34,23,24,25)         31.7223                                         !
 ! D76   D(34,23,24,26)       -150.3562                                         !
 ! D77   D(23,24,25,27)        178.1237                                         !
 ! D78   D(23,24,25,35)         -2.5197                                         !
 ! D79   D(26,24,25,27)          0.1415                                         !
 ! D80   D(26,24,25,35)        179.4981                                         !
 ! D81   D(23,24,26,28)       -178.141                                          !
 ! D82   D(23,24,26,36)          1.4165                                         !
 ! D83   D(25,24,26,28)         -0.1776                                         !
 ! D84   D(25,24,26,36)        179.38                                           !
 ! D85   D(24,25,27,29)         -0.0323                                         !
 ! D86   D(24,25,27,37)        179.4411                                         !
 ! D87   D(35,25,27,29)       -179.3938                                         !
 ! D88   D(35,25,27,37)          0.0796                                         !
 ! D89   D(24,26,28,29)          0.104                                          !
 ! D90   D(24,26,28,38)       -179.4749                                         !
 ! D91   D(36,26,28,29)       -179.4525                                         !
 ! D92   D(36,26,28,38)          0.9685                                         !
 ! D93   D(25,27,29,28)         -0.0449                                         !
 ! D94   D(25,27,29,30)        179.9415                                         !
 ! D95   D(37,27,29,28)       -179.5186                                         !
 ! D96   D(37,27,29,30)          0.4677                                         !
 ! D97   D(26,28,29,27)          0.0094                                         !
 ! D98   D(26,28,29,30)       -179.9777                                         !
 ! D99   D(38,28,29,27)        179.5992                                         !
 ! D100  D(38,28,29,30)         -0.388                                          !
 ! D101  D(27,29,30,39)         -1.8415                                         !
 ! D102  D(28,29,30,39)        178.1452                                         !
 ! D103  D(21,40,41,42)        -50.3654                                         !
 ! D104  D(21,40,41,44)       -166.5973                                         !
 ! D105  D(21,40,41,52)         71.5824                                         !
 ! D106  D(51,40,41,42)        121.2572                                         !
 ! D107  D(51,40,41,44)          5.0252                                         !
 ! D108  D(51,40,41,52)       -116.795                                          !
 ! D109  D(40,41,42,43)        166.7502                                         !
 ! D110  D(40,41,42,49)        -23.9823                                         !
 ! D111  D(44,41,42,43)        -75.1408                                         !
 ! D112  D(44,41,42,49)         94.1267                                         !
 ! D113  D(52,41,42,43)         42.6598                                         !
 ! D114  D(52,41,42,49)       -148.0727                                         !
 ! D115  D(40,41,44,45)       -167.088                                          !
 ! D116  D(40,41,44,53)        -44.7197                                         !
 ! D117  D(40,41,44,54)         68.9927                                         !
 ! D118  D(42,41,44,45)         70.3377                                         !
 ! D119  D(42,41,44,53)       -167.2939                                         !
 ! D120  D(42,41,44,54)        -53.5816                                         !
 ! D121  D(52,41,44,45)        -45.0056                                         !
 ! D122  D(52,41,44,53)         77.3627                                         !
 ! D123  D(52,41,44,54)       -168.9249                                         !
 ! D124  D(41,42,49,50)       -148.9748                                         !
 ! D125  D(43,42,49,50)         20.2724                                         !
 ! D126  D(41,44,45,46)       -138.3447                                         !
 ! D127  D(41,44,45,55)         99.8875                                         !
 ! D128  D(41,44,45,56)        -14.7008                                         !
 ! D129  D(53,44,45,46)        100.3891                                         !
 ! D130  D(53,44,45,55)        -21.3788                                         !
 ! D131  D(53,44,45,56)       -135.9671                                         !
 ! D132  D(54,44,45,46)        -16.0323                                         !
 ! D133  D(54,44,45,55)       -137.8002                                         !
 ! D134  D(54,44,45,56)        107.6116                                         !
 ! D135  D(44,45,46,47)        112.6636                                         !
 ! D136  D(44,45,46,57)       -128.2671                                         !
 ! D137  D(44,45,46,58)        -11.2762                                         !
 ! D138  D(55,45,46,47)       -125.9299                                         !
 ! D139  D(55,45,46,57)         -6.8606                                         !
 ! D140  D(55,45,46,58)        110.1303                                         !
 ! D141  D(56,45,46,47)        -10.9853                                         !
 ! D142  D(56,45,46,57)        108.0839                                         !
 ! D143  D(56,45,46,58)       -134.9252                                         !
 ! D144  D(45,46,47,48)        -63.3906                                         !
 ! D145  D(45,46,47,59)         57.0295                                         !
 ! D146  D(45,46,47,60)        177.8337                                         !
 ! D147  D(57,46,47,48)        175.0605                                         !
 ! D148  D(57,46,47,59)        -64.5194                                         !
 ! D149  D(57,46,47,60)         56.2848                                         !
 ! D150  D(58,46,47,48)         61.767                                          !
 ! D151  D(58,46,47,59)       -177.8129                                         !
 ! D152  D(58,46,47,60)        -57.0087                                         !
 ! D153  D(46,47,48,61)       -172.5078                                         !
 ! D154  D(46,47,48,62)         67.7339                                         !
 ! D155  D(59,47,48,61)         64.6314                                         !
 ! D156  D(59,47,48,62)        -55.1269                                         !
 ! D157  D(60,47,48,61)        -51.394                                          !
 ! D158  D(60,47,48,62)       -171.1522                                         !
 --------------------------------------------------------------------------------
 Symmetry turned off by external request.
 Stoichiometry    C20H31N4O7(1+)
 Framework group  C1[X(C20H31N4O7)]
 Deg. of freedom   180
 Full point group                 C1      NOp   1
                          Input orientation:                          
 ---------------------------------------------------------------------
 Center     Atomic      Atomic             Coordinates (Angstroms)
 Number     Number       Type             X           Y           Z
 ---------------------------------------------------------------------
      1          7           0       -5.946608  -86.542713  128.388055
      2          6           0       -5.417636  -87.807230  129.027405
      3          6           0       -4.465283  -87.664935  130.219828
      4          8           0       -4.108502  -88.702921  130.761123
      5          6           0       -6.514712  -88.865495  129.111136
      6          6           0       -7.155837  -89.172962  127.721493
      7          6           0       -6.153865  -89.000398  126.569401
      8          8           0       -5.958004  -87.794414  126.156453
      9          8           0       -5.536058  -90.001791  126.142714
     10          1           0       -4.506389  -89.806953  124.936835
     11          1           0       -6.197928  -86.877359  127.364303
     12          1           0       -4.693401  -88.150434  128.287818
     13          1           0       -7.291499  -88.580061  129.830154
     14          1           0       -6.026727  -89.757223  129.510465
     15          1           0       -7.999047  -88.498823  127.536343
     16          1           0       -7.538642  -90.195106  127.722883
     17          1           0       -6.744080  -86.133568  128.881888
     18          1           0       -5.213980  -85.837969  128.268332
     19          7           0       -3.847888  -86.461674  130.434101
     20          6           0       -2.381497  -86.445959  130.684545
     21          6           0       -1.768777  -86.685877  129.279027
     22          8           0       -1.477362  -85.772063  128.519104
     23          6           0       -1.920551  -85.125834  131.305069
     24          6           0       -0.465965  -85.194913  131.722415
     25          6           0       -0.115793  -85.662677  132.994200
     26          6           0        0.563232  -84.836351  130.838610
     27          6           0        1.218750  -85.769914  133.382186
     28          6           0        1.898857  -84.937355  131.212172
     29          6           0        2.233147  -85.405647  132.488788
     30          8           0        3.558571  -85.481839  132.796641
     31          1           0       -4.161652  -85.644771  129.925814
     32          1           0       -2.168841  -87.275351  131.360763
     33          1           0       -2.070911  -84.322596  130.574350
     34          1           0       -2.561732  -84.920581  132.169552
     35          1           0       -0.894878  -85.939657  133.701604
     36          1           0        0.310536  -84.481014  129.844252
     37          1           0        1.471408  -86.127147  134.378418
     38          1           0        2.697341  -84.653100  130.534535
     39          1           0        3.664669  -85.789394  133.710437
     40          7           0       -1.758571  -87.994668  128.887314
     41          6           0       -1.497096  -88.407608  127.520398
     42          6           0       -2.332093  -87.684441  126.465300
     43          8           0       -2.065974  -87.745304  125.275252
     44          6           0       -1.901972  -89.906509  127.385197
     45          6           0       -1.414079  -90.617945  126.098525
     46          6           0       -2.475777  -91.551201  125.453138
     47          6           0       -3.005867  -91.091900  124.092851
     48          7           0       -3.743148  -89.777652  124.173996
     49          8           0       -3.488295  -87.176231  126.913634
     50          1           0       -4.171991  -87.179343  126.195444
     51          1           0       -2.066988  -88.698991  129.546425
     52          1           0       -0.444560  -88.263425  127.256765
     53          1           0       -1.508490  -90.431638  128.263058
     54          1           0       -2.996320  -89.960844  127.463728
     55          1           0       -0.522985  -91.203456  126.342650
     56          1           0       -1.080067  -89.875094  125.367756
     57          1           0       -2.046893  -92.544153  125.280208
     58          1           0       -3.326641  -91.702827  126.127673
     59          1           0       -2.195017  -90.963277  123.369978
     60          1           0       -3.715927  -91.820510  123.693607
     61          1           0       -4.193036  -89.551597  123.282998
     62          1           0       -3.104684  -88.995532  124.404076
 ---------------------------------------------------------------------
 Rotational constants (GHZ):           0.2446950           0.0805412           0.0683798
 Standard basis: 6-31G(d) (6D, 7F)
   527 basis functions,   992 primitive gaussians,   527 cartesian basis functions
   117 alpha electrons      117 beta electrons
       nuclear repulsion energy      3421.0950023476 Hartrees.
 NAtoms=   62 NActive=   62 NUniq=   62 SFac= 1.00D+00 NAtFMM=   60 NAOKFM=T Big=T
 Integral buffers will be    131072 words long.
 Raffenetti 2 integral format.
 Two-electron integral symmetry is turned off.
 Nuclear repulsion after empirical dispersion term =     3421.0063829042 Hartrees.
 One-electron integrals computed using PRISM.
 NBasis=   527 RedAO= T EigKep=  4.34D-04  NBF=   527
 NBsUse=   527 1.00D-06 EigRej= -1.00D+00 NBFU=   527
 Initial guess from the checkpoint file:  "conf-370.chk"
 B after Tr=     0.000000    0.000000    0.000000
         Rot=    1.000000    0.000000    0.000000    0.000000 Ang=   0.00 deg.
 Requested convergence on RMS density matrix=1.00D-08 within 128 cycles.
 Requested convergence on MAX density matrix=1.00D-06.
 Requested convergence on             energy=1.00D-06.
 No special actions if energy rises.
 SCF Done:  E(RB3LYP) =  -1526.29748061     A.U. after    3 cycles
            NFock=  3  Conv=0.10D-08     -V/T= 2.0093

 **********************************************************************

            Population analysis using the SCF Density.

 **********************************************************************

 Alpha  occ. eigenvalues --  -19.32006 -19.27040 -19.24909 -19.24809 -19.24270
 Alpha  occ. eigenvalues --  -19.24043 -19.22740 -14.57613 -14.54455 -14.49140
 Alpha  occ. eigenvalues --  -14.47386 -10.45273 -10.42733 -10.41923 -10.39660
 Alpha  occ. eigenvalues --  -10.38473 -10.36528 -10.36086 -10.34355 -10.32710
 Alpha  occ. eigenvalues --  -10.31779 -10.31473 -10.31133 -10.31113 -10.30335
 Alpha  occ. eigenvalues --  -10.28199 -10.26230 -10.26094 -10.25572 -10.25512
 Alpha  occ. eigenvalues --  -10.24852  -1.23424  -1.17668  -1.17183  -1.14744
 Alpha  occ. eigenvalues --   -1.14356  -1.12633  -1.12165  -1.09840  -1.08186
 Alpha  occ. eigenvalues --   -1.05208  -1.03999  -0.93150  -0.92653  -0.92363
 Alpha  occ. eigenvalues --   -0.89298  -0.87776  -0.84970  -0.83342  -0.81354
 Alpha  occ. eigenvalues --   -0.80593  -0.77447  -0.76425  -0.75246  -0.73837
 Alpha  occ. eigenvalues --   -0.72077  -0.71740  -0.71444  -0.70827  -0.69369
 Alpha  occ. eigenvalues --   -0.69015  -0.68780  -0.67786  -0.65754  -0.65462
 Alpha  occ. eigenvalues --   -0.64511  -0.63801  -0.62445  -0.61598  -0.60900
 Alpha  occ. eigenvalues --   -0.60728  -0.59652  -0.59552  -0.58895  -0.57814
 Alpha  occ. eigenvalues --   -0.57235  -0.56833  -0.56206  -0.55608  -0.54941
 Alpha  occ. eigenvalues --   -0.54784  -0.53985  -0.53742  -0.53580  -0.52981
 Alpha  occ. eigenvalues --   -0.52194  -0.52014  -0.51407  -0.50377  -0.50163
 Alpha  occ. eigenvalues --   -0.49812  -0.48969  -0.48707  -0.48569  -0.47866
 Alpha  occ. eigenvalues --   -0.47631  -0.47208  -0.46794  -0.46400  -0.46185
 Alpha  occ. eigenvalues --   -0.45755  -0.45225  -0.44372  -0.44123  -0.42649
 Alpha  occ. eigenvalues --   -0.40787  -0.40207  -0.40173  -0.39879  -0.39552
 Alpha  occ. eigenvalues --   -0.39430  -0.38447  -0.37893  -0.36882  -0.35488
 Alpha  occ. eigenvalues --   -0.31770  -0.28423
 Alpha virt. eigenvalues --   -0.13354  -0.12854  -0.10330  -0.09581  -0.08120
 Alpha virt. eigenvalues --   -0.06770  -0.06693  -0.05791  -0.05356  -0.03036
 Alpha virt. eigenvalues --   -0.01559  -0.01159  -0.00793   0.00027   0.00931
 Alpha virt. eigenvalues --    0.01024   0.01142   0.02073   0.02222   0.02676
 Alpha virt. eigenvalues --    0.02786   0.03110   0.03408   0.03902   0.04001
 Alpha virt. eigenvalues --    0.04812   0.05173   0.05317   0.06181   0.06688
 Alpha virt. eigenvalues --    0.06927   0.07110   0.07448   0.08107   0.08726
 Alpha virt. eigenvalues --    0.08772   0.09426   0.10183   0.10410   0.10747
 Alpha virt. eigenvalues --    0.11565   0.11670   0.12302   0.13037   0.13349
 Alpha virt. eigenvalues --    0.13767   0.14450   0.14559   0.15435   0.16038
 Alpha virt. eigenvalues --    0.16695   0.17556   0.18120   0.19040   0.19093
 Alpha virt. eigenvalues --    0.22206   0.22646   0.23377   0.24876   0.25141
 Alpha virt. eigenvalues --    0.26717   0.27415   0.28095   0.29290   0.29716
 Alpha virt. eigenvalues --    0.30463   0.30789   0.35453   0.36636   0.37833
 Alpha virt. eigenvalues --    0.38110   0.38812   0.39921   0.40158   0.40927
 Alpha virt. eigenvalues --    0.41338   0.42582   0.43238   0.44195   0.44799
 Alpha virt. eigenvalues --    0.45207   0.45821   0.45934   0.46275   0.46493
 Alpha virt. eigenvalues --    0.47258   0.47603   0.47914   0.49408   0.49697
 Alpha virt. eigenvalues --    0.50282   0.50359   0.51429   0.51623   0.51819
 Alpha virt. eigenvalues --    0.52255   0.52606   0.53625   0.53891   0.54371
 Alpha virt. eigenvalues --    0.54493   0.54972   0.55266   0.55970   0.56124
 Alpha virt. eigenvalues --    0.56674   0.57182   0.58337   0.58482   0.58682
 Alpha virt. eigenvalues --    0.59129   0.59655   0.60424   0.61636   0.61999
 Alpha virt. eigenvalues --    0.62392   0.62750   0.63673   0.64297   0.64964
 Alpha virt. eigenvalues --    0.65817   0.66659   0.67712   0.68006   0.69184
 Alpha virt. eigenvalues --    0.69479   0.69647   0.71262   0.71446   0.71677
 Alpha virt. eigenvalues --    0.72260   0.73254   0.73416   0.74239   0.74306
 Alpha virt. eigenvalues --    0.74649   0.75177   0.75367   0.75935   0.76187
 Alpha virt. eigenvalues --    0.76475   0.76656   0.77688   0.78196   0.79057
 Alpha virt. eigenvalues --    0.79350   0.79933   0.80281   0.80694   0.81138
 Alpha virt. eigenvalues --    0.81682   0.82092   0.82386   0.82787   0.83093
 Alpha virt. eigenvalues --    0.84150   0.84356   0.85025   0.85311   0.85634
 Alpha virt. eigenvalues --    0.85985   0.86845   0.88078   0.89081   0.89370
 Alpha virt. eigenvalues --    0.90096   0.90963   0.91340   0.92116   0.93054
 Alpha virt. eigenvalues --    0.93296   0.93981   0.95234   0.96313   0.97623
 Alpha virt. eigenvalues --    0.98084   0.98943   0.99568   1.00170   1.01106
 Alpha virt. eigenvalues --    1.01590   1.03202   1.05108   1.05627   1.05947
 Alpha virt. eigenvalues --    1.07394   1.07651   1.08101   1.09336   1.10771
 Alpha virt. eigenvalues --    1.11464   1.12324   1.13440   1.14287   1.15240
 Alpha virt. eigenvalues --    1.15811   1.17798   1.19006   1.19780   1.20642
 Alpha virt. eigenvalues --    1.21913   1.22832   1.23901   1.24558   1.26077
 Alpha virt. eigenvalues --    1.26753   1.27722   1.28747   1.29464   1.29724
 Alpha virt. eigenvalues --    1.30787   1.31816   1.33414   1.34153   1.34438
 Alpha virt. eigenvalues --    1.34990   1.36741   1.37993   1.38475   1.39058
 Alpha virt. eigenvalues --    1.39632   1.39991   1.41960   1.43957   1.44307
 Alpha virt. eigenvalues --    1.45025   1.46758   1.47604   1.49169   1.50447
 Alpha virt. eigenvalues --    1.51521   1.53669   1.54013   1.55647   1.55993
 Alpha virt. eigenvalues --    1.57260   1.58538   1.58984   1.60726   1.60858
 Alpha virt. eigenvalues --    1.61923   1.62976   1.63347   1.65050   1.65766
 Alpha virt. eigenvalues --    1.66400   1.67072   1.67358   1.67708   1.68855
 Alpha virt. eigenvalues --    1.69331   1.70237   1.70486   1.71831   1.72020
 Alpha virt. eigenvalues --    1.72412   1.72657   1.73532   1.73792   1.74319
 Alpha virt. eigenvalues --    1.74590   1.77255   1.77748   1.78759   1.79191
 Alpha virt. eigenvalues --    1.80446   1.80711   1.81537   1.82096   1.82612
 Alpha virt. eigenvalues --    1.83248   1.83596   1.84221   1.85467   1.86331
 Alpha virt. eigenvalues --    1.86932   1.87658   1.88152   1.88765   1.89320
 Alpha virt. eigenvalues --    1.89844   1.89951   1.90725   1.90956   1.91358
 Alpha virt. eigenvalues --    1.92163   1.92652   1.93242   1.94615   1.95964
 Alpha virt. eigenvalues --    1.96981   1.97458   1.98703   1.98837   2.00234
 Alpha virt. eigenvalues --    2.00567   2.01012   2.01593   2.02435   2.04633
 Alpha virt. eigenvalues --    2.05615   2.06664   2.07744   2.08930   2.09661
 Alpha virt. eigenvalues --    2.10679   2.11551   2.12629   2.14545   2.16510
 Alpha virt. eigenvalues --    2.18424   2.19263   2.20199   2.20881   2.21898
 Alpha virt. eigenvalues --    2.22353   2.23271   2.24516   2.25101   2.26172
 Alpha virt. eigenvalues --    2.27184   2.27947   2.29308   2.29701   2.30157
 Alpha virt. eigenvalues --    2.30478   2.32976   2.33244   2.33503   2.33906
 Alpha virt. eigenvalues --    2.35038   2.36208   2.37216   2.38569   2.41032
 Alpha virt. eigenvalues --    2.41678   2.43898   2.45913   2.47013   2.47324
 Alpha virt. eigenvalues --    2.49170   2.49768   2.50228   2.52332   2.53539
 Alpha virt. eigenvalues --    2.54857   2.55047   2.55288   2.57151   2.58329
 Alpha virt. eigenvalues --    2.58979   2.59340   2.59944   2.60277   2.62650
 Alpha virt. eigenvalues --    2.64062   2.65714   2.66891   2.69598   2.70739
 Alpha virt. eigenvalues --    2.72165   2.76594   2.78112   2.80006   2.81591
 Alpha virt. eigenvalues --    2.83016   2.83331   2.84598   2.86523   2.88995
 Alpha virt. eigenvalues --    2.90479   2.91788   2.93563   2.97321   2.99288
 Alpha virt. eigenvalues --    3.00792   3.05495   3.08801   3.35003   3.69082
 Alpha virt. eigenvalues --    3.80705   3.83804   3.87831   3.93222   3.94285
 Alpha virt. eigenvalues --    3.95038   4.00772   4.03869   4.04338   4.05858
 Alpha virt. eigenvalues --    4.08857   4.12724   4.14373   4.15845   4.18054
 Alpha virt. eigenvalues --    4.18840   4.19795   4.22811   4.26655   4.27903
 Alpha virt. eigenvalues --    4.30558   4.33212   4.39790   4.42104   4.43179
 Alpha virt. eigenvalues --    4.45108   4.54925   4.57127   4.62515   4.69592
          Condensed to atoms (all electrons):
 Mulliken charges:
               1
     1  N   -0.784610
     2  C   -0.146880
     3  C    0.623548
     4  O   -0.494325
     5  C   -0.281284
     6  C   -0.363452
     7  C    0.605694
     8  O   -0.628647
     9  O   -0.554245
    10  H    0.436031
    11  H    0.440693
    12  H    0.257472
    13  H    0.176572
    14  H    0.218741
    15  H    0.169102
    16  H    0.201454
    17  H    0.398877
    18  H    0.394907
    19  N   -0.595521
    20  C   -0.074593
    21  C    0.637713
    22  O   -0.517450
    23  C   -0.366920
    24  C    0.139336
    25  C   -0.189643
    26  C   -0.189072
    27  C   -0.191321
    28  C   -0.160706
    29  C    0.355200
    30  O   -0.632722
    31  H    0.316973
    32  H    0.201029
    33  H    0.164835
    34  H    0.166801
    35  H    0.131334
    36  H    0.157687
    37  H    0.132737
    38  H    0.152781
    39  H    0.414128
    40  N   -0.644626
    41  C    0.012597
    42  C    0.640653
    43  O   -0.497026
    44  C   -0.353734
    45  C   -0.308902
    46  C   -0.294596
    47  C   -0.188755
    48  N   -0.809033
    49  O   -0.606510
    50  H    0.432982
    51  H    0.362857
    52  H    0.210525
    53  H    0.185319
    54  H    0.170166
    55  H    0.181094
    56  H    0.179839
    57  H    0.187146
    58  H    0.190093
    59  H    0.202078
    60  H    0.203947
    61  H    0.393251
    62  H    0.428383
 Sum of Mulliken charges =   1.00000
 Mulliken charges with hydrogens summed into heavy atoms:
               1
     1  N    0.449867
     2  C    0.110592
     3  C    0.623548
     4  O   -0.494325
     5  C    0.114029
     6  C    0.007104
     7  C    0.605694
     8  O   -0.628647
     9  O   -0.554245
    19  N   -0.278549
    20  C    0.126436
    21  C    0.637713
    22  O   -0.517450
    23  C   -0.035284
    24  C    0.139336
    25  C   -0.058309
    26  C   -0.031385
    27  C   -0.058584
    28  C   -0.007925
    29  C    0.355200
    30  O   -0.218594
    40  N   -0.281769
    41  C    0.223122
    42  C    0.640653
    43  O   -0.497026
    44  C    0.001751
    45  C    0.052031
    46  C    0.082643
    47  C    0.217270
    48  N    0.448631
    49  O   -0.173528
 Electronic spatial extent (au):  <R**2>=       20274075.1023
 Charge=              1.0000 electrons
 Dipole moment (field-independent basis, Debye):
    X=            -20.7320    Y=           -425.1210    Z=            612.1924  Tot=            745.6120
 Quadrupole moment (field-independent basis, Debye-Ang):
   XX=            -60.0611   YY=          37467.4672   ZZ=          77905.6063
   XY=           1812.5316   XZ=          -2633.8118   YZ=         -54153.0041
 Traceless Quadrupole moment (field-independent basis, Debye-Ang):
   XX=         -38497.7319   YY=           -970.2036   ZZ=          39467.9354
   XY=           1812.5316   XZ=          -2633.8118   YZ=         -54153.0041
 Octapole moment (field-independent basis, Debye-Ang**2):
  XXX=            646.2105  YYY=       -3288492.3201  ZZZ=        9897933.9390  XYY=        -158104.3088
  XXY=           5332.7652  XXZ=          -7787.9397  XZZ=        -334183.2610  YZZ=       -6887545.9892
  YYZ=        4769720.1676  XYZ=         230158.6031
 Hexadecapole moment (field-independent basis, Debye-Ang**3):
 XXXX=         -10145.9514 YYYY=      287442902.6739 ZZZZ=     1255394974.3224 XXXY=         -58544.8321
 XXXZ=          81388.8400 YYYX=       13758060.8665 YYYZ=     -418348831.2416 ZZZX=      -42347130.4802
 ZZZY=     -874600082.4775 XXYY=        -476224.6178 XXZZ=       -1012865.5775 YYZZ=      606270791.1372
 XXYZ=         691027.9840 YYXZ=      -20066782.3542 ZZXY=       29188922.1229
 N-N= 3.421006382904D+03 E-N=-1.037541228934D+04  KE= 1.512222435035D+03
 Unable to Open any file for archive entry.
 1\1\GINC-VIM-000\SP\RB3LYP\6-31G(d)\C20H31N4O7(1+)\KENGMITH\24-May-202
 2\0\\# B3LYP/6-31G* empiricaldispersion=gd3 guess=read geom=check nosy
 mm integral(ultrafinegrid)\\Candidate Structure: Conf:370 Charge calc 
 in gas phase\\1,1\N,0,-5.9466075656,-86.5427127265,128.3880553058\C,0,
 -5.4176363793,-87.807230284,129.0274045527\C,0,-4.4652831818,-87.66493
 48339,130.2198282645\O,0,-4.1085016842,-88.7029206289,130.761123478\C,
 0,-6.5147120929,-88.8654953086,129.1111355729\C,0,-7.1558373949,-89.17
 29615558,127.7214932466\C,0,-6.1538653492,-89.0003981207,126.569400784
 2\O,0,-5.9580039098,-87.7944143579,126.1564526757\O,0,-5.5360579416,-9
 0.0017912153,126.1427136421\H,0,-4.506389413,-89.8069534803,124.936834
 5007\H,0,-6.1979280541,-86.8773591839,127.3643034276\H,0,-4.6934010367
 ,-88.1504336659,128.2878177052\H,0,-7.2914988627,-88.5800614919,129.83
 01541237\H,0,-6.0267265457,-89.7572227622,129.5104646642\H,0,-7.999047
 2474,-88.4988226074,127.5363426402\H,0,-7.5386418914,-90.1951057302,12
 7.7228825352\H,0,-6.7440799672,-86.1335676534,128.8818883471\H,0,-5.21
 39801678,-85.8379690553,128.2683321793\N,0,-3.8478882522,-86.461673774
 5,130.4341013448\C,0,-2.3814965254,-86.4459593155,130.6845453757\C,0,-
 1.7687766229,-86.6858766527,129.2790267656\O,0,-1.4773624471,-85.77206
 26591,128.5191035406\C,0,-1.9205509073,-85.1258342761,131.3050688841\C
 ,0,-0.4659650553,-85.1949132901,131.7224146937\C,0,-0.1157933507,-85.6
 626766921,132.9941996446\C,0,0.5632323964,-84.8363512158,130.838610253
 7\C,0,1.2187499158,-85.7699142849,133.3821860874\C,0,1.8988566785,-84.
 9373548314,131.2121720733\C,0,2.2331472125,-85.4056472411,132.48878814
 66\O,0,3.5585711133,-85.4818393349,132.7966408201\H,0,-4.1616515303,-8
 5.6447714412,129.9258138172\H,0,-2.1688406933,-87.2753514749,131.36076
 27285\H,0,-2.0709107391,-84.322595777,130.5743500333\H,0,-2.5617323895
 ,-84.920580792,132.1695517896\H,0,-0.8948779731,-85.9396573066,133.701
 6036109\H,0,0.3105355933,-84.4810137426,129.8442521175\H,0,1.471407677
 9,-86.1271469321,134.3784179087\H,0,2.6973407184,-84.6531003887,130.53
 45345553\H,0,3.6646689571,-85.7893943695,133.7104374637\N,0,-1.7585714
 707,-87.9946682279,128.8873135127\C,0,-1.4970957602,-88.4076078714,127
 .5203978761\C,0,-2.3320932387,-87.6844411271,126.4652996816\O,0,-2.065
 9744384,-87.7453041067,125.2752517087\C,0,-1.9019721473,-89.9065093404
 ,127.3851967854\C,0,-1.4140789418,-90.6179448855,126.0985252377\C,0,-2
 .4757769047,-91.5512008761,125.4531379401\C,0,-3.0058668075,-91.091899
 5721,124.0928508689\N,0,-3.7431481613,-89.7776518195,124.1739960504\O,
 0,-3.4882947222,-87.1762312957,126.9136342785\H,0,-4.1719908518,-87.17
 93433076,126.195444124\H,0,-2.0669884715,-88.6989909628,129.5464253769
 \H,0,-0.4445603528,-88.2634251975,127.256764832\H,0,-1.5084901871,-90.
 43163813,128.2630582365\H,0,-2.9963203058,-89.9608441503,127.463728327
 6\H,0,-0.5229853234,-91.2034560425,126.3426501028\H,0,-1.0800667199,-8
 9.8750944962,125.3677564869\H,0,-2.0468931024,-92.5441531211,125.28020
 75265\H,0,-3.3266411432,-91.7028270247,126.1276729953\H,0,-2.195016657
 4,-90.9632774866,123.3699778979\H,0,-3.7159270774,-91.8205096936,123.6
 936072127\H,0,-4.1930362776,-89.5515966176,123.2829984116\H,0,-3.10468
 39188,-88.9955324619,124.4040764286\\Version=ES64L-G16RevC.01\HF=-1526
 .2974806\RMSD=1.019e-09\Dipole=-3.2560477,-1.5865978,-2.2543458\Quadru
 pole=-28622.1200856,-721.3225784,29343.442664,1347.5728364,-1958.17452
 68,-40261.4312961\PG=C01 [X(C20H31N4O7)]\\@
 The archive entry for this job was punched.


 KNOWLEDGE IS OF TWO KINDS:  WE KNOW A SUBJECT OURSELVES OR WE KNOW 
 WHERE WE CAN FIND INFORMATION UPON IT.

                                    -- SAMUEL JOHNSON
 Job cpu time:       0 days  0 hours  3 minutes 39.8 seconds.
 Elapsed time:       0 days  0 hours  0 minutes 55.5 seconds.
 File lengths (MBytes):  RWF=    264 Int=      0 D2E=      0 Chk=     40 Scr=     16
 Normal termination of Gaussian 16 at Tue May 24 19:13:53 2022.
