 Entering Gaussian System, Link 0=/opt/software/Gaussian/g16-AVX2-C.01/g16/g16
 Input=charge-conf-205.com
 Output=charge-conf-205.log
 Initial command:
 /opt/software/Gaussian/g16-AVX2-C.01/g16/l1.exe "/mnt/gs18/scratch/users/kengmith/Gau-5294.inp" -scrdir="/mnt/gs18/scratch/users/kengmith/"
 Entering Link 1 = /opt/software/Gaussian/g16-AVX2-C.01/g16/l1.exe PID=      5322.
  
 Copyright (c) 1988-2019, Gaussian, Inc.  All Rights Reserved.
  
 This is part of the Gaussian(R) 16 program.  It is based on
 the Gaussian(R) 09 system (copyright 2009, Gaussian, Inc.),
 the Gaussian(R) 03 system (copyright 2003, Gaussian, Inc.),
 the Gaussian(R) 98 system (copyright 1998, Gaussian, Inc.),
 the Gaussian(R) 94 system (copyright 1995, Gaussian, Inc.),
 the Gaussian 92(TM) system (copyright 1992, Gaussian, Inc.),
 the Gaussian 90(TM) system (copyright 1990, Gaussian, Inc.),
 the Gaussian 88(TM) system (copyright 1988, Gaussian, Inc.),
 the Gaussian 86(TM) system (copyright 1986, Carnegie Mellon
 University), and the Gaussian 82(TM) system (copyright 1983,
 Carnegie Mellon University). Gaussian is a federally registered
 trademark of Gaussian, Inc.
  
 This software contains proprietary and confidential information,
 including trade secrets, belonging to Gaussian, Inc.
  
 This software is provided under written license and may be
 used, copied, transmitted, or stored only in accord with that
 written license.
  
 The following legend is applicable only to US Government
 contracts under FAR:
  
                    RESTRICTED RIGHTS LEGEND
  
 Use, reproduction and disclosure by the US Government is
 subject to restrictions as set forth in subparagraphs (a)
 and (c) of the Commercial Computer Software - Restricted
 Rights clause in FAR 52.227-19.
  
 Gaussian, Inc.
 340 Quinnipiac St., Bldg. 40, Wallingford CT 06492
  
  
 ---------------------------------------------------------------
 Warning -- This program may not be used in any manner that
 competes with the business of Gaussian, Inc. or will provide
 assistance to any competitor of Gaussian, Inc.  The licensee
 of this program is prohibited from giving any competitor of
 Gaussian, Inc. access to this program.  By using this program,
 the user acknowledges that Gaussian, Inc. is engaged in the
 business of creating and licensing software in the field of
 computational chemistry and represents and warrants to the
 licensee that it is not a competitor of Gaussian, Inc. and that
 it will not use this program in any manner prohibited above.
 ---------------------------------------------------------------
  

 Cite this work as:
 Gaussian 16, Revision C.01,
 M. J. Frisch, G. W. Trucks, H. B. Schlegel, G. E. Scuseria, 
 M. A. Robb, J. R. Cheeseman, G. Scalmani, V. Barone, 
 G. A. Petersson, H. Nakatsuji, X. Li, M. Caricato, A. V. Marenich, 
 J. Bloino, B. G. Janesko, R. Gomperts, B. Mennucci, H. P. Hratchian, 
 J. V. Ortiz, A. F. Izmaylov, J. L. Sonnenberg, D. Williams-Young, 
 F. Ding, F. Lipparini, F. Egidi, J. Goings, B. Peng, A. Petrone, 
 T. Henderson, D. Ranasinghe, V. G. Zakrzewski, J. Gao, N. Rega, 
 G. Zheng, W. Liang, M. Hada, M. Ehara, K. Toyota, R. Fukuda, 
 J. Hasegawa, M. Ishida, T. Nakajima, Y. Honda, O. Kitao, H. Nakai, 
 T. Vreven, K. Throssell, J. A. Montgomery, Jr., J. E. Peralta, 
 F. Ogliaro, M. J. Bearpark, J. J. Heyd, E. N. Brothers, K. N. Kudin, 
 V. N. Staroverov, T. A. Keith, R. Kobayashi, J. Normand, 
 K. Raghavachari, A. P. Rendell, J. C. Burant, S. S. Iyengar, 
 J. Tomasi, M. Cossi, J. M. Millam, M. Klene, C. Adamo, R. Cammi, 
 J. W. Ochterski, R. L. Martin, K. Morokuma, O. Farkas, 
 J. B. Foresman, and D. J. Fox, Gaussian, Inc., Wallingford CT, 2019.
 
 ******************************************
 Gaussian 16:  ES64L-G16RevC.01  3-Jul-2019
                24-May-2022 
 ******************************************
 %mem=8gb
 %nproc=4
 Will use up to    4 processors via shared memory.
 %chk=conf-205.chk
 ----------------------------------------------------------------------
 # B3LYP/6-31G* empiricaldispersion=gd3 guess=read geom=check nosymm in
 tegral(ultrafinegrid)
 ----------------------------------------------------------------------
 1/29=2,38=1,172=1/1;
 2/12=2,15=1,40=1/2;
 3/5=1,6=6,7=1,11=2,14=-4,25=1,30=1,74=-5,75=-5,116=-2,124=31/1,2,3;
 4/5=1/1;
 5/5=2,38=6/2;
 6/7=2,8=2,9=2,10=2,28=1/1;
 99/5=1,9=1/99;
 ------------------------------------------------------
 Candidate Structure: Conf:205 Charge calc in gas phase
 ------------------------------------------------------
 Structure from the checkpoint file:  "conf-205.chk"
 Charge =  1 Multiplicity = 1
 Redundant internal coordinates found in file.  (old form).
 N,0,-5.5433844598,-86.311948971,130.5393827075
 C,0,-5.3055824293,-87.4477408601,129.5490431923
 C,0,-4.0499769179,-88.2505417744,129.9507022171
 O,0,-4.1191415076,-89.3338352285,130.5069498038
 C,0,-6.5705238141,-88.2911176563,129.4035576365
 C,0,-7.8540982268,-87.459648878,129.1110488175
 C,0,-7.5036488579,-86.3737535553,128.1103070256
 O,0,-6.9163704343,-85.3410185734,128.476582571
 O,0,-7.71606132,-86.6892634514,126.8638779898
 H,0,-7.0731720654,-86.1437277453,126.2336278609
 H,0,-6.1896035956,-85.6451876449,130.0238251189
 H,0,-5.0941390114,-86.920224126,128.6166410752
 H,0,-6.7015825516,-88.9080247409,130.2984010463
 H,0,-6.3851203545,-88.9859323825,128.5784598722
 H,0,-8.2339592763,-86.9903770486,130.0245449723
 H,0,-8.631221193,-88.1191745105,128.7209520907
 H,0,-5.9714755785,-86.6475701634,131.4088833477
 H,0,-4.6681657505,-85.8353721539,130.7827246448
 N,0,-2.9127763297,-87.5964643953,129.607107215
 C,0,-1.5609337494,-88.1905386378,129.6978570209
 C,0,-0.7549082327,-87.2999752329,128.7322258695
 O,0,-0.0579489067,-86.3721133931,129.1137120867
 C,0,-0.9908359834,-88.1977433844,131.1228049675
 C,0,0.2696057392,-89.0310506543,131.199709847
 C,0,1.5342511663,-88.4596055562,131.0188600943
 C,0,0.1874096951,-90.4165155961,131.407424574
 C,0,2.6864184784,-89.2440030509,131.0529163788
 C,0,1.3274662428,-91.2114349257,131.4405335055
 C,0,2.5868867397,-90.6240760245,131.264392483
 O,0,3.6693503219,-91.4507441261,131.3097269751
 H,0,-2.9822995689,-86.7536318296,129.0430960448
 H,0,-1.6264793404,-89.2224907906,129.3316050182
 H,0,-0.8013574364,-87.1625464009,131.4225241035
 H,0,-1.7624289334,-88.6123304116,131.7801576235
 H,0,1.6175242681,-87.3918132832,130.8403281979
 H,0,-0.7865687968,-90.879157125,131.5554614123
 H,0,3.6630142212,-88.7833642881,130.9178766261
 H,0,1.2681410692,-92.281471796,131.6106626406
 H,0,4.4813648525,-90.9310830213,131.2025689204
 N,0,-1.0622626182,-87.4784580818,127.4114331814
 C,0,-0.7665174967,-86.4252182675,126.4540905011
 C,0,-1.3689766252,-85.0775426684,126.858962886
 O,0,-0.9562315514,-84.0141960538,126.483383601
 C,0,-1.2241401009,-86.7779021606,125.0170483234
 C,0,-2.7162190506,-86.5778141981,124.6903145886
 C,0,-3.6975451415,-87.4541480788,125.4787188415
 C,0,-5.169326624,-87.2253510559,125.1165131986
 N,0,-5.6898642179,-85.8730753098,125.4680918259
 O,0,-2.5169345967,-85.1700209019,127.6300017613
 H,0,-2.7568333288,-84.2400186136,127.8103034532
 H,0,-1.6432836202,-88.2548160379,127.1304475673
 H,0,0.3129062839,-86.2500518146,126.4455511607
 H,0,-0.6425905148,-86.1451819039,124.3399003851
 H,0,-0.9211744283,-87.8130042012,124.8136907
 H,0,-2.8496956397,-86.7792719116,123.6197084532
 H,0,-2.9723375119,-85.5190035908,124.8289242782
 H,0,-3.4674307382,-88.5151157485,125.3068077265
 H,0,-3.5786496858,-87.2769320275,126.5563466641
 H,0,-5.3331955416,-87.3859076209,124.0463266279
 H,0,-5.7885456093,-87.9615834495,125.6421962179
 H,0,-5.6972260283,-85.2515795901,124.6620675844
 H,0,-5.0993645059,-85.4263995953,126.170590118
 Recover connectivity data from disk.
                           ----------------------------
                           !    Current Parameters    !
                           ! (Angstroms and Degrees)  !
 --------------------------                            --------------------------
 ! Name  Definition              Value                                          !
 --------------------------------------------------------------------------------
 ! R1    R(1,2)                  1.5256                                         !
 ! R2    R(1,11)                 1.0621                                         !
 ! R3    R(1,17)                 1.0256                                         !
 ! R4    R(1,18)                 1.0258                                         !
 ! R5    R(2,3)                  1.5435                                         !
 ! R6    R(2,5)                  1.5273                                         !
 ! R7    R(2,12)                 1.092                                          !
 ! R8    R(3,4)                  1.2197                                         !
 ! R9    R(3,19)                 1.3561                                         !
 ! R10   R(5,6)                  1.5571                                         !
 ! R11   R(5,13)                 1.0948                                         !
 ! R12   R(5,14)                 1.0945                                         !
 ! R13   R(6,7)                  1.5177                                         !
 ! R14   R(6,15)                 1.095                                          !
 ! R15   R(6,16)                 1.0914                                         !
 ! R16   R(7,8)                  1.2432                                         !
 ! R17   R(7,9)                  1.3032                                         !
 ! R18   R(9,10)                 1.0527                                         !
 ! R19   R(19,20)                1.4794                                         !
 ! R20   R(19,31)                1.0165                                         !
 ! R21   R(20,21)                1.5412                                         !
 ! R22   R(20,23)                1.5348                                         !
 ! R23   R(20,32)                1.097                                          !
 ! R24   R(21,22)                1.2216                                         !
 ! R25   R(21,40)                1.3678                                         !
 ! R26   R(23,24)                1.513                                          !
 ! R27   R(23,33)                1.0942                                         !
 ! R28   R(23,34)                1.0951                                         !
 ! R29   R(24,25)                1.3995                                         !
 ! R30   R(24,26)                1.4034                                         !
 ! R31   R(25,27)                1.3942                                         !
 ! R32   R(25,35)                1.0858                                         !
 ! R33   R(26,28)                1.3902                                         !
 ! R34   R(26,36)                1.0884                                         !
 ! R35   R(27,29)                1.3997                                         !
 ! R36   R(27,37)                1.0882                                         !
 ! R37   R(28,29)                1.4008                                         !
 ! R38   R(28,38)                1.0851                                         !
 ! R39   R(29,30)                1.3628                                         !
 ! R40   R(30,39)                0.97                                           !
 ! R41   R(40,41)                1.4537                                         !
 ! R42   R(40,51)                1.0096                                         !
 ! R43   R(41,42)                1.5307                                         !
 ! R44   R(41,44)                1.5488                                         !
 ! R45   R(41,52)                1.0936                                         !
 ! R46   R(42,43)                1.2009                                         !
 ! R47   R(42,49)                1.386                                          !
 ! R48   R(44,45)                1.5405                                         !
 ! R49   R(44,53)                1.0941                                         !
 ! R50   R(44,54)                1.0975                                         !
 ! R51   R(45,46)                1.5338                                         !
 ! R52   R(45,55)                1.0975                                         !
 ! R53   R(45,56)                1.0981                                         !
 ! R54   R(46,47)                1.5329                                         !
 ! R55   R(46,57)                1.0992                                         !
 ! R56   R(46,58)                1.0986                                         !
 ! R57   R(47,48)                1.491                                          !
 ! R58   R(47,59)                1.0945                                         !
 ! R59   R(47,60)                1.0963                                         !
 ! R60   R(48,61)                1.0178                                         !
 ! R61   R(48,62)                1.0206                                         !
 ! R62   R(49,50)                0.9772                                         !
 ! A1    A(2,1,11)             104.3073                                         !
 ! A2    A(2,1,17)             111.825                                          !
 ! A3    A(2,1,18)             111.523                                          !
 ! A4    A(11,1,17)            111.2848                                         !
 ! A5    A(11,1,18)            110.0361                                         !
 ! A6    A(17,1,18)            107.8802                                         !
 ! A7    A(1,2,3)              110.1883                                         !
 ! A8    A(1,2,5)              110.1123                                         !
 ! A9    A(1,2,12)             102.9927                                         !
 ! A10   A(3,2,5)              114.2886                                         !
 ! A11   A(3,2,12)             108.4182                                         !
 ! A12   A(5,2,12)             110.2313                                         !
 ! A13   A(2,3,4)              122.3094                                         !
 ! A14   A(2,3,19)             111.43                                           !
 ! A15   A(4,3,19)             126.2606                                         !
 ! A16   A(2,5,6)              113.9399                                         !
 ! A17   A(2,5,13)             109.4186                                         !
 ! A18   A(2,5,14)             106.3838                                         !
 ! A19   A(6,5,13)             110.8412                                         !
 ! A20   A(6,5,14)             109.6952                                         !
 ! A21   A(13,5,14)            106.1853                                         !
 ! A22   A(5,6,7)              108.3961                                         !
 ! A23   A(5,6,15)             110.984                                          !
 ! A24   A(5,6,16)             109.3563                                         !
 ! A25   A(7,6,15)             108.8784                                         !
 ! A26   A(7,6,16)             111.1683                                         !
 ! A27   A(15,6,16)            108.069                                          !
 ! A28   A(6,7,8)              120.6077                                         !
 ! A29   A(6,7,9)              114.8221                                         !
 ! A30   A(8,7,9)              124.0494                                         !
 ! A31   A(7,9,10)             110.3423                                         !
 ! A32   A(3,19,20)            123.851                                          !
 ! A33   A(3,19,31)            118.8898                                         !
 ! A34   A(20,19,31)           115.4347                                         !
 ! A35   A(19,20,21)           101.9713                                         !
 ! A36   A(19,20,23)           113.4696                                         !
 ! A37   A(19,20,32)           107.6186                                         !
 ! A38   A(21,20,23)           112.9647                                         !
 ! A39   A(21,20,32)           111.4478                                         !
 ! A40   A(23,20,32)           109.1329                                         !
 ! A41   A(20,21,22)           122.7953                                         !
 ! A42   A(20,21,40)           114.3372                                         !
 ! A43   A(22,21,40)           121.9306                                         !
 ! A44   A(20,23,24)           111.0533                                         !
 ! A45   A(20,23,33)           108.3116                                         !
 ! A46   A(20,23,34)           107.2988                                         !
 ! A47   A(24,23,33)           111.2771                                         !
 ! A48   A(24,23,34)           110.3618                                         !
 ! A49   A(33,23,34)           108.4049                                         !
 ! A50   A(23,24,25)           121.4236                                         !
 ! A51   A(23,24,26)           120.1647                                         !
 ! A52   A(25,24,26)           118.3705                                         !
 ! A53   A(24,25,27)           120.9219                                         !
 ! A54   A(24,25,35)           119.4784                                         !
 ! A55   A(27,25,35)           119.5971                                         !
 ! A56   A(24,26,28)           121.332                                          !
 ! A57   A(24,26,36)           119.4851                                         !
 ! A58   A(28,26,36)           119.1803                                         !
 ! A59   A(25,27,29)           119.9752                                         !
 ! A60   A(25,27,37)           120.0294                                         !
 ! A61   A(29,27,37)           119.9952                                         !
 ! A62   A(26,28,29)           119.64                                           !
 ! A63   A(26,28,38)           121.5172                                         !
 ! A64   A(29,28,38)           118.8398                                         !
 ! A65   A(27,29,28)           119.7592                                         !
 ! A66   A(27,29,30)           123.1363                                         !
 ! A67   A(28,29,30)           117.1045                                         !
 ! A68   A(29,30,39)           109.6506                                         !
 ! A69   A(21,40,41)           119.7139                                         !
 ! A70   A(21,40,51)           119.8958                                         !
 ! A71   A(41,40,51)           119.4022                                         !
 ! A72   A(40,41,42)           112.5583                                         !
 ! A73   A(40,41,44)           112.7013                                         !
 ! A74   A(40,41,52)           108.784                                          !
 ! A75   A(42,41,44)           109.2444                                         !
 ! A76   A(42,41,52)           104.4495                                         !
 ! A77   A(44,41,52)           108.7154                                         !
 ! A78   A(41,42,43)           124.1657                                         !
 ! A79   A(41,42,49)           114.4812                                         !
 ! A80   A(43,42,49)           121.1819                                         !
 ! A81   A(41,44,45)           116.9615                                         !
 ! A82   A(41,44,53)           106.5889                                         !
 ! A83   A(41,44,54)           107.7647                                         !
 ! A84   A(45,44,53)           107.9656                                         !
 ! A85   A(45,44,54)           110.5221                                         !
 ! A86   A(53,44,54)           106.4994                                         !
 ! A87   A(44,45,46)           115.8785                                         !
 ! A88   A(44,45,55)           107.5083                                         !
 ! A89   A(44,45,56)           108.9272                                         !
 ! A90   A(46,45,55)           108.5857                                         !
 ! A91   A(46,45,56)           109.6813                                         !
 ! A92   A(55,45,56)           105.768                                          !
 ! A93   A(45,46,47)           114.052                                          !
 ! A94   A(45,46,57)           109.7037                                         !
 ! A95   A(45,46,58)           110.0485                                         !
 ! A96   A(47,46,57)           107.9465                                         !
 ! A97   A(47,46,58)           108.1574                                         !
 ! A98   A(57,46,58)           106.6471                                         !
 ! A99   A(46,47,48)           114.5099                                         !
 ! A100  A(46,47,59)           110.6649                                         !
 ! A101  A(46,47,60)           109.195                                          !
 ! A102  A(48,47,59)           108.1393                                         !
 ! A103  A(48,47,60)           107.3866                                         !
 ! A104  A(59,47,60)           106.6056                                         !
 ! A105  A(47,48,61)           111.6896                                         !
 ! A106  A(47,48,62)           110.9299                                         !
 ! A107  A(61,48,62)           106.3805                                         !
 ! A108  A(42,49,50)           104.0328                                         !
 ! D1    D(11,1,2,3)           161.5172                                         !
 ! D2    D(11,1,2,5)           -71.515                                          !
 ! D3    D(11,1,2,12)           46.0295                                         !
 ! D4    D(17,1,2,3)           -78.1061                                         !
 ! D5    D(17,1,2,5)            48.8617                                         !
 ! D6    D(17,1,2,12)          166.4062                                         !
 ! D7    D(18,1,2,3)            42.7887                                         !
 ! D8    D(18,1,2,5)           169.7564                                         !
 ! D9    D(18,1,2,12)          -72.699                                          !
 ! D10   D(1,2,3,4)            102.5147                                         !
 ! D11   D(1,2,3,19)           -77.4404                                         !
 ! D12   D(5,2,3,4)            -22.088                                          !
 ! D13   D(5,2,3,19)           157.957                                          !
 ! D14   D(12,2,3,4)          -145.4657                                         !
 ! D15   D(12,2,3,19)           34.5792                                         !
 ! D16   D(1,2,5,6)             50.6956                                         !
 ! D17   D(1,2,5,13)           -74.0027                                         !
 ! D18   D(1,2,5,14)           171.6849                                         !
 ! D19   D(3,2,5,6)            175.3386                                         !
 ! D20   D(3,2,5,13)            50.6404                                         !
 ! D21   D(3,2,5,14)           -63.6721                                         !
 ! D22   D(12,2,5,6)           -62.267                                          !
 ! D23   D(12,2,5,13)          173.0347                                         !
 ! D24   D(12,2,5,14)           58.7222                                         !
 ! D25   D(2,3,19,20)         -171.5319                                         !
 ! D26   D(2,3,19,31)           -7.636                                          !
 ! D27   D(4,3,19,20)            8.5152                                         !
 ! D28   D(4,3,19,31)          172.4111                                         !
 ! D29   D(2,5,6,7)             41.2956                                         !
 ! D30   D(2,5,6,15)           -78.2268                                         !
 ! D31   D(2,5,6,16)           162.6406                                         !
 ! D32   D(13,5,6,7)           165.2299                                         !
 ! D33   D(13,5,6,15)           45.7075                                         !
 ! D34   D(13,5,6,16)          -73.4251                                         !
 ! D35   D(14,5,6,7)           -77.8297                                         !
 ! D36   D(14,5,6,15)          162.6479                                         !
 ! D37   D(14,5,6,16)           43.5153                                         !
 ! D38   D(5,6,7,8)            -78.5694                                         !
 ! D39   D(5,6,7,9)             93.48                                           !
 ! D40   D(15,6,7,8)            42.2661                                         !
 ! D41   D(15,6,7,9)          -145.6845                                         !
 ! D42   D(16,6,7,8)           161.2086                                         !
 ! D43   D(16,6,7,9)           -26.742                                          !
 ! D44   D(6,7,9,10)          -153.3564                                         !
 ! D45   D(8,7,9,10)            18.3827                                         !
 ! D46   D(3,19,20,21)         159.3976                                         !
 ! D47   D(3,19,20,23)         -78.8082                                         !
 ! D48   D(3,19,20,32)          42.0418                                         !
 ! D49   D(31,19,20,21)         -5.0019                                         !
 ! D50   D(31,19,20,23)        116.7923                                         !
 ! D51   D(31,19,20,32)       -122.3577                                         !
 ! D52   D(19,20,21,22)         98.6126                                         !
 ! D53   D(19,20,21,40)        -70.4918                                         !
 ! D54   D(23,20,21,22)        -23.5287                                         !
 ! D55   D(23,20,21,40)        167.367                                          !
 ! D56   D(32,20,21,22)       -146.8222                                         !
 ! D57   D(32,20,21,40)         44.0734                                         !
 ! D58   D(19,20,23,24)        169.7908                                         !
 ! D59   D(19,20,23,33)        -67.7318                                         !
 ! D60   D(19,20,23,34)         49.1015                                         !
 ! D61   D(21,20,23,24)        -74.7684                                         !
 ! D62   D(21,20,23,33)         47.7089                                         !
 ! D63   D(21,20,23,34)        164.5423                                         !
 ! D64   D(32,20,23,24)         49.7975                                         !
 ! D65   D(32,20,23,33)        172.2748                                         !
 ! D66   D(32,20,23,34)        -70.8918                                         !
 ! D67   D(20,21,40,41)        157.9415                                         !
 ! D68   D(20,21,40,51)        -10.6213                                         !
 ! D69   D(22,21,40,41)        -11.2678                                         !
 ! D70   D(22,21,40,51)       -179.8306                                         !
 ! D71   D(20,23,24,25)         91.9051                                         !
 ! D72   D(20,23,24,26)        -85.7203                                         !
 ! D73   D(33,23,24,25)        -28.8377                                         !
 ! D74   D(33,23,24,26)        153.5368                                         !
 ! D75   D(34,23,24,25)       -149.2314                                         !
 ! D76   D(34,23,24,26)         33.1431                                         !
 ! D77   D(23,24,25,27)       -178.0995                                         !
 ! D78   D(23,24,25,35)          1.3222                                         !
 ! D79   D(26,24,25,27)         -0.4327                                         !
 ! D80   D(26,24,25,35)        178.989                                          !
 ! D81   D(23,24,26,28)        177.9705                                         !
 ! D82   D(23,24,26,36)         -2.6297                                         !
 ! D83   D(25,24,26,28)          0.2734                                         !
 ! D84   D(25,24,26,36)        179.6731                                         !
 ! D85   D(24,25,27,29)          0.2871                                         !
 ! D86   D(24,25,27,37)       -179.5463                                         !
 ! D87   D(35,25,27,29)       -179.1339                                         !
 ! D88   D(35,25,27,37)          1.0327                                         !
 ! D89   D(24,26,28,29)          0.0323                                         !
 ! D90   D(24,26,28,38)        179.3883                                         !
 ! D91   D(36,26,28,29)       -179.3692                                         !
 ! D92   D(36,26,28,38)         -0.0133                                         !
 ! D93   D(25,27,29,28)          0.0278                                         !
 ! D94   D(25,27,29,30)       -179.9975                                         !
 ! D95   D(37,27,29,28)        179.8612                                         !
 ! D96   D(37,27,29,30)         -0.164                                          !
 ! D97   D(26,28,29,27)         -0.1851                                         !
 ! D98   D(26,28,29,30)        179.8386                                         !
 ! D99   D(38,28,29,27)       -179.5584                                         !
 ! D100  D(38,28,29,30)          0.4654                                         !
 ! D101  D(27,29,30,39)          1.7106                                         !
 ! D102  D(28,29,30,39)       -178.314                                          !
 ! D103  D(21,40,41,42)        -53.9499                                         !
 ! D104  D(21,40,41,44)       -178.0511                                         !
 ! D105  D(21,40,41,52)         61.3076                                         !
 ! D106  D(51,40,41,42)        114.6695                                         !
 ! D107  D(51,40,41,44)         -9.4316                                         !
 ! D108  D(51,40,41,52)       -130.073                                          !
 ! D109  D(40,41,42,43)        156.736                                          !
 ! D110  D(40,41,42,49)        -27.9853                                         !
 ! D111  D(44,41,42,43)        -77.2732                                         !
 ! D112  D(44,41,42,49)         98.0056                                         !
 ! D113  D(52,41,42,43)         38.8891                                         !
 ! D114  D(52,41,42,49)       -145.8321                                         !
 ! D115  D(40,41,44,45)         80.3212                                         !
 ! D116  D(40,41,44,53)       -158.84                                           !
 ! D117  D(40,41,44,54)        -44.8473                                         !
 ! D118  D(42,41,44,45)        -45.5874                                         !
 ! D119  D(42,41,44,53)         75.2514                                         !
 ! D120  D(42,41,44,54)       -170.7559                                         !
 ! D121  D(52,41,44,45)       -158.9982                                         !
 ! D122  D(52,41,44,53)        -38.1594                                         !
 ! D123  D(52,41,44,54)         75.8333                                         !
 ! D124  D(41,42,49,50)        179.0458                                         !
 ! D125  D(43,42,49,50)         -5.52                                           !
 ! D126  D(41,44,45,46)        -63.6716                                         !
 ! D127  D(41,44,45,55)        174.6947                                         !
 ! D128  D(41,44,45,56)         60.5273                                         !
 ! D129  D(53,44,45,46)        176.2173                                         !
 ! D130  D(53,44,45,55)         54.5836                                         !
 ! D131  D(53,44,45,56)        -59.5838                                         !
 ! D132  D(54,44,45,46)         60.1025                                         !
 ! D133  D(54,44,45,55)        -61.5312                                         !
 ! D134  D(54,44,45,56)       -175.6986                                         !
 ! D135  D(44,45,46,47)       -179.7501                                         !
 ! D136  D(44,45,46,57)        -58.5354                                         !
 ! D137  D(44,45,46,58)         58.5046                                         !
 ! D138  D(55,45,46,47)        -58.6927                                         !
 ! D139  D(55,45,46,57)         62.522                                          !
 ! D140  D(55,45,46,58)        179.5619                                         !
 ! D141  D(56,45,46,47)         56.4425                                         !
 ! D142  D(56,45,46,57)        177.6573                                         !
 ! D143  D(56,45,46,58)        -65.3028                                         !
 ! D144  D(45,46,47,48)        -65.642                                          !
 ! D145  D(45,46,47,59)         56.8819                                         !
 ! D146  D(45,46,47,60)        173.9289                                         !
 ! D147  D(57,46,47,48)        172.1732                                         !
 ! D148  D(57,46,47,59)        -65.3028                                         !
 ! D149  D(57,46,47,60)         51.7442                                         !
 ! D150  D(58,46,47,48)         57.1408                                         !
 ! D151  D(58,46,47,59)        179.6648                                         !
 ! D152  D(58,46,47,60)        -63.2882                                         !
 ! D153  D(46,47,48,61)         98.9743                                         !
 ! D154  D(46,47,48,62)        -19.5195                                         !
 ! D155  D(59,47,48,61)        -24.909                                          !
 ! D156  D(59,47,48,62)       -143.4028                                         !
 ! D157  D(60,47,48,61)       -139.5989                                         !
 ! D158  D(60,47,48,62)        101.9073                                         !
 --------------------------------------------------------------------------------
 Symmetry turned off by external request.
 Stoichiometry    C20H31N4O7(1+)
 Framework group  C1[X(C20H31N4O7)]
 Deg. of freedom   180
 Full point group                 C1      NOp   1
                          Input orientation:                          
 ---------------------------------------------------------------------
 Center     Atomic      Atomic             Coordinates (Angstroms)
 Number     Number       Type             X           Y           Z
 ---------------------------------------------------------------------
      1          7           0       -5.543384  -86.311949  130.539383
      2          6           0       -5.305582  -87.447741  129.549043
      3          6           0       -4.049977  -88.250542  129.950702
      4          8           0       -4.119142  -89.333835  130.506950
      5          6           0       -6.570524  -88.291118  129.403558
      6          6           0       -7.854098  -87.459649  129.111049
      7          6           0       -7.503649  -86.373754  128.110307
      8          8           0       -6.916370  -85.341019  128.476583
      9          8           0       -7.716061  -86.689263  126.863878
     10          1           0       -7.073172  -86.143728  126.233628
     11          1           0       -6.189604  -85.645188  130.023825
     12          1           0       -5.094139  -86.920224  128.616641
     13          1           0       -6.701583  -88.908025  130.298401
     14          1           0       -6.385120  -88.985932  128.578460
     15          1           0       -8.233959  -86.990377  130.024545
     16          1           0       -8.631221  -88.119175  128.720952
     17          1           0       -5.971476  -86.647570  131.408883
     18          1           0       -4.668166  -85.835372  130.782725
     19          7           0       -2.912776  -87.596464  129.607107
     20          6           0       -1.560934  -88.190539  129.697857
     21          6           0       -0.754908  -87.299975  128.732226
     22          8           0       -0.057949  -86.372113  129.113712
     23          6           0       -0.990836  -88.197743  131.122805
     24          6           0        0.269606  -89.031051  131.199710
     25          6           0        1.534251  -88.459606  131.018860
     26          6           0        0.187410  -90.416516  131.407425
     27          6           0        2.686418  -89.244003  131.052916
     28          6           0        1.327466  -91.211435  131.440534
     29          6           0        2.586887  -90.624076  131.264392
     30          8           0        3.669350  -91.450744  131.309727
     31          1           0       -2.982300  -86.753632  129.043096
     32          1           0       -1.626479  -89.222491  129.331605
     33          1           0       -0.801357  -87.162546  131.422524
     34          1           0       -1.762429  -88.612330  131.780158
     35          1           0        1.617524  -87.391813  130.840328
     36          1           0       -0.786569  -90.879157  131.555461
     37          1           0        3.663014  -88.783364  130.917877
     38          1           0        1.268141  -92.281472  131.610663
     39          1           0        4.481365  -90.931083  131.202569
     40          7           0       -1.062263  -87.478458  127.411433
     41          6           0       -0.766517  -86.425218  126.454091
     42          6           0       -1.368977  -85.077543  126.858963
     43          8           0       -0.956232  -84.014196  126.483384
     44          6           0       -1.224140  -86.777902  125.017048
     45          6           0       -2.716219  -86.577814  124.690315
     46          6           0       -3.697545  -87.454148  125.478719
     47          6           0       -5.169327  -87.225351  125.116513
     48          7           0       -5.689864  -85.873075  125.468092
     49          8           0       -2.516935  -85.170021  127.630002
     50          1           0       -2.756833  -84.240019  127.810303
     51          1           0       -1.643284  -88.254816  127.130448
     52          1           0        0.312906  -86.250052  126.445551
     53          1           0       -0.642591  -86.145182  124.339900
     54          1           0       -0.921174  -87.813004  124.813691
     55          1           0       -2.849696  -86.779272  123.619708
     56          1           0       -2.972338  -85.519004  124.828924
     57          1           0       -3.467431  -88.515116  125.306808
     58          1           0       -3.578650  -87.276932  126.556347
     59          1           0       -5.333196  -87.385908  124.046327
     60          1           0       -5.788546  -87.961583  125.642196
     61          1           0       -5.697226  -85.251580  124.662068
     62          1           0       -5.099365  -85.426400  126.170590
 ---------------------------------------------------------------------
 Rotational constants (GHZ):           0.2076755           0.0815244           0.0665314
 Standard basis: 6-31G(d) (6D, 7F)
   527 basis functions,   992 primitive gaussians,   527 cartesian basis functions
   117 alpha electrons      117 beta electrons
       nuclear repulsion energy      3346.9792561402 Hartrees.
 NAtoms=   62 NActive=   62 NUniq=   62 SFac= 1.00D+00 NAtFMM=   60 NAOKFM=T Big=T
 Integral buffers will be    131072 words long.
 Raffenetti 2 integral format.
 Two-electron integral symmetry is turned off.
 Nuclear repulsion after empirical dispersion term =     3346.8958839412 Hartrees.
 One-electron integrals computed using PRISM.
 NBasis=   527 RedAO= T EigKep=  4.35D-04  NBF=   527
 NBsUse=   527 1.00D-06 EigRej= -1.00D+00 NBFU=   527
 Initial guess from the checkpoint file:  "conf-205.chk"
 B after Tr=     0.000000    0.000000    0.000000
         Rot=    1.000000    0.000000    0.000000    0.000000 Ang=   0.00 deg.
 Requested convergence on RMS density matrix=1.00D-08 within 128 cycles.
 Requested convergence on MAX density matrix=1.00D-06.
 Requested convergence on             energy=1.00D-06.
 No special actions if energy rises.
 SCF Done:  E(RB3LYP) =  -1526.28283017     A.U. after    1 cycles
            NFock=  1  Conv=0.95D-08     -V/T= 2.0093

 **********************************************************************

            Population analysis using the SCF Density.

 **********************************************************************

 Alpha  occ. eigenvalues --  -19.32658 -19.30149 -19.27658 -19.25903 -19.25795
 Alpha  occ. eigenvalues --  -19.24005 -19.23339 -14.61011 -14.49968 -14.47916
 Alpha  occ. eigenvalues --  -14.47576 -10.45476 -10.43898 -10.43272 -10.41146
 Alpha  occ. eigenvalues --  -10.40255 -10.35650 -10.35052 -10.34929 -10.34185
 Alpha  occ. eigenvalues --  -10.33904 -10.31442 -10.31296 -10.31133 -10.30603
 Alpha  occ. eigenvalues --  -10.27980 -10.26110 -10.25849 -10.25675 -10.25407
 Alpha  occ. eigenvalues --  -10.24955  -1.22651  -1.22537  -1.18106  -1.15636
 Alpha  occ. eigenvalues --   -1.15416  -1.13727  -1.13434  -1.12131  -1.06458
 Alpha  occ. eigenvalues --   -1.04321  -1.02957  -0.95727  -0.92698  -0.92268
 Alpha  occ. eigenvalues --   -0.89957  -0.87719  -0.86668  -0.82570  -0.81320
 Alpha  occ. eigenvalues --   -0.81196  -0.78634  -0.76513  -0.76084  -0.75145
 Alpha  occ. eigenvalues --   -0.74031  -0.73057  -0.71584  -0.71278  -0.70610
 Alpha  occ. eigenvalues --   -0.69605  -0.68605  -0.66911  -0.65693  -0.65478
 Alpha  occ. eigenvalues --   -0.64155  -0.63348  -0.62348  -0.61144  -0.60976
 Alpha  occ. eigenvalues --   -0.60900  -0.60462  -0.59561  -0.59234  -0.58622
 Alpha  occ. eigenvalues --   -0.57586  -0.57278  -0.57224  -0.56144  -0.55568
 Alpha  occ. eigenvalues --   -0.55071  -0.54559  -0.54170  -0.53598  -0.53170
 Alpha  occ. eigenvalues --   -0.52736  -0.52570  -0.51829  -0.50833  -0.50760
 Alpha  occ. eigenvalues --   -0.50493  -0.50022  -0.49581  -0.49112  -0.48938
 Alpha  occ. eigenvalues --   -0.48661  -0.48375  -0.46832  -0.46668  -0.45812
 Alpha  occ. eigenvalues --   -0.45534  -0.45234  -0.44165  -0.44066  -0.43887
 Alpha  occ. eigenvalues --   -0.42802  -0.41705  -0.40451  -0.40152  -0.39868
 Alpha  occ. eigenvalues --   -0.39601  -0.39328  -0.38764  -0.36817  -0.36683
 Alpha  occ. eigenvalues --   -0.31755  -0.28376
 Alpha virt. eigenvalues --   -0.14304  -0.13004  -0.11292  -0.10987  -0.09794
 Alpha virt. eigenvalues --   -0.09011  -0.06811  -0.06248  -0.05756  -0.05196
 Alpha virt. eigenvalues --   -0.03902  -0.03493  -0.02037  -0.01020  -0.00568
 Alpha virt. eigenvalues --    0.00233   0.01039   0.01104   0.01239   0.01561
 Alpha virt. eigenvalues --    0.01861   0.02794   0.03062   0.03760   0.03897
 Alpha virt. eigenvalues --    0.04089   0.05029   0.05410   0.05610   0.06364
 Alpha virt. eigenvalues --    0.06660   0.06809   0.07163   0.07344   0.07800
 Alpha virt. eigenvalues --    0.08496   0.09165   0.09423   0.09883   0.10161
 Alpha virt. eigenvalues --    0.10650   0.11422   0.11564   0.12008   0.12277
 Alpha virt. eigenvalues --    0.13201   0.13332   0.13854   0.14558   0.15456
 Alpha virt. eigenvalues --    0.16017   0.16381   0.16502   0.17190   0.19258
 Alpha virt. eigenvalues --    0.20906   0.22090   0.22565   0.23376   0.24504
 Alpha virt. eigenvalues --    0.25138   0.25605   0.26799   0.27156   0.28150
 Alpha virt. eigenvalues --    0.29501   0.29675   0.34602   0.36859   0.37355
 Alpha virt. eigenvalues --    0.38513   0.39121   0.39398   0.40151   0.41011
 Alpha virt. eigenvalues --    0.41759   0.42339   0.42763   0.43143   0.43919
 Alpha virt. eigenvalues --    0.44071   0.45066   0.45360   0.45901   0.46459
 Alpha virt. eigenvalues --    0.46788   0.46945   0.47824   0.48241   0.49102
 Alpha virt. eigenvalues --    0.49324   0.50146   0.50479   0.51132   0.51590
 Alpha virt. eigenvalues --    0.51883   0.52464   0.52693   0.53897   0.54177
 Alpha virt. eigenvalues --    0.54505   0.54991   0.55195   0.56110   0.56500
 Alpha virt. eigenvalues --    0.57354   0.57850   0.58331   0.58357   0.58869
 Alpha virt. eigenvalues --    0.59106   0.59555   0.60239   0.61090   0.61549
 Alpha virt. eigenvalues --    0.61960   0.62520   0.63589   0.64206   0.65194
 Alpha virt. eigenvalues --    0.65721   0.66037   0.66894   0.67495   0.67930
 Alpha virt. eigenvalues --    0.68212   0.69259   0.69906   0.70015   0.70856
 Alpha virt. eigenvalues --    0.71331   0.72148   0.72521   0.72767   0.73053
 Alpha virt. eigenvalues --    0.73452   0.74516   0.74582   0.75509   0.76034
 Alpha virt. eigenvalues --    0.76281   0.76673   0.77209   0.77817   0.78238
 Alpha virt. eigenvalues --    0.78497   0.78841   0.79221   0.79621   0.79906
 Alpha virt. eigenvalues --    0.80357   0.80924   0.81634   0.82329   0.82705
 Alpha virt. eigenvalues --    0.83616   0.83668   0.83959   0.85160   0.85433
 Alpha virt. eigenvalues --    0.86372   0.87290   0.87550   0.88327   0.88445
 Alpha virt. eigenvalues --    0.89090   0.89567   0.89927   0.90171   0.91029
 Alpha virt. eigenvalues --    0.92307   0.92995   0.93715   0.94339   0.95136
 Alpha virt. eigenvalues --    0.95483   0.96669   0.97614   0.98327   0.99328
 Alpha virt. eigenvalues --    0.99580   1.00655   1.00958   1.01710   1.03470
 Alpha virt. eigenvalues --    1.05117   1.06053   1.07177   1.08009   1.08297
 Alpha virt. eigenvalues --    1.09040   1.10163   1.10566   1.12454   1.13172
 Alpha virt. eigenvalues --    1.14438   1.15354   1.17355   1.18084   1.18449
 Alpha virt. eigenvalues --    1.20069   1.21106   1.22127   1.22750   1.24009
 Alpha virt. eigenvalues --    1.25137   1.26447   1.27313   1.28296   1.28632
 Alpha virt. eigenvalues --    1.29521   1.30359   1.30689   1.31487   1.32708
 Alpha virt. eigenvalues --    1.33607   1.34282   1.36497   1.36637   1.38881
 Alpha virt. eigenvalues --    1.39073   1.39919   1.40099   1.42529   1.43048
 Alpha virt. eigenvalues --    1.44538   1.45062   1.47761   1.48793   1.50328
 Alpha virt. eigenvalues --    1.50604   1.51082   1.51834   1.52993   1.55936
 Alpha virt. eigenvalues --    1.56131   1.56897   1.58256   1.59206   1.61187
 Alpha virt. eigenvalues --    1.62197   1.62670   1.62872   1.64026   1.65085
 Alpha virt. eigenvalues --    1.65645   1.66475   1.67287   1.67668   1.68514
 Alpha virt. eigenvalues --    1.69395   1.69632   1.70068   1.70396   1.70989
 Alpha virt. eigenvalues --    1.71414   1.71843   1.72884   1.73275   1.73684
 Alpha virt. eigenvalues --    1.74549   1.75361   1.75712   1.76438   1.77274
 Alpha virt. eigenvalues --    1.78067   1.78922   1.79274   1.80561   1.80898
 Alpha virt. eigenvalues --    1.82068   1.83024   1.83781   1.84472   1.85292
 Alpha virt. eigenvalues --    1.86202   1.86805   1.87164   1.87637   1.87960
 Alpha virt. eigenvalues --    1.89266   1.89858   1.90455   1.91067   1.91593
 Alpha virt. eigenvalues --    1.91916   1.92226   1.92967   1.93461   1.93884
 Alpha virt. eigenvalues --    1.94597   1.96290   1.97601   1.98742   1.99158
 Alpha virt. eigenvalues --    2.00231   2.00722   2.01397   2.02186   2.03737
 Alpha virt. eigenvalues --    2.04204   2.06197   2.06465   2.07602   2.08007
 Alpha virt. eigenvalues --    2.11544   2.13321   2.14073   2.15277   2.15354
 Alpha virt. eigenvalues --    2.16916   2.17916   2.18097   2.19563   2.20833
 Alpha virt. eigenvalues --    2.21316   2.23084   2.23805   2.24514   2.25566
 Alpha virt. eigenvalues --    2.26524   2.26841   2.27121   2.28932   2.29846
 Alpha virt. eigenvalues --    2.30218   2.31200   2.32190   2.33832   2.33936
 Alpha virt. eigenvalues --    2.35197   2.35719   2.35954   2.37749   2.38728
 Alpha virt. eigenvalues --    2.40706   2.43537   2.45124   2.46459   2.48637
 Alpha virt. eigenvalues --    2.49808   2.51312   2.52121   2.52723   2.52988
 Alpha virt. eigenvalues --    2.53891   2.55004   2.55677   2.56847   2.57843
 Alpha virt. eigenvalues --    2.59171   2.59817   2.59990   2.60992   2.62145
 Alpha virt. eigenvalues --    2.63104   2.64723   2.66798   2.68162   2.69539
 Alpha virt. eigenvalues --    2.71053   2.72450   2.73470   2.76327   2.80138
 Alpha virt. eigenvalues --    2.80745   2.82805   2.84050   2.86112   2.87958
 Alpha virt. eigenvalues --    2.89435   2.92512   2.93832   2.94839   2.97994
 Alpha virt. eigenvalues --    3.03523   3.05654   3.07309   3.35048   3.63972
 Alpha virt. eigenvalues --    3.71827   3.76526   3.87475   3.88431   3.88902
 Alpha virt. eigenvalues --    3.96192   3.98950   4.01828   4.02636   4.04530
 Alpha virt. eigenvalues --    4.05475   4.06362   4.07494   4.13878   4.17672
 Alpha virt. eigenvalues --    4.20102   4.20324   4.23367   4.28377   4.28750
 Alpha virt. eigenvalues --    4.31216   4.32964   4.36580   4.41020   4.43766
 Alpha virt. eigenvalues --    4.45297   4.50227   4.54743   4.65586   4.69951
          Condensed to atoms (all electrons):
 Mulliken charges:
               1
     1  N   -0.751005
     2  C   -0.156865
     3  C    0.630223
     4  O   -0.478976
     5  C   -0.296575
     6  C   -0.369226
     7  C    0.606721
     8  O   -0.537856
     9  O   -0.553591
    10  H    0.472988
    11  H    0.437390
    12  H    0.208536
    13  H    0.212163
    14  H    0.208120
    15  H    0.174175
    16  H    0.219949
    17  H    0.415311
    18  H    0.408823
    19  N   -0.669916
    20  C   -0.018671
    21  C    0.581985
    22  O   -0.488313
    23  C   -0.355040
    24  C    0.136232
    25  C   -0.187721
    26  C   -0.193756
    27  C   -0.195082
    28  C   -0.156383
    29  C    0.355055
    30  O   -0.632733
    31  H    0.375395
    32  H    0.183609
    33  H    0.165957
    34  H    0.166244
    35  H    0.157298
    36  H    0.135115
    37  H    0.132724
    38  H    0.152881
    39  H    0.414338
    40  N   -0.615290
    41  C   -0.010425
    42  C    0.610728
    43  O   -0.425468
    44  C   -0.319836
    45  C   -0.275762
    46  C   -0.304276
    47  C   -0.140379
    48  N   -0.797656
    49  O   -0.619143
    50  H    0.420180
    51  H    0.342215
    52  H    0.224201
    53  H    0.196546
    54  H    0.171629
    55  H    0.168320
    56  H    0.146315
    57  H    0.159531
    58  H    0.126200
    59  H    0.182447
    60  H    0.161052
    61  H    0.355714
    62  H    0.333631
 Sum of Mulliken charges =   1.00000
 Mulliken charges with hydrogens summed into heavy atoms:
               1
     1  N    0.510519
     2  C    0.051671
     3  C    0.630223
     4  O   -0.478976
     5  C    0.123708
     6  C    0.024898
     7  C    0.606721
     8  O   -0.537856
     9  O   -0.080602
    19  N   -0.294521
    20  C    0.164938
    21  C    0.581985
    22  O   -0.488313
    23  C   -0.022839
    24  C    0.136232
    25  C   -0.030423
    26  C   -0.058640
    27  C   -0.062358
    28  C   -0.003501
    29  C    0.355055
    30  O   -0.218395
    40  N   -0.273075
    41  C    0.213776
    42  C    0.610728
    43  O   -0.425468
    44  C    0.048339
    45  C    0.038874
    46  C   -0.018546
    47  C    0.203119
    48  N   -0.108310
    49  O   -0.198963
 Electronic spatial extent (au):  <R**2>=       20251315.5791
 Charge=              1.0000 electrons
 Dipole moment (field-independent basis, Debye):
    X=            -22.5086    Y=           -416.9538    Z=            616.0963  Tot=            744.2659
 Quadrupole moment (field-independent basis, Debye-Ang):
   XX=            -36.3482   YY=          36009.7778   ZZ=          78884.4403
   XY=           1944.6985   XZ=          -2899.1695   YZ=         -53473.1388
 Traceless Quadrupole moment (field-independent basis, Debye-Ang):
   XX=         -38322.3048   YY=          -2276.1789   ZZ=          40598.4837
   XY=           1944.6985   XZ=          -2899.1695   YZ=         -53473.1388
 Octapole moment (field-independent basis, Debye-Ang**2):
  XXX=            649.8298  YYY=       -3093362.4081  ZZZ=       10081924.5870  XYY=        -167588.0537
  XXY=           3264.9924  XXZ=          -4550.3401  XZZ=        -373159.7017  YZZ=       -6845373.8207
  YYZ=        4617316.1036  XYZ=         250468.2664
 Hexadecapole moment (field-independent basis, Debye-Ang**3):
 XXXX=         -12653.2868 YYYY=      264224829.4383 ZZZZ=     1286123485.7877 XXXY=         -55872.1364
 XXXZ=          81418.4334 YYYX=       14404932.3645 YYYZ=     -396560366.2362 ZZZX=      -47997899.4961
 ZZZY=     -874691989.5872 XXYY=        -296559.4854 XXZZ=        -572100.5139 YYZZ=      590956622.4545
 XXYZ=         409526.8091 YYXZ=      -21583771.8457 ZZXY=       32236429.9858
 N-N= 3.346895883941D+03 E-N=-1.022600338521D+04  KE= 1.512227585193D+03
 Unable to Open any file for archive entry.
 1\1\GINC-VIM-001\SP\RB3LYP\6-31G(d)\C20H31N4O7(1+)\KENGMITH\24-May-202
 2\0\\# B3LYP/6-31G* empiricaldispersion=gd3 guess=read geom=check nosy
 mm integral(ultrafinegrid)\\Candidate Structure: Conf:205 Charge calc 
 in gas phase\\1,1\N,0,-5.5433844598,-86.311948971,130.5393827075\C,0,-
 5.3055824293,-87.4477408601,129.5490431923\C,0,-4.0499769179,-88.25054
 17744,129.9507022171\O,0,-4.1191415076,-89.3338352285,130.5069498038\C
 ,0,-6.5705238141,-88.2911176563,129.4035576365\C,0,-7.8540982268,-87.4
 59648878,129.1110488175\C,0,-7.5036488579,-86.3737535553,128.110307025
 6\O,0,-6.9163704343,-85.3410185734,128.476582571\O,0,-7.71606132,-86.6
 892634514,126.8638779898\H,0,-7.0731720654,-86.1437277453,126.23362786
 09\H,0,-6.1896035956,-85.6451876449,130.0238251189\H,0,-5.0941390114,-
 86.920224126,128.6166410752\H,0,-6.7015825516,-88.9080247409,130.29840
 10463\H,0,-6.3851203545,-88.9859323825,128.5784598722\H,0,-8.233959276
 3,-86.9903770486,130.0245449723\H,0,-8.631221193,-88.1191745105,128.72
 09520907\H,0,-5.9714755785,-86.6475701634,131.4088833477\H,0,-4.668165
 7505,-85.8353721539,130.7827246448\N,0,-2.9127763297,-87.5964643953,12
 9.607107215\C,0,-1.5609337494,-88.1905386378,129.6978570209\C,0,-0.754
 9082327,-87.2999752329,128.7322258695\O,0,-0.0579489067,-86.3721133931
 ,129.1137120867\C,0,-0.9908359834,-88.1977433844,131.1228049675\C,0,0.
 2696057392,-89.0310506543,131.199709847\C,0,1.5342511663,-88.459605556
 2,131.0188600943\C,0,0.1874096951,-90.4165155961,131.407424574\C,0,2.6
 864184784,-89.2440030509,131.0529163788\C,0,1.3274662428,-91.211434925
 7,131.4405335055\C,0,2.5868867397,-90.6240760245,131.264392483\O,0,3.6
 693503219,-91.4507441261,131.3097269751\H,0,-2.9822995689,-86.75363182
 96,129.0430960448\H,0,-1.6264793404,-89.2224907906,129.3316050182\H,0,
 -0.8013574364,-87.1625464009,131.4225241035\H,0,-1.7624289334,-88.6123
 304116,131.7801576235\H,0,1.6175242681,-87.3918132832,130.8403281979\H
 ,0,-0.7865687968,-90.879157125,131.5554614123\H,0,3.6630142212,-88.783
 3642881,130.9178766261\H,0,1.2681410692,-92.281471796,131.6106626406\H
 ,0,4.4813648525,-90.9310830213,131.2025689204\N,0,-1.0622626182,-87.47
 84580818,127.4114331814\C,0,-0.7665174967,-86.4252182675,126.454090501
 1\C,0,-1.3689766252,-85.0775426684,126.858962886\O,0,-0.9562315514,-84
 .0141960538,126.483383601\C,0,-1.2241401009,-86.7779021606,125.0170483
 234\C,0,-2.7162190506,-86.5778141981,124.6903145886\C,0,-3.6975451415,
 -87.4541480788,125.4787188415\C,0,-5.169326624,-87.2253510559,125.1165
 131986\N,0,-5.6898642179,-85.8730753098,125.4680918259\O,0,-2.51693459
 67,-85.1700209019,127.6300017613\H,0,-2.7568333288,-84.2400186136,127.
 8103034532\H,0,-1.6432836202,-88.2548160379,127.1304475673\H,0,0.31290
 62839,-86.2500518146,126.4455511607\H,0,-0.6425905148,-86.1451819039,1
 24.3399003851\H,0,-0.9211744283,-87.8130042012,124.8136907\H,0,-2.8496
 956397,-86.7792719116,123.6197084532\H,0,-2.9723375119,-85.5190035908,
 124.8289242782\H,0,-3.4674307382,-88.5151157485,125.3068077265\H,0,-3.
 5786496858,-87.2769320275,126.5563466641\H,0,-5.3331955416,-87.3859076
 209,124.0463266279\H,0,-5.7885456093,-87.9615834495,125.6421962179\H,0
 ,-5.6972260283,-85.2515795901,124.6620675844\H,0,-5.0993645059,-85.426
 3995953,126.170590118\\Version=ES64L-G16RevC.01\HF=-1526.2828302\RMSD=
 9.493e-09\Dipole=-4.0522104,1.3774215,-0.6848039\Quadrupole=-28491.694
 3943,-1692.2831935,30183.9775878,1445.8356877,-2155.4614324,-39755.968
 0652\PG=C01 [X(C20H31N4O7)]\\@
 The archive entry for this job was punched.


 TRUTH, IN SCIENCE, CAN BE DEFINED AS THE WORKING HYPOTHESIS 
 BEST FITTED TO OPEN THE WAY TO THE NEXT BETTER ONE.

                              -- KONRAD LORENZ
 Job cpu time:       0 days  0 hours  1 minutes 52.2 seconds.
 Elapsed time:       0 days  0 hours  0 minutes 32.7 seconds.
 File lengths (MBytes):  RWF=    264 Int=      0 D2E=      0 Chk=     40 Scr=     16
 Normal termination of Gaussian 16 at Tue May 24 19:13:30 2022.
