 Entering Gaussian System, Link 0=/opt/software/Gaussian/g16-AVX2-C.01/g16/g16
 Input=charge-conf-304.com
 Output=charge-conf-304.log
 Initial command:
 /opt/software/Gaussian/g16-AVX2-C.01/g16/l1.exe "/mnt/gs18/scratch/users/kengmith/Gau-56754.inp" -scrdir="/mnt/gs18/scratch/users/kengmith/"
 Entering Link 1 = /opt/software/Gaussian/g16-AVX2-C.01/g16/l1.exe PID=     56792.
  
 Copyright (c) 1988-2019, Gaussian, Inc.  All Rights Reserved.
  
 This is part of the Gaussian(R) 16 program.  It is based on
 the Gaussian(R) 09 system (copyright 2009, Gaussian, Inc.),
 the Gaussian(R) 03 system (copyright 2003, Gaussian, Inc.),
 the Gaussian(R) 98 system (copyright 1998, Gaussian, Inc.),
 the Gaussian(R) 94 system (copyright 1995, Gaussian, Inc.),
 the Gaussian 92(TM) system (copyright 1992, Gaussian, Inc.),
 the Gaussian 90(TM) system (copyright 1990, Gaussian, Inc.),
 the Gaussian 88(TM) system (copyright 1988, Gaussian, Inc.),
 the Gaussian 86(TM) system (copyright 1986, Carnegie Mellon
 University), and the Gaussian 82(TM) system (copyright 1983,
 Carnegie Mellon University). Gaussian is a federally registered
 trademark of Gaussian, Inc.
  
 This software contains proprietary and confidential information,
 including trade secrets, belonging to Gaussian, Inc.
  
 This software is provided under written license and may be
 used, copied, transmitted, or stored only in accord with that
 written license.
  
 The following legend is applicable only to US Government
 contracts under FAR:
  
                    RESTRICTED RIGHTS LEGEND
  
 Use, reproduction and disclosure by the US Government is
 subject to restrictions as set forth in subparagraphs (a)
 and (c) of the Commercial Computer Software - Restricted
 Rights clause in FAR 52.227-19.
  
 Gaussian, Inc.
 340 Quinnipiac St., Bldg. 40, Wallingford CT 06492
  
  
 ---------------------------------------------------------------
 Warning -- This program may not be used in any manner that
 competes with the business of Gaussian, Inc. or will provide
 assistance to any competitor of Gaussian, Inc.  The licensee
 of this program is prohibited from giving any competitor of
 Gaussian, Inc. access to this program.  By using this program,
 the user acknowledges that Gaussian, Inc. is engaged in the
 business of creating and licensing software in the field of
 computational chemistry and represents and warrants to the
 licensee that it is not a competitor of Gaussian, Inc. and that
 it will not use this program in any manner prohibited above.
 ---------------------------------------------------------------
  

 Cite this work as:
 Gaussian 16, Revision C.01,
 M. J. Frisch, G. W. Trucks, H. B. Schlegel, G. E. Scuseria, 
 M. A. Robb, J. R. Cheeseman, G. Scalmani, V. Barone, 
 G. A. Petersson, H. Nakatsuji, X. Li, M. Caricato, A. V. Marenich, 
 J. Bloino, B. G. Janesko, R. Gomperts, B. Mennucci, H. P. Hratchian, 
 J. V. Ortiz, A. F. Izmaylov, J. L. Sonnenberg, D. Williams-Young, 
 F. Ding, F. Lipparini, F. Egidi, J. Goings, B. Peng, A. Petrone, 
 T. Henderson, D. Ranasinghe, V. G. Zakrzewski, J. Gao, N. Rega, 
 G. Zheng, W. Liang, M. Hada, M. Ehara, K. Toyota, R. Fukuda, 
 J. Hasegawa, M. Ishida, T. Nakajima, Y. Honda, O. Kitao, H. Nakai, 
 T. Vreven, K. Throssell, J. A. Montgomery, Jr., J. E. Peralta, 
 F. Ogliaro, M. J. Bearpark, J. J. Heyd, E. N. Brothers, K. N. Kudin, 
 V. N. Staroverov, T. A. Keith, R. Kobayashi, J. Normand, 
 K. Raghavachari, A. P. Rendell, J. C. Burant, S. S. Iyengar, 
 J. Tomasi, M. Cossi, J. M. Millam, M. Klene, C. Adamo, R. Cammi, 
 J. W. Ochterski, R. L. Martin, K. Morokuma, O. Farkas, 
 J. B. Foresman, and D. J. Fox, Gaussian, Inc., Wallingford CT, 2019.
 
 ******************************************
 Gaussian 16:  ES64L-G16RevC.01  3-Jul-2019
                24-May-2022 
 ******************************************
 %mem=8gb
 %nproc=4
 Will use up to    4 processors via shared memory.
 %chk=conf-304.chk
 ----------------------------------------------------------------------
 # B3LYP/6-31G* empiricaldispersion=gd3 guess=read geom=check nosymm in
 tegral(ultrafinegrid)
 ----------------------------------------------------------------------
 1/29=2,38=1,172=1/1;
 2/12=2,15=1,40=1/2;
 3/5=1,6=6,7=1,11=2,14=-4,25=1,30=1,74=-5,75=-5,116=-2,124=31/1,2,3;
 4/5=1/1;
 5/5=2,38=6/2;
 6/7=2,8=2,9=2,10=2,28=1/1;
 99/5=1,9=1/99;
 ------------------------------------------------------
 Candidate Structure: Conf:304 Charge calc in gas phase
 ------------------------------------------------------
 Structure from the checkpoint file:  "conf-304.chk"
 Charge =  1 Multiplicity = 1
 Redundant internal coordinates found in file.  (old form).
 N,0,0.659502059,-88.2736582449,128.2355451796
 C,0,-0.0765725059,-88.2838279195,129.5459777521
 C,0,-1.5437858638,-88.7070229524,129.5809366217
 O,0,-2.2104572779,-88.2617726349,130.5135943411
 C,0,0.7752332985,-88.9387069651,130.6485660218
 C,0,2.2034167107,-88.3333708493,130.7477943463
 C,0,2.1286934128,-86.8301522747,130.4740505541
 O,0,2.0515035517,-86.4744448256,129.2372169007
 O,0,2.0005193652,-86.0419014755,131.4359502334
 H,0,1.2252047881,-84.7844621168,130.8061278342
 H,0,1.0559244344,-89.1774680584,127.9707469338
 H,0,-0.1554986957,-87.2206774915,129.7742033816
 H,0,0.8351208615,-90.0226396654,130.4917816792
 H,0,0.2290298327,-88.7741567325,131.5815019682
 H,0,2.8662987004,-88.7991753662,130.0105718383
 H,0,2.6087846964,-88.524209967,131.742890309
 H,0,0.1052960206,-87.8862480019,127.4585383074
 H,0,1.4818588959,-87.4872680184,128.5095930768
 N,0,-2.0824580565,-89.4427103204,128.5701498099
 C,0,-3.5427961759,-89.3425282201,128.3162947333
 C,0,-3.6198995599,-88.0357388394,127.5061463831
 O,0,-3.526774511,-88.0442917415,126.2699102951
 C,0,-4.1053098185,-90.5465541345,127.5607806925
 C,0,-5.6094793297,-90.4328933653,127.42302093
 C,0,-6.1953619343,-89.9097172333,126.2651866341
 C,0,-6.4483335873,-90.8107207966,128.4829492918
 C,0,-7.5789066387,-89.7724651721,126.1603014729
 C,0,-7.8285934611,-90.6770568593,128.3941736107
 C,0,-8.4017042759,-90.1566474161,127.2257336907
 O,0,-9.7584839413,-90.0520377514,127.1956354036
 H,0,-1.5127038729,-89.6847016092,127.7673858565
 H,0,-4.0220852082,-89.2418850307,129.2904137067
 H,0,-3.6311754758,-90.6062515463,126.5749344622
 H,0,-3.830311526,-91.4478144654,128.1204374337
 H,0,-5.563498335,-89.5987439555,125.4382229948
 H,0,-6.0150219113,-91.2294797596,129.3894055487
 H,0,-8.0191789968,-89.3717118317,125.2494823959
 H,0,-8.4806654368,-90.9781842436,129.2074544215
 H,0,-10.0437847634,-89.7176769814,126.3306582638
 N,0,-3.5161150779,-86.8868700585,128.2264428453
 C,0,-3.0652684562,-85.6289361528,127.6030557248
 C,0,-1.5515759488,-85.8354043392,127.3242961951
 O,0,-0.6293552093,-85.3770941552,127.9677913081
 C,0,-3.4712823516,-84.3796564848,128.4199139073
 C,0,-2.4780984136,-83.7688722568,129.4279526724
 C,0,-1.9969128153,-84.6700835441,130.5795079194
 C,0,-0.7464125638,-84.110086455,131.2659039978
 N,0,0.4699050383,-84.1518950158,130.3568825326
 O,0,-1.2683175956,-86.7218391513,126.3537549949
 H,0,-2.1027606429,-87.1274504061,125.9851083538
 H,0,-3.4569196421,-86.9618052441,129.2376909124
 H,0,-3.5753404396,-85.5830459346,126.6363205361
 H,0,-3.7133473724,-83.5916131557,127.6992898721
 H,0,-4.417257613,-84.6293437101,128.9162293608
 H,0,-2.9642523615,-82.8851537356,129.8594756121
 H,0,-1.6181297834,-83.3949158307,128.8643755635
 H,0,-2.7788168747,-84.7658718419,131.3422199108
 H,0,-1.7816742601,-85.6901209835,130.24387974
 H,0,-0.897062021,-83.0718528093,131.570743054
 H,0,-0.4818901571,-84.6934656437,132.1508196528
 H,0,0.8690148691,-83.22792764,130.1840640445
 H,0,0.2703732139,-84.5854877278,129.4435940488
 Recover connectivity data from disk.
                           ----------------------------
                           !    Current Parameters    !
                           ! (Angstroms and Degrees)  !
 --------------------------                            --------------------------
 ! Name  Definition              Value                                          !
 --------------------------------------------------------------------------------
 ! R1    R(1,2)                  1.503                                          !
 ! R2    R(1,11)                 1.0218                                         !
 ! R3    R(1,17)                 1.03                                           !
 ! R4    R(1,18)                 1.1704                                         !
 ! R5    R(2,3)                  1.5274                                         !
 ! R6    R(2,5)                  1.5395                                         !
 ! R7    R(2,12)                 1.0902                                         !
 ! R8    R(3,4)                  1.2299                                         !
 ! R9    R(3,19)                 1.3613                                         !
 ! R10   R(5,6)                  1.5543                                         !
 ! R11   R(5,13)                 1.0968                                         !
 ! R12   R(5,14)                 1.0935                                         !
 ! R13   R(6,7)                  1.5298                                         !
 ! R14   R(6,15)                 1.0954                                         !
 ! R15   R(6,16)                 1.0913                                         !
 ! R16   R(7,8)                  1.2893                                         !
 ! R17   R(7,9)                  1.2502                                         !
 ! R18   R(9,10)                 1.6059                                         !
 ! R19   R(19,20)                1.4856                                         !
 ! R20   R(19,31)                1.0137                                         !
 ! R21   R(20,21)                1.5395                                         !
 ! R22   R(20,23)                1.5287                                         !
 ! R23   R(20,32)                1.0903                                         !
 ! R24   R(21,22)                1.2398                                         !
 ! R25   R(21,40)                1.36                                           !
 ! R26   R(23,24)                1.5147                                         !
 ! R27   R(23,33)                1.0956                                         !
 ! R28   R(23,34)                1.096                                          !
 ! R29   R(24,25)                1.3991                                         !
 ! R30   R(24,26)                1.4035                                         !
 ! R31   R(25,27)                1.3943                                         !
 ! R32   R(25,35)                1.0862                                         !
 ! R33   R(26,28)                1.3896                                         !
 ! R34   R(26,36)                1.0885                                         !
 ! R35   R(27,29)                1.3999                                         !
 ! R36   R(27,37)                1.0881                                         !
 ! R37   R(28,29)                1.4016                                         !
 ! R38   R(28,38)                1.085                                          !
 ! R39   R(29,30)                1.3611                                         !
 ! R40   R(30,39)                0.9702                                         !
 ! R41   R(40,41)                1.4745                                         !
 ! R42   R(40,51)                1.0157                                         !
 ! R43   R(41,42)                1.5529                                         !
 ! R44   R(41,44)                1.5469                                         !
 ! R45   R(41,52)                1.094                                          !
 ! R46   R(42,43)                1.2143                                         !
 ! R47   R(42,49)                1.3446                                         !
 ! R48   R(44,45)                1.5413                                         !
 ! R49   R(44,53)                1.0949                                         !
 ! R50   R(44,54)                1.0971                                         !
 ! R51   R(45,46)                1.5394                                         !
 ! R52   R(45,55)                1.097                                          !
 ! R53   R(45,56)                1.0941                                         !
 ! R54   R(46,47)                1.5325                                         !
 ! R55   R(46,57)                1.0965                                         !
 ! R56   R(46,58)                1.0952                                         !
 ! R57   R(47,48)                1.519                                          !
 ! R58   R(47,59)                1.0925                                         !
 ! R59   R(47,60)                1.0924                                         !
 ! R60   R(48,61)                1.0212                                         !
 ! R61   R(48,62)                1.0305                                         !
 ! R62   R(49,50)                0.9984                                         !
 ! A1    A(2,1,11)             114.2009                                         !
 ! A2    A(2,1,17)             113.3741                                         !
 ! A3    A(2,1,18)              98.3083                                         !
 ! A4    A(11,1,17)            110.2383                                         !
 ! A5    A(11,1,18)            112.4819                                         !
 ! A6    A(17,1,18)            107.5761                                         !
 ! A7    A(1,2,3)              119.4883                                         !
 ! A8    A(1,2,5)              110.8749                                         !
 ! A9    A(1,2,12)             102.2024                                         !
 ! A10   A(3,2,5)              113.4052                                         !
 ! A11   A(3,2,12)             101.2944                                         !
 ! A12   A(5,2,12)             107.7546                                         !
 ! A13   A(2,3,4)              115.9606                                         !
 ! A14   A(2,3,19)             120.8539                                         !
 ! A15   A(4,3,19)             122.973                                          !
 ! A16   A(2,5,6)              112.8575                                         !
 ! A17   A(2,5,13)             110.3776                                         !
 ! A18   A(2,5,14)             105.7024                                         !
 ! A19   A(6,5,13)             110.1097                                         !
 ! A20   A(6,5,14)             110.2356                                         !
 ! A21   A(13,5,14)            107.3332                                         !
 ! A22   A(5,6,7)              109.0495                                         !
 ! A23   A(5,6,15)             110.3322                                         !
 ! A24   A(5,6,16)             109.3543                                         !
 ! A25   A(7,6,15)             109.0859                                         !
 ! A26   A(7,6,16)             110.68                                           !
 ! A27   A(15,6,16)            108.3329                                         !
 ! A28   A(6,7,8)              116.468                                          !
 ! A29   A(6,7,9)              119.1359                                         !
 ! A30   A(8,7,9)              123.9179                                         !
 ! A31   A(7,9,10)             103.971                                          !
 ! A32   A(3,19,20)            118.6469                                         !
 ! A33   A(3,19,31)            119.6443                                         !
 ! A34   A(20,19,31)           115.6749                                         !
 ! A35   A(19,20,21)           101.3263                                         !
 ! A36   A(19,20,23)           113.1442                                         !
 ! A37   A(19,20,32)           106.599                                          !
 ! A38   A(21,20,23)           112.9582                                         !
 ! A39   A(21,20,32)           111.7033                                         !
 ! A40   A(23,20,32)           110.6406                                         !
 ! A41   A(20,21,22)           121.0063                                         !
 ! A42   A(20,21,40)           115.7565                                         !
 ! A43   A(22,21,40)           121.886                                          !
 ! A44   A(20,23,24)           110.5639                                         !
 ! A45   A(20,23,33)           109.1714                                         !
 ! A46   A(20,23,34)           107.6373                                         !
 ! A47   A(24,23,33)           110.6102                                         !
 ! A48   A(24,23,34)           110.9358                                         !
 ! A49   A(33,23,34)           107.8252                                         !
 ! A50   A(23,24,25)           121.2752                                         !
 ! A51   A(23,24,26)           120.3066                                         !
 ! A52   A(25,24,26)           118.3813                                         !
 ! A53   A(24,25,27)           120.9697                                         !
 ! A54   A(24,25,35)           119.5708                                         !
 ! A55   A(27,25,35)           119.458                                          !
 ! A56   A(24,26,28)           121.3012                                         !
 ! A57   A(24,26,36)           119.6395                                         !
 ! A58   A(28,26,36)           119.0543                                         !
 ! A59   A(25,27,29)           119.931                                          !
 ! A60   A(25,27,37)           120.0474                                         !
 ! A61   A(29,27,37)           120.0209                                         !
 ! A62   A(26,28,29)           119.6784                                         !
 ! A63   A(26,28,38)           121.4911                                         !
 ! A64   A(29,28,38)           118.8265                                         !
 ! A65   A(27,29,28)           119.7375                                         !
 ! A66   A(27,29,30)           123.2264                                         !
 ! A67   A(28,29,30)           117.0361                                         !
 ! A68   A(29,30,39)           109.8346                                         !
 ! A69   A(21,40,41)           121.339                                          !
 ! A70   A(21,40,51)           117.9969                                         !
 ! A71   A(41,40,51)           117.7757                                         !
 ! A72   A(40,41,42)           105.0994                                         !
 ! A73   A(40,41,44)           112.6733                                         !
 ! A74   A(40,41,52)           105.4747                                         !
 ! A75   A(42,41,44)           117.2588                                         !
 ! A76   A(42,41,52)           107.5426                                         !
 ! A77   A(44,41,52)           108.0824                                         !
 ! A78   A(41,42,43)           126.5091                                         !
 ! A79   A(41,42,49)           114.9962                                         !
 ! A80   A(43,42,49)           118.12                                           !
 ! A81   A(41,44,45)           119.7539                                         !
 ! A82   A(41,44,53)           106.9618                                         !
 ! A83   A(41,44,54)           106.3449                                         !
 ! A84   A(45,44,53)           106.7193                                         !
 ! A85   A(45,44,54)           110.4841                                         !
 ! A86   A(53,44,54)           105.7189                                         !
 ! A87   A(44,45,46)           117.3009                                         !
 ! A88   A(44,45,55)           106.9131                                         !
 ! A89   A(44,45,56)           107.7611                                         !
 ! A90   A(46,45,55)           108.4126                                         !
 ! A91   A(46,45,56)           109.8609                                         !
 ! A92   A(55,45,56)           105.9983                                         !
 ! A93   A(45,46,47)           112.0977                                         !
 ! A94   A(45,46,57)           110.4007                                         !
 ! A95   A(45,46,58)           112.1751                                         !
 ! A96   A(47,46,57)           107.5931                                         !
 ! A97   A(47,46,58)           108.4958                                         !
 ! A98   A(57,46,58)           105.7804                                         !
 ! A99   A(46,47,48)           112.0424                                         !
 ! A100  A(46,47,59)           111.0833                                         !
 ! A101  A(46,47,60)           111.4241                                         !
 ! A102  A(48,47,59)           107.6707                                         !
 ! A103  A(48,47,60)           106.0313                                         !
 ! A104  A(59,47,60)           108.3525                                         !
 ! A105  A(47,48,61)           112.9111                                         !
 ! A106  A(47,48,62)           112.7615                                         !
 ! A107  A(61,48,62)           107.8417                                         !
 ! A108  A(42,49,50)           110.9955                                         !
 ! D1    D(11,1,2,3)           -85.0677                                         !
 ! D2    D(11,1,2,5)            49.6865                                         !
 ! D3    D(11,1,2,12)          164.2926                                         !
 ! D4    D(17,1,2,3)            42.3349                                         !
 ! D5    D(17,1,2,5)           177.0891                                         !
 ! D6    D(17,1,2,12)          -68.3048                                         !
 ! D7    D(18,1,2,3)           155.6367                                         !
 ! D8    D(18,1,2,5)           -69.6091                                         !
 ! D9    D(18,1,2,12)           44.997                                          !
 ! D10   D(1,2,3,4)           -154.8966                                         !
 ! D11   D(1,2,3,19)            19.9608                                         !
 ! D12   D(5,2,3,4)             71.4071                                         !
 ! D13   D(5,2,3,19)          -113.7356                                         !
 ! D14   D(12,2,3,4)           -43.762                                          !
 ! D15   D(12,2,3,19)          131.0953                                         !
 ! D16   D(1,2,5,6)             51.5524                                         !
 ! D17   D(1,2,5,13)           -72.1315                                         !
 ! D18   D(1,2,5,14)           172.1109                                         !
 ! D19   D(3,2,5,6)           -170.7902                                         !
 ! D20   D(3,2,5,13)            65.5259                                         !
 ! D21   D(3,2,5,14)           -50.2317                                         !
 ! D22   D(12,2,5,6)           -59.5255                                         !
 ! D23   D(12,2,5,13)          176.7906                                         !
 ! D24   D(12,2,5,14)           61.033                                          !
 ! D25   D(2,3,19,20)         -153.7628                                         !
 ! D26   D(2,3,19,31)           -2.2485                                         !
 ! D27   D(4,3,19,20)           20.7246                                         !
 ! D28   D(4,3,19,31)          172.2389                                         !
 ! D29   D(2,5,6,7)             36.523                                          !
 ! D30   D(2,5,6,15)           -83.2697                                         !
 ! D31   D(2,5,6,16)           157.6727                                         !
 ! D32   D(13,5,6,7)           160.3547                                         !
 ! D33   D(13,5,6,15)           40.562                                          !
 ! D34   D(13,5,6,16)          -78.4957                                         !
 ! D35   D(14,5,6,7)           -81.4088                                         !
 ! D36   D(14,5,6,15)          158.7985                                         !
 ! D37   D(14,5,6,16)           39.7409                                         !
 ! D38   D(5,6,7,8)            -79.4949                                         !
 ! D39   D(5,6,7,9)             92.8847                                         !
 ! D40   D(15,6,7,8)            41.0657                                         !
 ! D41   D(15,6,7,9)          -146.5547                                         !
 ! D42   D(16,6,7,8)           160.1675                                         !
 ! D43   D(16,6,7,9)           -27.4529                                         !
 ! D44   D(6,7,9,10)          -151.6027                                         !
 ! D45   D(8,7,9,10)            20.1728                                         !
 ! D46   D(3,19,20,21)          80.479                                          !
 ! D47   D(3,19,20,23)        -158.3066                                         !
 ! D48   D(3,19,20,32)         -36.4735                                         !
 ! D49   D(31,19,20,21)        -72.1388                                         !
 ! D50   D(31,19,20,23)         49.0755                                         !
 ! D51   D(31,19,20,32)        170.9086                                         !
 ! D52   D(19,20,21,22)         89.6534                                         !
 ! D53   D(19,20,21,40)        -77.3168                                         !
 ! D54   D(23,20,21,22)        -31.6912                                         !
 ! D55   D(23,20,21,40)        161.3385                                         !
 ! D56   D(32,20,21,22)       -157.1869                                         !
 ! D57   D(32,20,21,40)         35.8429                                         !
 ! D58   D(19,20,23,24)        175.8478                                         !
 ! D59   D(19,20,23,33)        -62.2499                                         !
 ! D60   D(19,20,23,34)         54.5331                                         !
 ! D61   D(21,20,23,24)        -69.7567                                         !
 ! D62   D(21,20,23,33)         52.1456                                         !
 ! D63   D(21,20,23,34)        168.9286                                         !
 ! D64   D(32,20,23,24)         56.3101                                         !
 ! D65   D(32,20,23,33)        178.2124                                         !
 ! D66   D(32,20,23,34)        -65.0046                                         !
 ! D67   D(20,21,40,41)        156.4758                                         !
 ! D68   D(20,21,40,51)         -3.8575                                         !
 ! D69   D(22,21,40,41)        -10.3693                                         !
 ! D70   D(22,21,40,51)       -170.7026                                         !
 ! D71   D(20,23,24,25)         96.1846                                         !
 ! D72   D(20,23,24,26)        -81.568                                          !
 ! D73   D(33,23,24,25)        -24.8674                                         !
 ! D74   D(33,23,24,26)        157.3799                                         !
 ! D75   D(34,23,24,25)       -144.474                                          !
 ! D76   D(34,23,24,26)         37.7733                                         !
 ! D77   D(23,24,25,27)       -178.1464                                         !
 ! D78   D(23,24,25,35)          1.3933                                         !
 ! D79   D(26,24,25,27)         -0.3517                                         !
 ! D80   D(26,24,25,35)        179.188                                          !
 ! D81   D(23,24,26,28)        178.0227                                         !
 ! D82   D(23,24,26,36)         -2.7991                                         !
 ! D83   D(25,24,26,28)          0.2059                                         !
 ! D84   D(25,24,26,36)        179.3841                                         !
 ! D85   D(24,25,27,29)          0.2287                                         !
 ! D86   D(24,25,27,37)       -179.4726                                         !
 ! D87   D(35,25,27,29)       -179.3115                                         !
 ! D88   D(35,25,27,37)          0.9872                                         !
 ! D89   D(24,26,28,29)          0.0627                                         !
 ! D90   D(24,26,28,38)        179.325                                          !
 ! D91   D(36,26,28,29)       -179.1201                                         !
 ! D92   D(36,26,28,38)          0.1421                                         !
 ! D93   D(25,27,29,28)          0.0473                                         !
 ! D94   D(25,27,29,30)        179.9971                                         !
 ! D95   D(37,27,29,28)        179.7486                                         !
 ! D96   D(37,27,29,30)         -0.3016                                         !
 ! D97   D(26,28,29,27)         -0.1908                                         !
 ! D98   D(26,28,29,30)        179.8563                                         !
 ! D99   D(38,28,29,27)       -179.4728                                         !
 ! D100  D(38,28,29,30)          0.5744                                         !
 ! D101  D(27,29,30,39)          2.4505                                         !
 ! D102  D(28,29,30,39)       -177.5984                                         !
 ! D103  D(21,40,41,42)        -70.9987                                         !
 ! D104  D(21,40,41,44)        160.1843                                         !
 ! D105  D(21,40,41,52)         42.4941                                         !
 ! D106  D(51,40,41,42)         89.3764                                         !
 ! D107  D(51,40,41,44)        -39.4406                                         !
 ! D108  D(51,40,41,52)       -157.1308                                         !
 ! D109  D(40,41,42,43)       -103.0455                                         !
 ! D110  D(40,41,42,49)         69.7465                                         !
 ! D111  D(44,41,42,43)         22.9805                                         !
 ! D112  D(44,41,42,49)       -164.2276                                         !
 ! D113  D(52,41,42,43)        144.9225                                         !
 ! D114  D(52,41,42,49)        -42.2855                                         !
 ! D115  D(40,41,44,45)         94.8183                                         !
 ! D116  D(40,41,44,53)       -143.7964                                         !
 ! D117  D(40,41,44,54)        -31.1764                                         !
 ! D118  D(42,41,44,45)        -27.378                                          !
 ! D119  D(42,41,44,53)         94.0073                                         !
 ! D120  D(42,41,44,54)       -153.3727                                         !
 ! D121  D(52,41,44,45)       -149.0403                                         !
 ! D122  D(52,41,44,53)        -27.655                                          !
 ! D123  D(52,41,44,54)         84.965                                          !
 ! D124  D(41,42,49,50)         -1.6824                                         !
 ! D125  D(43,42,49,50)        171.7516                                         !
 ! D126  D(41,44,45,46)        -59.8529                                         !
 ! D127  D(41,44,45,55)        178.2449                                         !
 ! D128  D(41,44,45,56)         64.6739                                         !
 ! D129  D(53,44,45,46)        178.6417                                         !
 ! D130  D(53,44,45,55)         56.7396                                         !
 ! D131  D(53,44,45,56)        -56.8314                                         !
 ! D132  D(54,44,45,46)         64.1738                                         !
 ! D133  D(54,44,45,55)        -57.7284                                         !
 ! D134  D(54,44,45,56)       -171.2994                                         !
 ! D135  D(44,45,46,47)        163.8919                                         !
 ! D136  D(44,45,46,57)        -76.1712                                         !
 ! D137  D(44,45,46,58)         41.5332                                         !
 ! D138  D(55,45,46,47)        -74.9848                                         !
 ! D139  D(55,45,46,57)         44.9521                                         !
 ! D140  D(55,45,46,58)        162.6565                                         !
 ! D141  D(56,45,46,47)         40.4256                                         !
 ! D142  D(56,45,46,57)        160.3626                                         !
 ! D143  D(56,45,46,58)        -81.933                                          !
 ! D144  D(45,46,47,48)        -67.9491                                         !
 ! D145  D(45,46,47,59)         52.5201                                         !
 ! D146  D(45,46,47,60)        173.4357                                         !
 ! D147  D(57,46,47,48)        170.4891                                         !
 ! D148  D(57,46,47,59)        -69.0418                                         !
 ! D149  D(57,46,47,60)         51.8738                                         !
 ! D150  D(58,46,47,48)         56.4786                                         !
 ! D151  D(58,46,47,59)        176.9477                                         !
 ! D152  D(58,46,47,60)        -62.1366                                         !
 ! D153  D(46,47,48,61)        120.0574                                         !
 ! D154  D(46,47,48,62)         -2.4936                                         !
 ! D155  D(59,47,48,61)         -2.3745                                         !
 ! D156  D(59,47,48,62)       -124.9256                                         !
 ! D157  D(60,47,48,61)       -118.183                                          !
 ! D158  D(60,47,48,62)        119.2659                                         !
 --------------------------------------------------------------------------------
 Symmetry turned off by external request.
 Stoichiometry    C20H31N4O7(1+)
 Framework group  C1[X(C20H31N4O7)]
 Deg. of freedom   180
 Full point group                 C1      NOp   1
                          Input orientation:                          
 ---------------------------------------------------------------------
 Center     Atomic      Atomic             Coordinates (Angstroms)
 Number     Number       Type             X           Y           Z
 ---------------------------------------------------------------------
      1          7           0        0.659502  -88.273658  128.235545
      2          6           0       -0.076573  -88.283828  129.545978
      3          6           0       -1.543786  -88.707023  129.580937
      4          8           0       -2.210457  -88.261773  130.513594
      5          6           0        0.775233  -88.938707  130.648566
      6          6           0        2.203417  -88.333371  130.747794
      7          6           0        2.128693  -86.830152  130.474051
      8          8           0        2.051504  -86.474445  129.237217
      9          8           0        2.000519  -86.041901  131.435950
     10          1           0        1.225205  -84.784462  130.806128
     11          1           0        1.055924  -89.177468  127.970747
     12          1           0       -0.155499  -87.220677  129.774203
     13          1           0        0.835121  -90.022640  130.491782
     14          1           0        0.229030  -88.774157  131.581502
     15          1           0        2.866299  -88.799175  130.010572
     16          1           0        2.608785  -88.524210  131.742890
     17          1           0        0.105296  -87.886248  127.458538
     18          1           0        1.481859  -87.487268  128.509593
     19          7           0       -2.082458  -89.442710  128.570150
     20          6           0       -3.542796  -89.342528  128.316295
     21          6           0       -3.619900  -88.035739  127.506146
     22          8           0       -3.526775  -88.044292  126.269910
     23          6           0       -4.105310  -90.546554  127.560781
     24          6           0       -5.609479  -90.432893  127.423021
     25          6           0       -6.195362  -89.909717  126.265187
     26          6           0       -6.448334  -90.810721  128.482949
     27          6           0       -7.578907  -89.772465  126.160301
     28          6           0       -7.828593  -90.677057  128.394174
     29          6           0       -8.401704  -90.156647  127.225734
     30          8           0       -9.758484  -90.052038  127.195635
     31          1           0       -1.512704  -89.684702  127.767386
     32          1           0       -4.022085  -89.241885  129.290414
     33          1           0       -3.631175  -90.606252  126.574934
     34          1           0       -3.830312  -91.447814  128.120437
     35          1           0       -5.563498  -89.598744  125.438223
     36          1           0       -6.015022  -91.229480  129.389406
     37          1           0       -8.019179  -89.371712  125.249482
     38          1           0       -8.480665  -90.978184  129.207454
     39          1           0      -10.043785  -89.717677  126.330658
     40          7           0       -3.516115  -86.886870  128.226443
     41          6           0       -3.065268  -85.628936  127.603056
     42          6           0       -1.551576  -85.835404  127.324296
     43          8           0       -0.629355  -85.377094  127.967791
     44          6           0       -3.471282  -84.379656  128.419914
     45          6           0       -2.478098  -83.768872  129.427953
     46          6           0       -1.996913  -84.670084  130.579508
     47          6           0       -0.746413  -84.110086  131.265904
     48          7           0        0.469905  -84.151895  130.356883
     49          8           0       -1.268318  -86.721839  126.353755
     50          1           0       -2.102761  -87.127450  125.985108
     51          1           0       -3.456920  -86.961805  129.237691
     52          1           0       -3.575340  -85.583046  126.636321
     53          1           0       -3.713347  -83.591613  127.699290
     54          1           0       -4.417258  -84.629344  128.916229
     55          1           0       -2.964252  -82.885154  129.859476
     56          1           0       -1.618130  -83.394916  128.864376
     57          1           0       -2.778817  -84.765872  131.342220
     58          1           0       -1.781674  -85.690121  130.243880
     59          1           0       -0.897062  -83.071853  131.570743
     60          1           0       -0.481890  -84.693466  132.150820
     61          1           0        0.869015  -83.227928  130.184064
     62          1           0        0.270373  -84.585488  129.443594
 ---------------------------------------------------------------------
 Rotational constants (GHZ):           0.2729257           0.0775357           0.0704921
 Standard basis: 6-31G(d) (6D, 7F)
   527 basis functions,   992 primitive gaussians,   527 cartesian basis functions
   117 alpha electrons      117 beta electrons
       nuclear repulsion energy      3443.8636350898 Hartrees.
 NAtoms=   62 NActive=   62 NUniq=   62 SFac= 1.00D+00 NAtFMM=   60 NAOKFM=T Big=T
 Integral buffers will be    131072 words long.
 Raffenetti 2 integral format.
 Two-electron integral symmetry is turned off.
 Nuclear repulsion after empirical dispersion term =     3443.7729037859 Hartrees.
 One-electron integrals computed using PRISM.
 NBasis=   527 RedAO= T EigKep=  4.36D-04  NBF=   527
 NBsUse=   527 1.00D-06 EigRej= -1.00D+00 NBFU=   527
 Initial guess from the checkpoint file:  "conf-304.chk"
 B after Tr=     0.000000    0.000000    0.000000
         Rot=    1.000000    0.000000    0.000000    0.000000 Ang=   0.00 deg.
 Requested convergence on RMS density matrix=1.00D-08 within 128 cycles.
 Requested convergence on MAX density matrix=1.00D-06.
 Requested convergence on             energy=1.00D-06.
 No special actions if energy rises.
 SCF Done:  E(RB3LYP) =  -1526.30623990     A.U. after    1 cycles
            NFock=  1  Conv=0.46D-08     -V/T= 2.0093

 **********************************************************************

            Population analysis using the SCF Density.

 **********************************************************************

 Alpha  occ. eigenvalues --  -19.32628 -19.28412 -19.26288 -19.25836 -19.24964
 Alpha  occ. eigenvalues --  -19.23162 -19.22522 -14.54262 -14.53659 -14.50835
 Alpha  occ. eigenvalues --  -14.50289 -10.46498 -10.43443 -10.42922 -10.40246
 Alpha  occ. eigenvalues --  -10.38289 -10.37924 -10.36326 -10.36153 -10.32688
 Alpha  occ. eigenvalues --  -10.32509 -10.31984 -10.31645 -10.30958 -10.30238
 Alpha  occ. eigenvalues --  -10.29609 -10.27370 -10.26991 -10.26913 -10.26489
 Alpha  occ. eigenvalues --  -10.25995  -1.24245  -1.18578  -1.17654  -1.16371
 Alpha  occ. eigenvalues --   -1.15519  -1.13126  -1.10227  -1.08837  -1.07062
 Alpha  occ. eigenvalues --   -1.06656  -1.06031  -0.93820  -0.93258  -0.92378
 Alpha  occ. eigenvalues --   -0.90266  -0.88672  -0.84758  -0.83917  -0.82430
 Alpha  occ. eigenvalues --   -0.81607  -0.77214  -0.76581  -0.75728  -0.74651
 Alpha  occ. eigenvalues --   -0.73287  -0.72576  -0.71481  -0.70150  -0.69932
 Alpha  occ. eigenvalues --   -0.69286  -0.68408  -0.67709  -0.66947  -0.66219
 Alpha  occ. eigenvalues --   -0.64800  -0.63768  -0.62779  -0.62303  -0.61884
 Alpha  occ. eigenvalues --   -0.61420  -0.60528  -0.59467  -0.58561  -0.58356
 Alpha  occ. eigenvalues --   -0.57372  -0.56701  -0.56282  -0.55821  -0.55593
 Alpha  occ. eigenvalues --   -0.55295  -0.54753  -0.54521  -0.54114  -0.53506
 Alpha  occ. eigenvalues --   -0.52838  -0.52403  -0.51973  -0.51475  -0.51174
 Alpha  occ. eigenvalues --   -0.50797  -0.50013  -0.49697  -0.49618  -0.48841
 Alpha  occ. eigenvalues --   -0.48064  -0.47710  -0.47266  -0.47083  -0.46690
 Alpha  occ. eigenvalues --   -0.46258  -0.45824  -0.45244  -0.45066  -0.43886
 Alpha  occ. eigenvalues --   -0.42693  -0.41618  -0.41172  -0.40609  -0.39837
 Alpha  occ. eigenvalues --   -0.39242  -0.38438  -0.38377  -0.37642  -0.36522
 Alpha  occ. eigenvalues --   -0.32852  -0.29458
 Alpha virt. eigenvalues --   -0.15634  -0.13261  -0.10892  -0.08535  -0.08227
 Alpha virt. eigenvalues --   -0.07876  -0.06873  -0.06283  -0.03869  -0.02734
 Alpha virt. eigenvalues --   -0.02450  -0.01273  -0.00891  -0.00003   0.00211
 Alpha virt. eigenvalues --    0.00587   0.00880   0.01005   0.02020   0.02257
 Alpha virt. eigenvalues --    0.02851   0.03148   0.03228   0.03501   0.04557
 Alpha virt. eigenvalues --    0.04794   0.05031   0.05576   0.05976   0.06379
 Alpha virt. eigenvalues --    0.06557   0.06984   0.07297   0.07866   0.08149
 Alpha virt. eigenvalues --    0.08421   0.08745   0.08848   0.09550   0.10294
 Alpha virt. eigenvalues --    0.10776   0.11435   0.12006   0.12162   0.12829
 Alpha virt. eigenvalues --    0.13159   0.13218   0.14091   0.14910   0.15463
 Alpha virt. eigenvalues --    0.15783   0.16067   0.16935   0.17923   0.18215
 Alpha virt. eigenvalues --    0.21179   0.22017   0.23158   0.23751   0.24646
 Alpha virt. eigenvalues --    0.26133   0.26671   0.26902   0.27898   0.28442
 Alpha virt. eigenvalues --    0.29608   0.31442   0.33180   0.35973   0.37587
 Alpha virt. eigenvalues --    0.38343   0.38623   0.39058   0.40346   0.41121
 Alpha virt. eigenvalues --    0.41220   0.41703   0.42398   0.43173   0.43655
 Alpha virt. eigenvalues --    0.44029   0.44831   0.45252   0.46125   0.46258
 Alpha virt. eigenvalues --    0.46409   0.46643   0.47960   0.48427   0.48890
 Alpha virt. eigenvalues --    0.49599   0.49962   0.50231   0.50638   0.51104
 Alpha virt. eigenvalues --    0.51599   0.51891   0.52191   0.53131   0.53628
 Alpha virt. eigenvalues --    0.54147   0.54942   0.55091   0.55656   0.56025
 Alpha virt. eigenvalues --    0.56552   0.57110   0.57235   0.57599   0.58639
 Alpha virt. eigenvalues --    0.59262   0.59442   0.60716   0.60936   0.61646
 Alpha virt. eigenvalues --    0.62815   0.63365   0.64308   0.64710   0.65463
 Alpha virt. eigenvalues --    0.66094   0.66792   0.67941   0.68348   0.68549
 Alpha virt. eigenvalues --    0.69305   0.69882   0.70577   0.71097   0.71663
 Alpha virt. eigenvalues --    0.72231   0.72563   0.72774   0.73112   0.73463
 Alpha virt. eigenvalues --    0.74219   0.74730   0.74906   0.75722   0.76094
 Alpha virt. eigenvalues --    0.76655   0.77087   0.77355   0.77789   0.78439
 Alpha virt. eigenvalues --    0.79310   0.79671   0.79717   0.80042   0.80797
 Alpha virt. eigenvalues --    0.81428   0.81894   0.82167   0.82605   0.83370
 Alpha virt. eigenvalues --    0.83533   0.84514   0.84560   0.85447   0.86047
 Alpha virt. eigenvalues --    0.86473   0.87310   0.87853   0.88211   0.88698
 Alpha virt. eigenvalues --    0.89334   0.89860   0.90284   0.90947   0.92107
 Alpha virt. eigenvalues --    0.92466   0.93790   0.94373   0.95558   0.97029
 Alpha virt. eigenvalues --    0.97278   0.98850   0.98988   1.00636   1.01066
 Alpha virt. eigenvalues --    1.03160   1.04201   1.05651   1.06483   1.06938
 Alpha virt. eigenvalues --    1.07924   1.08098   1.09948   1.10389   1.11116
 Alpha virt. eigenvalues --    1.11289   1.11676   1.14167   1.14473   1.15617
 Alpha virt. eigenvalues --    1.15789   1.16996   1.18259   1.18966   1.20239
 Alpha virt. eigenvalues --    1.21030   1.22685   1.23107   1.24023   1.25123
 Alpha virt. eigenvalues --    1.26611   1.27279   1.29080   1.29351   1.30044
 Alpha virt. eigenvalues --    1.30228   1.30738   1.31852   1.33327   1.34119
 Alpha virt. eigenvalues --    1.35826   1.35885   1.37583   1.38281   1.38546
 Alpha virt. eigenvalues --    1.38939   1.40333   1.41283   1.42498   1.42859
 Alpha virt. eigenvalues --    1.43925   1.45302   1.45960   1.47648   1.48762
 Alpha virt. eigenvalues --    1.50771   1.52136   1.52800   1.53862   1.54577
 Alpha virt. eigenvalues --    1.55394   1.57096   1.58472   1.59630   1.60399
 Alpha virt. eigenvalues --    1.61190   1.62596   1.63516   1.64748   1.65057
 Alpha virt. eigenvalues --    1.66073   1.66408   1.66588   1.68189   1.68569
 Alpha virt. eigenvalues --    1.69168   1.69669   1.70339   1.70958   1.71548
 Alpha virt. eigenvalues --    1.71910   1.72752   1.73465   1.73837   1.75198
 Alpha virt. eigenvalues --    1.76615   1.77028   1.77642   1.78700   1.79317
 Alpha virt. eigenvalues --    1.79477   1.79995   1.81210   1.81352   1.82306
 Alpha virt. eigenvalues --    1.83006   1.83628   1.84132   1.84266   1.84824
 Alpha virt. eigenvalues --    1.85202   1.86230   1.86741   1.87740   1.88243
 Alpha virt. eigenvalues --    1.89128   1.89464   1.89819   1.90222   1.90964
 Alpha virt. eigenvalues --    1.91826   1.92169   1.92952   1.94732   1.95380
 Alpha virt. eigenvalues --    1.96000   1.97375   1.98093   1.98517   1.99497
 Alpha virt. eigenvalues --    2.00566   2.01084   2.02636   2.03109   2.03675
 Alpha virt. eigenvalues --    2.04738   2.05796   2.06328   2.06874   2.07512
 Alpha virt. eigenvalues --    2.09484   2.11414   2.12442   2.15771   2.17944
 Alpha virt. eigenvalues --    2.18162   2.18628   2.19970   2.21051   2.22835
 Alpha virt. eigenvalues --    2.23548   2.23904   2.24143   2.24835   2.25621
 Alpha virt. eigenvalues --    2.26424   2.26911   2.28710   2.29595   2.29935
 Alpha virt. eigenvalues --    2.31530   2.32859   2.33192   2.33832   2.34271
 Alpha virt. eigenvalues --    2.35790   2.37706   2.38025   2.38953   2.39076
 Alpha virt. eigenvalues --    2.40088   2.41580   2.43016   2.45147   2.46316
 Alpha virt. eigenvalues --    2.47661   2.49294   2.50047   2.51347   2.51754
 Alpha virt. eigenvalues --    2.52485   2.53170   2.55825   2.56626   2.57809
 Alpha virt. eigenvalues --    2.58197   2.58891   2.59856   2.60411   2.63137
 Alpha virt. eigenvalues --    2.63995   2.64716   2.66371   2.66953   2.69467
 Alpha virt. eigenvalues --    2.71206   2.75612   2.76144   2.79307   2.79969
 Alpha virt. eigenvalues --    2.81889   2.84007   2.85914   2.86566   2.88735
 Alpha virt. eigenvalues --    2.89683   2.90936   2.93994   2.94810   3.00840
 Alpha virt. eigenvalues --    3.01446   3.02258   3.04688   3.33876   3.74470
 Alpha virt. eigenvalues --    3.77577   3.86590   3.87235   3.90572   3.95161
 Alpha virt. eigenvalues --    3.97326   4.03869   4.04114   4.04420   4.05700
 Alpha virt. eigenvalues --    4.08231   4.10003   4.15393   4.16020   4.17891
 Alpha virt. eigenvalues --    4.19370   4.23790   4.24880   4.25357   4.27760
 Alpha virt. eigenvalues --    4.28509   4.29001   4.37704   4.41475   4.41994
 Alpha virt. eigenvalues --    4.46152   4.52546   4.55763   4.61997   4.68140
          Condensed to atoms (all electrons):
 Mulliken charges:
               1
     1  N   -0.816041
     2  C   -0.126589
     3  C    0.630470
     4  O   -0.518275
     5  C   -0.288964
     6  C   -0.355249
     7  C    0.608572
     8  O   -0.621247
     9  O   -0.549921
    10  H    0.440923
    11  H    0.377263
    12  H    0.219191
    13  H    0.172211
    14  H    0.212268
    15  H    0.164100
    16  H    0.202470
    17  H    0.408690
    18  H    0.465679
    19  N   -0.606359
    20  C   -0.063445
    21  C    0.629586
    22  O   -0.554139
    23  C   -0.366159
    24  C    0.138833
    25  C   -0.185067
    26  C   -0.190560
    27  C   -0.193949
    28  C   -0.155404
    29  C    0.356037
    30  O   -0.629687
    31  H    0.333270
    32  H    0.210837
    33  H    0.165591
    34  H    0.174110
    35  H    0.150055
    36  H    0.133359
    37  H    0.134739
    38  H    0.158067
    39  H    0.415842
    40  N   -0.607068
    41  C   -0.070162
    42  C    0.620623
    43  O   -0.480691
    44  C   -0.314767
    45  C   -0.265377
    46  C   -0.308621
    47  C   -0.173120
    48  N   -0.814266
    49  O   -0.603183
    50  H    0.464751
    51  H    0.381326
    52  H    0.212942
    53  H    0.184452
    54  H    0.180133
    55  H    0.167170
    56  H    0.149580
    57  H    0.182952
    58  H    0.157908
    59  H    0.195030
    60  H    0.216510
    61  H    0.391664
    62  H    0.451109
 Sum of Mulliken charges =   1.00000
 Mulliken charges with hydrogens summed into heavy atoms:
               1
     1  N    0.435592
     2  C    0.092602
     3  C    0.630470
     4  O   -0.518275
     5  C    0.095515
     6  C    0.011321
     7  C    0.608572
     8  O   -0.621247
     9  O   -0.549921
    19  N   -0.273089
    20  C    0.147392
    21  C    0.629586
    22  O   -0.554139
    23  C   -0.026459
    24  C    0.138833
    25  C   -0.035011
    26  C   -0.057201
    27  C   -0.059210
    28  C    0.002663
    29  C    0.356037
    30  O   -0.213845
    40  N   -0.225743
    41  C    0.142780
    42  C    0.620623
    43  O   -0.480691
    44  C    0.049818
    45  C    0.051373
    46  C    0.032238
    47  C    0.238420
    48  N    0.469430
    49  O   -0.138433
 Electronic spatial extent (au):  <R**2>=       20267823.9512
 Charge=              1.0000 electrons
 Dipole moment (field-independent basis, Debye):
    X=             -8.0445    Y=           -416.7122    Z=            617.6132  Tot=            745.0905
 Quadrupole moment (field-independent basis, Debye-Ang):
   XX=           -135.4290   YY=          36019.5128   ZZ=          79248.1904
   XY=            690.8833   XZ=          -1018.1143   YZ=         -53568.6095
 Traceless Quadrupole moment (field-independent basis, Debye-Ang):
   XX=         -38512.8537   YY=          -2357.9119   ZZ=          40870.7657
   XY=            690.8833   XZ=          -1018.1143   YZ=         -53568.6095
 Octapole moment (field-independent basis, Debye-Ang**2):
  XXX=           1038.7170  YYY=       -3101289.1703  ZZZ=       10147078.2561  XYY=         -58878.7958
  XXY=          11876.0726  XXZ=         -17603.5601  XZZ=        -128442.1606  YZZ=       -6871645.7944
  YYZ=        4629168.2386  XYZ=          87388.0094
 Hexadecapole moment (field-independent basis, Debye-Ang**3):
 XXXX=         -15328.0401 YYYY=      265903341.4038 ZZZZ=     1296451430.3068 XXXY=         -93060.0850
 XXXZ=         133689.9033 YYYX=        4973776.6468 YYYZ=     -398474078.6617 ZZZX=      -16150853.0548
 ZZZY=     -879586270.9840 XXYY=       -1045363.4375 XXZZ=       -2290727.4041 YYZZ=      593647606.5930
 XXYZ=        1543562.0882 YYXZ=       -7442660.4286 ZZXY=       11016739.9022
 N-N= 3.443772903786D+03 E-N=-1.041963284532D+04  KE= 1.512258169110D+03
 Unable to Open any file for archive entry.
 1\1\GINC-VIM-000\SP\RB3LYP\6-31G(d)\C20H31N4O7(1+)\KENGMITH\24-May-202
 2\0\\# B3LYP/6-31G* empiricaldispersion=gd3 guess=read geom=check nosy
 mm integral(ultrafinegrid)\\Candidate Structure: Conf:304 Charge calc 
 in gas phase\\1,1\N,0,0.659502059,-88.2736582449,128.2355451796\C,0,-0
 .0765725059,-88.2838279195,129.5459777521\C,0,-1.5437858638,-88.707022
 9524,129.5809366217\O,0,-2.2104572779,-88.2617726349,130.5135943411\C,
 0,0.7752332985,-88.9387069651,130.6485660218\C,0,2.2034167107,-88.3333
 708493,130.7477943463\C,0,2.1286934128,-86.8301522747,130.4740505541\O
 ,0,2.0515035517,-86.4744448256,129.2372169007\O,0,2.0005193652,-86.041
 9014755,131.4359502334\H,0,1.2252047881,-84.7844621168,130.8061278342\
 H,0,1.0559244344,-89.1774680584,127.9707469338\H,0,-0.1554986957,-87.2
 206774915,129.7742033816\H,0,0.8351208615,-90.0226396654,130.491781679
 2\H,0,0.2290298327,-88.7741567325,131.5815019682\H,0,2.8662987004,-88.
 7991753662,130.0105718383\H,0,2.6087846964,-88.524209967,131.742890309
 \H,0,0.1052960206,-87.8862480019,127.4585383074\H,0,1.4818588959,-87.4
 872680184,128.5095930768\N,0,-2.0824580565,-89.4427103204,128.57014980
 99\C,0,-3.5427961759,-89.3425282201,128.3162947333\C,0,-3.6198995599,-
 88.0357388394,127.5061463831\O,0,-3.526774511,-88.0442917415,126.26991
 02951\C,0,-4.1053098185,-90.5465541345,127.5607806925\C,0,-5.609479329
 7,-90.4328933653,127.42302093\C,0,-6.1953619343,-89.9097172333,126.265
 1866341\C,0,-6.4483335873,-90.8107207966,128.4829492918\C,0,-7.5789066
 387,-89.7724651721,126.1603014729\C,0,-7.8285934611,-90.6770568593,128
 .3941736107\C,0,-8.4017042759,-90.1566474161,127.2257336907\O,0,-9.758
 4839413,-90.0520377514,127.1956354036\H,0,-1.5127038729,-89.6847016092
 ,127.7673858565\H,0,-4.0220852082,-89.2418850307,129.2904137067\H,0,-3
 .6311754758,-90.6062515463,126.5749344622\H,0,-3.830311526,-91.4478144
 654,128.1204374337\H,0,-5.563498335,-89.5987439555,125.4382229948\H,0,
 -6.0150219113,-91.2294797596,129.3894055487\H,0,-8.0191789968,-89.3717
 118317,125.2494823959\H,0,-8.4806654368,-90.9781842436,129.2074544215\
 H,0,-10.0437847634,-89.7176769814,126.3306582638\N,0,-3.5161150779,-86
 .8868700585,128.2264428453\C,0,-3.0652684562,-85.6289361528,127.603055
 7248\C,0,-1.5515759488,-85.8354043392,127.3242961951\O,0,-0.6293552093
 ,-85.3770941552,127.9677913081\C,0,-3.4712823516,-84.3796564848,128.41
 99139073\C,0,-2.4780984136,-83.7688722568,129.4279526724\C,0,-1.996912
 8153,-84.6700835441,130.5795079194\C,0,-0.7464125638,-84.110086455,131
 .2659039978\N,0,0.4699050383,-84.1518950158,130.3568825326\O,0,-1.2683
 175956,-86.7218391513,126.3537549949\H,0,-2.1027606429,-87.1274504061,
 125.9851083538\H,0,-3.4569196421,-86.9618052441,129.2376909124\H,0,-3.
 5753404396,-85.5830459346,126.6363205361\H,0,-3.7133473724,-83.5916131
 557,127.6992898721\H,0,-4.417257613,-84.6293437101,128.9162293608\H,0,
 -2.9642523615,-82.8851537356,129.8594756121\H,0,-1.6181297834,-83.3949
 158307,128.8643755635\H,0,-2.7788168747,-84.7658718419,131.3422199108\
 H,0,-1.7816742601,-85.6901209835,130.24387974\H,0,-0.897062021,-83.071
 8528093,131.570743054\H,0,-0.4818901571,-84.6934656437,132.1508196528\
 H,0,0.8690148691,-83.22792764,130.1840640445\H,0,0.2703732139,-84.5854
 877278,129.4435940488\\Version=ES64L-G16RevC.01\HF=-1526.3062399\RMSD=
 4.597e-09\Dipole=1.534801,1.6157867,-0.1442368\Quadrupole=-28633.36281
 32,-1753.04974,30386.4125531,513.6548239,-756.9430019,-39826.9481877\P
 G=C01 [X(C20H31N4O7)]\\@
 The archive entry for this job was punched.


 BE NOT THE FIRST BY WHOM THE NEW ARE TRIED,
 NOR YET THE THE LAST TO LAY THE OLD ASIDE.

                          -- ALEXANDER POPE
 Job cpu time:       0 days  0 hours  1 minutes 43.3 seconds.
 Elapsed time:       0 days  0 hours  0 minutes 26.4 seconds.
 File lengths (MBytes):  RWF=    264 Int=      0 D2E=      0 Chk=     40 Scr=     16
 Normal termination of Gaussian 16 at Tue May 24 19:13:23 2022.
