 Entering Gaussian System, Link 0=/opt/software/Gaussian/g16-AVX2-C.01/g16/g16
 Input=charge-conf-879.com
 Output=charge-conf-879.log
 Initial command:
 /opt/software/Gaussian/g16-AVX2-C.01/g16/l1.exe "/mnt/gs18/scratch/users/kengmith/Gau-5333.inp" -scrdir="/mnt/gs18/scratch/users/kengmith/"
 Entering Link 1 = /opt/software/Gaussian/g16-AVX2-C.01/g16/l1.exe PID=      5357.
  
 Copyright (c) 1988-2019, Gaussian, Inc.  All Rights Reserved.
  
 This is part of the Gaussian(R) 16 program.  It is based on
 the Gaussian(R) 09 system (copyright 2009, Gaussian, Inc.),
 the Gaussian(R) 03 system (copyright 2003, Gaussian, Inc.),
 the Gaussian(R) 98 system (copyright 1998, Gaussian, Inc.),
 the Gaussian(R) 94 system (copyright 1995, Gaussian, Inc.),
 the Gaussian 92(TM) system (copyright 1992, Gaussian, Inc.),
 the Gaussian 90(TM) system (copyright 1990, Gaussian, Inc.),
 the Gaussian 88(TM) system (copyright 1988, Gaussian, Inc.),
 the Gaussian 86(TM) system (copyright 1986, Carnegie Mellon
 University), and the Gaussian 82(TM) system (copyright 1983,
 Carnegie Mellon University). Gaussian is a federally registered
 trademark of Gaussian, Inc.
  
 This software contains proprietary and confidential information,
 including trade secrets, belonging to Gaussian, Inc.
  
 This software is provided under written license and may be
 used, copied, transmitted, or stored only in accord with that
 written license.
  
 The following legend is applicable only to US Government
 contracts under FAR:
  
                    RESTRICTED RIGHTS LEGEND
  
 Use, reproduction and disclosure by the US Government is
 subject to restrictions as set forth in subparagraphs (a)
 and (c) of the Commercial Computer Software - Restricted
 Rights clause in FAR 52.227-19.
  
 Gaussian, Inc.
 340 Quinnipiac St., Bldg. 40, Wallingford CT 06492
  
  
 ---------------------------------------------------------------
 Warning -- This program may not be used in any manner that
 competes with the business of Gaussian, Inc. or will provide
 assistance to any competitor of Gaussian, Inc.  The licensee
 of this program is prohibited from giving any competitor of
 Gaussian, Inc. access to this program.  By using this program,
 the user acknowledges that Gaussian, Inc. is engaged in the
 business of creating and licensing software in the field of
 computational chemistry and represents and warrants to the
 licensee that it is not a competitor of Gaussian, Inc. and that
 it will not use this program in any manner prohibited above.
 ---------------------------------------------------------------
  

 Cite this work as:
 Gaussian 16, Revision C.01,
 M. J. Frisch, G. W. Trucks, H. B. Schlegel, G. E. Scuseria, 
 M. A. Robb, J. R. Cheeseman, G. Scalmani, V. Barone, 
 G. A. Petersson, H. Nakatsuji, X. Li, M. Caricato, A. V. Marenich, 
 J. Bloino, B. G. Janesko, R. Gomperts, B. Mennucci, H. P. Hratchian, 
 J. V. Ortiz, A. F. Izmaylov, J. L. Sonnenberg, D. Williams-Young, 
 F. Ding, F. Lipparini, F. Egidi, J. Goings, B. Peng, A. Petrone, 
 T. Henderson, D. Ranasinghe, V. G. Zakrzewski, J. Gao, N. Rega, 
 G. Zheng, W. Liang, M. Hada, M. Ehara, K. Toyota, R. Fukuda, 
 J. Hasegawa, M. Ishida, T. Nakajima, Y. Honda, O. Kitao, H. Nakai, 
 T. Vreven, K. Throssell, J. A. Montgomery, Jr., J. E. Peralta, 
 F. Ogliaro, M. J. Bearpark, J. J. Heyd, E. N. Brothers, K. N. Kudin, 
 V. N. Staroverov, T. A. Keith, R. Kobayashi, J. Normand, 
 K. Raghavachari, A. P. Rendell, J. C. Burant, S. S. Iyengar, 
 J. Tomasi, M. Cossi, J. M. Millam, M. Klene, C. Adamo, R. Cammi, 
 J. W. Ochterski, R. L. Martin, K. Morokuma, O. Farkas, 
 J. B. Foresman, and D. J. Fox, Gaussian, Inc., Wallingford CT, 2019.
 
 ******************************************
 Gaussian 16:  ES64L-G16RevC.01  3-Jul-2019
                24-May-2022 
 ******************************************
 %mem=8gb
 %nproc=4
 Will use up to    4 processors via shared memory.
 %chk=conf-879.chk
 ----------------------------------------------------------------------
 # B3LYP/6-31G* empiricaldispersion=gd3 guess=read geom=check nosymm in
 tegral(ultrafinegrid)
 ----------------------------------------------------------------------
 1/29=2,38=1,172=1/1;
 2/12=2,15=1,40=1/2;
 3/5=1,6=6,7=1,11=2,14=-4,25=1,30=1,74=-5,75=-5,116=-2,124=31/1,2,3;
 4/5=1/1;
 5/5=2,38=6/2;
 6/7=2,8=2,9=2,10=2,28=1/1;
 99/5=1,9=1/99;
 ------------------------------------------------------
 Candidate Structure: Conf:879 Charge calc in gas phase
 ------------------------------------------------------
 Structure from the checkpoint file:  "conf-879.chk"
 Charge =  1 Multiplicity = 1
 Redundant internal coordinates found in file.  (old form).
 N,0,-1.6131737591,-84.1787219223,127.7517116371
 C,0,-2.8551333606,-84.9207334749,127.4927615609
 C,0,-3.1585164211,-85.9896943636,128.5489543131
 O,0,-4.1284181014,-86.7490226836,128.3394887714
 C,0,-4.144530054,-84.1051424216,127.1719852643
 C,0,-4.54022749,-84.1879009545,125.6850496361
 C,0,-4.5470945617,-85.589017555,125.0878801952
 O,0,-4.2256210231,-85.7877852016,123.9221357242
 O,0,-4.911441334,-86.6334956516,125.8309275129
 H,0,-4.8439226193,-86.5210184763,126.8243593216
 H,0,-1.3948349918,-83.59072927,126.9477876397
 H,0,-2.6188660951,-85.5303666131,126.6142516229
 H,0,-3.9856661176,-83.0540435888,127.4348064543
 H,0,-4.9726012037,-84.4558015312,127.7955245562
 H,0,-3.8631900093,-83.6018056445,125.0570034886
 H,0,-5.5435040767,-83.7663650697,125.5417191446
 H,0,-1.7152458704,-83.5405593631,128.5419968348
 H,0,-0.3598346544,-85.6972878817,127.4437797863
 N,0,-2.3571720954,-86.1231681661,129.615604044
 C,0,-2.3565710961,-87.3411452782,130.4605873405
 C,0,-1.2959722157,-88.249688873,129.788313381
 O,0,-0.1570193352,-88.3466019062,130.2007196552
 C,0,-2.0290016894,-87.0261558405,131.9239390694
 C,0,-2.2806957382,-88.2253615824,132.8147308126
 C,0,-3.5483033243,-88.4401481149,133.3679068777
 C,0,-1.2726943829,-89.1654265177,133.0772768439
 C,0,-3.811337066,-89.5551636213,134.1621780214
 C,0,-1.5200467071,-90.2816068188,133.8686950822
 C,0,-2.7933082206,-90.4819152786,134.4158809402
 O,0,-2.9736114853,-91.5939096492,135.1830344719
 H,0,-1.4991084546,-85.5826108,129.6220526928
 H,0,-3.3550810921,-87.7761473412,130.3826641186
 H,0,-0.9830264517,-86.7077721321,131.989740535
 H,0,-2.6575601885,-86.183185402,132.2326281627
 H,0,-4.3453656845,-87.7211979166,133.1880834959
 H,0,-0.2860243427,-89.020600013,132.6487551723
 H,0,-4.8006565763,-89.7000780885,134.5914520774
 H,0,-0.7407728105,-91.0064842321,134.0803232622
 H,0,-3.8792961185,-91.6083127546,135.5299001873
 N,0,-1.7174035475,-88.7920909902,128.5837367565
 C,0,-0.76517999,-88.9112206364,127.4716383895
 C,0,-0.7110832659,-87.5094122443,126.8463318764
 O,0,-1.2484951072,-87.1800411191,125.7900969291
 C,0,-1.1024573082,-90.0432296687,126.4717161003
 C,0,-2.5580698214,-90.5480234193,126.4460099905
 C,0,-3.6624432727,-89.6276199167,125.8893821384
 C,0,-3.6904399817,-89.4712677537,124.3599139497
 N,0,-2.9402552363,-88.2462315891,123.8830787033
 O,0,-0.1184823186,-86.6395468825,127.6524606326
 H,0,-2.6738641523,-88.5742444607,128.3250273259
 H,0,0.2077867624,-89.093320919,127.9337321439
 H,0,-0.7711652219,-89.73459314,125.4722763753
 H,0,-0.4782315331,-90.90189318,126.7377877143
 H,0,-2.8331726894,-90.8276145945,127.4688437302
 H,0,-2.5729369891,-91.484439475,125.8738322726
 H,0,-4.6273106353,-90.060915734,126.1743013607
 H,0,-3.6464411408,-88.6350099388,126.3490879064
 H,0,-3.2451317042,-90.3396995597,123.8672284658
 H,0,-4.7117276739,-89.3568454171,123.9926342046
 H,0,-2.1625044131,-87.9992162367,124.5304551959
 H,0,-3.5603784685,-87.3953511496,123.855181743
 H,0,-2.5622813322,-88.3709359507,122.9405635964
 Recover connectivity data from disk.
                           ----------------------------
                           !    Current Parameters    !
                           ! (Angstroms and Degrees)  !
 --------------------------                            --------------------------
 ! Name  Definition              Value                                          !
 --------------------------------------------------------------------------------
 ! R1    R(1,2)                  1.4697                                         !
 ! R2    R(1,11)                 1.0197                                         !
 ! R3    R(1,17)                 1.0209                                         !
 ! R4    R(1,18)                 1.9929                                         !
 ! R5    R(2,3)                  1.5331                                         !
 ! R6    R(2,5)                  1.559                                          !
 ! R7    R(2,12)                 1.0951                                         !
 ! R8    R(3,4)                  1.2495                                         !
 ! R9    R(3,19)                 1.3408                                         !
 ! R10   R(5,6)                  1.5409                                         !
 ! R11   R(5,13)                 1.095                                          !
 ! R12   R(5,14)                 1.0943                                         !
 ! R13   R(6,7)                  1.5231                                         !
 ! R14   R(6,15)                 1.0938                                         !
 ! R15   R(6,16)                 1.0976                                         !
 ! R16   R(7,8)                  1.2255                                         !
 ! R17   R(7,9)                  1.3326                                         !
 ! R18   R(9,10)                 1.0021                                         !
 ! R19   R(19,20)                1.4824                                         !
 ! R20   R(19,31)                1.0142                                         !
 ! R21   R(20,21)                1.5499                                         !
 ! R22   R(20,23)                1.5323                                         !
 ! R23   R(20,32)                1.0919                                         !
 ! R24   R(21,22)                1.2152                                         !
 ! R25   R(21,40)                1.3867                                         !
 ! R26   R(23,24)                1.5149                                         !
 ! R27   R(23,33)                1.0953                                         !
 ! R28   R(23,34)                1.0959                                         !
 ! R29   R(24,25)                1.3996                                         !
 ! R30   R(24,26)                1.4031                                         !
 ! R31   R(25,27)                1.394                                          !
 ! R32   R(25,35)                1.0884                                         !
 ! R33   R(26,28)                1.3905                                         !
 ! R34   R(26,36)                1.0854                                         !
 ! R35   R(27,29)                1.3999                                         !
 ! R36   R(27,37)                1.0881                                         !
 ! R37   R(28,29)                1.4003                                         !
 ! R38   R(28,38)                1.0851                                         !
 ! R39   R(29,30)                1.3629                                         !
 ! R40   R(30,39)                0.9699                                         !
 ! R41   R(40,41)                1.4689                                         !
 ! R42   R(40,50)                1.0145                                         !
 ! R43   R(41,42)                1.5359                                         !
 ! R44   R(41,44)                1.5476                                         !
 ! R45   R(41,51)                1.0924                                         !
 ! R46   R(42,43)                1.23                                           !
 ! R47   R(42,49)                1.3258                                         !
 ! R48   R(44,45)                1.5409                                         !
 ! R49   R(44,52)                1.0972                                         !
 ! R50   R(44,53)                1.0944                                         !
 ! R51   R(45,46)                1.5416                                         !
 ! R52   R(45,54)                1.0955                                         !
 ! R53   R(45,55)                1.0975                                         !
 ! R54   R(46,47)                1.5377                                         !
 ! R55   R(46,56)                1.0954                                         !
 ! R56   R(46,57)                1.094                                          !
 ! R57   R(47,48)                1.5136                                         !
 ! R58   R(47,58)                1.0933                                         !
 ! R59   R(47,59)                1.0913                                         !
 ! R60   R(48,60)                1.0416                                         !
 ! R61   R(48,61)                1.0532                                         !
 ! R62   R(48,62)                1.0231                                         !
 ! A1    A(2,1,11)             109.4611                                         !
 ! A2    A(2,1,17)             111.5611                                         !
 ! A3    A(2,1,18)              96.8641                                         !
 ! A4    A(11,1,17)            105.7398                                         !
 ! A5    A(11,1,18)            100.5396                                         !
 ! A6    A(17,1,18)            131.2089                                         !
 ! A7    A(1,2,3)              113.4451                                         !
 ! A8    A(1,2,5)              118.1                                            !
 ! A9    A(1,2,12)             103.8913                                         !
 ! A10   A(3,2,5)              110.0508                                         !
 ! A11   A(3,2,12)             101.9591                                         !
 ! A12   A(5,2,12)             107.734                                          !
 ! A13   A(2,3,4)              117.5077                                         !
 ! A14   A(2,3,19)             119.9485                                         !
 ! A15   A(4,3,19)             122.4668                                         !
 ! A16   A(2,5,6)              112.509                                          !
 ! A17   A(2,5,13)             109.4373                                         !
 ! A18   A(2,5,14)             109.9356                                         !
 ! A19   A(6,5,13)             108.6877                                         !
 ! A20   A(6,5,14)             109.7746                                         !
 ! A21   A(13,5,14)            106.2964                                         !
 ! A22   A(5,6,7)              115.3984                                         !
 ! A23   A(5,6,15)             111.4911                                         !
 ! A24   A(5,6,16)             109.883                                          !
 ! A25   A(7,6,15)             105.6998                                         !
 ! A26   A(7,6,16)             107.3356                                         !
 ! A27   A(15,6,16)            106.5598                                         !
 ! A28   A(6,7,8)              121.3987                                         !
 ! A29   A(6,7,9)              120.2411                                         !
 ! A30   A(8,7,9)              118.3599                                         !
 ! A31   A(7,9,10)             116.5127                                         !
 ! A32   A(3,19,20)            122.3782                                         !
 ! A33   A(3,19,31)            117.2372                                         !
 ! A34   A(20,19,31)           115.7199                                         !
 ! A35   A(19,20,21)           103.5718                                         !
 ! A36   A(19,20,23)           112.0587                                         !
 ! A37   A(19,20,32)           106.6349                                         !
 ! A38   A(21,20,23)           112.8578                                         !
 ! A39   A(21,20,32)           111.178                                          !
 ! A40   A(23,20,32)           110.2143                                         !
 ! A41   A(20,21,22)           122.7453                                         !
 ! A42   A(20,21,40)           113.4603                                         !
 ! A43   A(22,21,40)           123.2622                                         !
 ! A44   A(20,23,24)           111.3039                                         !
 ! A45   A(20,23,33)           108.7396                                         !
 ! A46   A(20,23,34)           107.7291                                         !
 ! A47   A(24,23,33)           110.6972                                         !
 ! A48   A(24,23,34)           110.364                                          !
 ! A49   A(33,23,34)           107.8907                                         !
 ! A50   A(23,24,25)           120.2884                                         !
 ! A51   A(23,24,26)           121.4014                                         !
 ! A52   A(25,24,26)           118.2858                                         !
 ! A53   A(24,25,27)           121.2533                                         !
 ! A54   A(24,25,35)           119.775                                          !
 ! A55   A(27,25,35)           118.968                                          !
 ! A56   A(24,26,28)           121.0997                                         !
 ! A57   A(24,26,36)           119.3261                                         !
 ! A58   A(28,26,36)           119.5728                                         !
 ! A59   A(25,27,29)           119.7072                                         !
 ! A60   A(25,27,37)           120.1888                                         !
 ! A61   A(29,27,37)           120.1013                                         !
 ! A62   A(26,28,29)           119.9345                                         !
 ! A63   A(26,28,38)           121.2982                                         !
 ! A64   A(29,28,38)           118.7662                                         !
 ! A65   A(27,29,28)           119.7193                                         !
 ! A66   A(27,29,30)           123.0894                                         !
 ! A67   A(28,29,30)           117.1913                                         !
 ! A68   A(29,30,39)           109.6902                                         !
 ! A69   A(21,40,41)           119.4976                                         !
 ! A70   A(21,40,50)           115.0915                                         !
 ! A71   A(41,40,50)           115.8181                                         !
 ! A72   A(40,41,42)           104.8948                                         !
 ! A73   A(40,41,44)           114.0299                                         !
 ! A74   A(40,41,51)           105.7024                                         !
 ! A75   A(42,41,44)           114.3449                                         !
 ! A76   A(42,41,51)           107.0369                                         !
 ! A77   A(44,41,51)           110.2114                                         !
 ! A78   A(41,42,43)           125.3534                                         !
 ! A79   A(41,42,49)           111.5324                                         !
 ! A80   A(43,42,49)           122.802                                          !
 ! A81   A(41,44,45)           117.1477                                         !
 ! A82   A(41,44,52)           108.4803                                         !
 ! A83   A(41,44,53)           107.0082                                         !
 ! A84   A(45,44,52)           111.2345                                         !
 ! A85   A(45,44,53)           106.6088                                         !
 ! A86   A(52,44,53)           105.6601                                         !
 ! A87   A(44,45,46)           119.1544                                         !
 ! A88   A(44,45,54)           107.7744                                         !
 ! A89   A(44,45,55)           107.5187                                         !
 ! A90   A(46,45,54)           108.0353                                         !
 ! A91   A(46,45,55)           108.1475                                         !
 ! A92   A(54,45,55)           105.4035                                         !
 ! A93   A(45,46,47)           115.6506                                         !
 ! A94   A(45,46,56)           107.5133                                         !
 ! A95   A(45,46,57)           112.3025                                         !
 ! A96   A(47,46,56)           106.4332                                         !
 ! A97   A(47,46,57)           109.0241                                         !
 ! A98   A(56,46,57)           105.2175                                         !
 ! A99   A(46,47,48)           112.745                                          !
 ! A100  A(46,47,58)           111.104                                          !
 ! A101  A(46,47,59)           111.2501                                         !
 ! A102  A(48,47,58)           107.4015                                         !
 ! A103  A(48,47,59)           105.8396                                         !
 ! A104  A(58,47,59)           108.2279                                         !
 ! A105  A(47,48,60)           111.4824                                         !
 ! A106  A(47,48,61)           111.7395                                         !
 ! A107  A(47,48,62)           112.0046                                         !
 ! A108  A(60,48,61)           105.3371                                         !
 ! A109  A(60,48,62)           109.002                                          !
 ! A110  A(61,48,62)           106.9528                                         !
 ! D1    D(11,1,2,3)           171.3068                                         !
 ! D2    D(11,1,2,5)           -57.7584                                         !
 ! D3    D(11,1,2,12)           61.4349                                         !
 ! D4    D(17,1,2,3)           -72.0151                                         !
 ! D5    D(17,1,2,5)            58.9198                                         !
 ! D6    D(17,1,2,12)          178.1131                                         !
 ! D7    D(18,1,2,3)            67.5421                                         !
 ! D8    D(18,1,2,5)          -161.523                                          !
 ! D9    D(18,1,2,12)          -42.3297                                         !
 ! D10   D(1,2,3,4)           -173.5325                                         !
 ! D11   D(1,2,3,19)             3.3555                                         !
 ! D12   D(5,2,3,4)             51.654                                          !
 ! D13   D(5,2,3,19)          -131.458                                          !
 ! D14   D(12,2,3,4)           -62.4724                                         !
 ! D15   D(12,2,3,19)          114.4156                                         !
 ! D16   D(1,2,5,6)            106.6734                                         !
 ! D17   D(1,2,5,13)           -14.2592                                         !
 ! D18   D(1,2,5,14)          -130.6522                                         !
 ! D19   D(3,2,5,6)           -120.8714                                         !
 ! D20   D(3,2,5,13)           118.196                                          !
 ! D21   D(3,2,5,14)             1.8031                                         !
 ! D22   D(12,2,5,6)           -10.4877                                         !
 ! D23   D(12,2,5,13)         -131.4203                                         !
 ! D24   D(12,2,5,14)          112.1868                                         !
 ! D25   D(2,3,19,20)         -162.5786                                         !
 ! D26   D(2,3,19,31)           -7.8441                                         !
 ! D27   D(4,3,19,20)           14.1498                                         !
 ! D28   D(4,3,19,31)          168.8843                                         !
 ! D29   D(2,5,6,7)             47.7564                                         !
 ! D30   D(2,5,6,15)           -72.8325                                         !
 ! D31   D(2,5,6,16)           169.2548                                         !
 ! D32   D(13,5,6,7)           169.1175                                         !
 ! D33   D(13,5,6,15)           48.5286                                         !
 ! D34   D(13,5,6,16)          -69.3841                                         !
 ! D35   D(14,5,6,7)           -75.0086                                         !
 ! D36   D(14,5,6,15)          164.4025                                         !
 ! D37   D(14,5,6,16)           46.4898                                         !
 ! D38   D(5,6,7,8)           -145.5483                                         !
 ! D39   D(5,6,7,9)             34.6792                                         !
 ! D40   D(15,6,7,8)           -21.8562                                         !
 ! D41   D(15,6,7,9)           158.3714                                         !
 ! D42   D(16,6,7,8)            91.5901                                         !
 ! D43   D(16,6,7,9)           -88.1824                                         !
 ! D44   D(6,7,9,10)           -21.9368                                         !
 ! D45   D(8,7,9,10)           158.2839                                         !
 ! D46   D(3,19,20,21)          89.7631                                         !
 ! D47   D(3,19,20,23)        -148.2999                                         !
 ! D48   D(3,19,20,32)         -27.6243                                         !
 ! D49   D(31,19,20,21)        -65.3253                                         !
 ! D50   D(31,19,20,23)         56.6117                                         !
 ! D51   D(31,19,20,32)        177.2874                                         !
 ! D52   D(19,20,21,22)         99.3212                                         !
 ! D53   D(19,20,21,40)        -72.5552                                         !
 ! D54   D(23,20,21,22)        -22.0804                                         !
 ! D55   D(23,20,21,40)        166.0433                                         !
 ! D56   D(32,20,21,22)       -146.5146                                         !
 ! D57   D(32,20,21,40)         41.609                                          !
 ! D58   D(19,20,23,24)        169.523                                          !
 ! D59   D(19,20,23,33)        -68.2765                                         !
 ! D60   D(19,20,23,34)         48.4052                                         !
 ! D61   D(21,20,23,24)        -74.0155                                         !
 ! D62   D(21,20,23,33)         48.1849                                         !
 ! D63   D(21,20,23,34)        164.8666                                         !
 ! D64   D(32,20,23,24)         50.9446                                         !
 ! D65   D(32,20,23,33)        173.145                                          !
 ! D66   D(32,20,23,34)        -70.1733                                         !
 ! D67   D(20,21,40,41)        141.3431                                         !
 ! D68   D(20,21,40,50)         -3.4839                                         !
 ! D69   D(22,21,40,41)        -30.4852                                         !
 ! D70   D(22,21,40,50)       -175.3122                                         !
 ! D71   D(20,23,24,25)        -87.7952                                         !
 ! D72   D(20,23,24,26)         90.3784                                         !
 ! D73   D(33,23,24,25)        151.1435                                         !
 ! D74   D(33,23,24,26)        -30.6829                                         !
 ! D75   D(34,23,24,25)         31.7683                                         !
 ! D76   D(34,23,24,26)       -150.0581                                         !
 ! D77   D(23,24,25,27)        178.3319                                         !
 ! D78   D(23,24,25,35)         -2.3805                                         !
 ! D79   D(26,24,25,27)          0.1022                                         !
 ! D80   D(26,24,25,35)        179.3897                                         !
 ! D81   D(23,24,26,28)       -178.373                                          !
 ! D82   D(23,24,26,36)          1.1953                                         !
 ! D83   D(25,24,26,28)         -0.1639                                         !
 ! D84   D(25,24,26,36)        179.4043                                         !
 ! D85   D(24,25,27,29)          0.0075                                         !
 ! D86   D(24,25,27,37)        179.4072                                         !
 ! D87   D(35,25,27,29)       -179.2856                                         !
 ! D88   D(35,25,27,37)          0.114                                          !
 ! D89   D(24,26,28,29)          0.1154                                         !
 ! D90   D(24,26,28,38)       -179.5054                                         !
 ! D91   D(36,26,28,29)       -179.4518                                         !
 ! D92   D(36,26,28,38)          0.9274                                         !
 ! D93   D(25,27,29,28)         -0.0589                                         !
 ! D94   D(25,27,29,30)        179.9187                                         !
 ! D95   D(37,27,29,28)       -179.4591                                         !
 ! D96   D(37,27,29,30)          0.5185                                         !
 ! D97   D(26,28,29,27)         -0.0018                                         !
 ! D98   D(26,28,29,30)       -179.9807                                         !
 ! D99   D(38,28,29,27)        179.6286                                         !
 ! D100  D(38,28,29,30)         -0.3503                                         !
 ! D101  D(27,29,30,39)         -1.9755                                         !
 ! D102  D(28,29,30,39)        178.0026                                         !
 ! D103  D(21,40,41,42)        -80.3768                                         !
 ! D104  D(21,40,41,44)        153.776                                          !
 ! D105  D(21,40,41,51)         32.5593                                         !
 ! D106  D(50,40,41,42)         64.2054                                         !
 ! D107  D(50,40,41,44)        -61.6418                                         !
 ! D108  D(50,40,41,51)        177.1415                                         !
 ! D109  D(40,41,42,43)       -104.4326                                         !
 ! D110  D(40,41,42,49)         69.274                                          !
 ! D111  D(44,41,42,43)         21.2181                                         !
 ! D112  D(44,41,42,49)       -165.0753                                         !
 ! D113  D(51,41,42,43)        143.5795                                         !
 ! D114  D(51,41,42,49)        -42.7139                                         !
 ! D115  D(40,41,44,45)         20.9494                                         !
 ! D116  D(40,41,44,52)        147.8576                                         !
 ! D117  D(40,41,44,53)        -98.5734                                         !
 ! D118  D(42,41,44,45)        -99.7567                                         !
 ! D119  D(42,41,44,52)         27.1515                                         !
 ! D120  D(42,41,44,53)        140.7206                                         !
 ! D121  D(51,41,44,45)        139.6288                                         !
 ! D122  D(51,41,44,52)        -93.463                                          !
 ! D123  D(51,41,44,53)         20.106                                          !
 ! D124  D(41,44,45,46)         69.7017                                         !
 ! D125  D(41,44,45,54)        -53.7419                                         !
 ! D126  D(41,44,45,55)       -166.926                                          !
 ! D127  D(52,44,45,46)        -55.8487                                         !
 ! D128  D(52,44,45,54)       -179.2922                                         !
 ! D129  D(52,44,45,55)         67.5236                                         !
 ! D130  D(53,44,45,46)       -170.5635                                         !
 ! D131  D(53,44,45,54)         65.993                                          !
 ! D132  D(53,44,45,55)        -47.1911                                         !
 ! D133  D(44,45,46,47)         74.4985                                         !
 ! D134  D(44,45,46,56)       -166.7763                                         !
 ! D135  D(44,45,46,57)        -51.5033                                         !
 ! D136  D(54,45,46,47)       -162.1859                                         !
 ! D137  D(54,45,46,56)        -43.4607                                         !
 ! D138  D(54,45,46,57)         71.8123                                         !
 ! D139  D(55,45,46,47)        -48.565                                          !
 ! D140  D(55,45,46,56)         70.1603                                         !
 ! D141  D(55,45,46,57)       -174.5668                                         !
 ! D142  D(45,46,47,48)        -95.1446                                         !
 ! D143  D(45,46,47,58)         25.4792                                         !
 ! D144  D(45,46,47,59)        146.132                                          !
 ! D145  D(56,46,47,48)        145.536                                          !
 ! D146  D(56,46,47,58)        -93.8402                                         !
 ! D147  D(56,46,47,59)         26.8126                                         !
 ! D148  D(57,46,47,48)         32.5087                                         !
 ! D149  D(57,46,47,58)        153.1325                                         !
 ! D150  D(57,46,47,59)        -86.2148                                         !
 ! D151  D(46,47,48,60)         29.1819                                         !
 ! D152  D(46,47,48,61)        -88.3949                                         !
 ! D153  D(46,47,48,62)        151.6239                                         !
 ! D154  D(58,47,48,60)        -93.5385                                         !
 ! D155  D(58,47,48,61)        148.8847                                         !
 ! D156  D(58,47,48,62)         28.9035                                         !
 ! D157  D(59,47,48,60)        151.0157                                         !
 ! D158  D(59,47,48,61)         33.4388                                         !
 ! D159  D(59,47,48,62)        -86.5423                                         !
 --------------------------------------------------------------------------------
 Symmetry turned off by external request.
 Stoichiometry    C20H31N4O7(1+)
 Framework group  C1[X(C20H31N4O7)]
 Deg. of freedom   180
 Full point group                 C1      NOp   1
                          Input orientation:                          
 ---------------------------------------------------------------------
 Center     Atomic      Atomic             Coordinates (Angstroms)
 Number     Number       Type             X           Y           Z
 ---------------------------------------------------------------------
      1          7           0       -1.613174  -84.178722  127.751712
      2          6           0       -2.855133  -84.920733  127.492762
      3          6           0       -3.158516  -85.989694  128.548954
      4          8           0       -4.128418  -86.749023  128.339489
      5          6           0       -4.144530  -84.105142  127.171985
      6          6           0       -4.540227  -84.187901  125.685050
      7          6           0       -4.547095  -85.589018  125.087880
      8          8           0       -4.225621  -85.787785  123.922136
      9          8           0       -4.911441  -86.633496  125.830928
     10          1           0       -4.843923  -86.521018  126.824359
     11          1           0       -1.394835  -83.590729  126.947788
     12          1           0       -2.618866  -85.530367  126.614252
     13          1           0       -3.985666  -83.054044  127.434806
     14          1           0       -4.972601  -84.455802  127.795525
     15          1           0       -3.863190  -83.601806  125.057003
     16          1           0       -5.543504  -83.766365  125.541719
     17          1           0       -1.715246  -83.540559  128.541997
     18          1           0       -0.359835  -85.697288  127.443780
     19          7           0       -2.357172  -86.123168  129.615604
     20          6           0       -2.356571  -87.341145  130.460587
     21          6           0       -1.295972  -88.249689  129.788313
     22          8           0       -0.157019  -88.346602  130.200720
     23          6           0       -2.029002  -87.026156  131.923939
     24          6           0       -2.280696  -88.225362  132.814731
     25          6           0       -3.548303  -88.440148  133.367907
     26          6           0       -1.272694  -89.165427  133.077277
     27          6           0       -3.811337  -89.555164  134.162178
     28          6           0       -1.520047  -90.281607  133.868695
     29          6           0       -2.793308  -90.481915  134.415881
     30          8           0       -2.973611  -91.593910  135.183034
     31          1           0       -1.499108  -85.582611  129.622053
     32          1           0       -3.355081  -87.776147  130.382664
     33          1           0       -0.983026  -86.707772  131.989741
     34          1           0       -2.657560  -86.183185  132.232628
     35          1           0       -4.345366  -87.721198  133.188083
     36          1           0       -0.286024  -89.020600  132.648755
     37          1           0       -4.800657  -89.700078  134.591452
     38          1           0       -0.740773  -91.006484  134.080323
     39          1           0       -3.879296  -91.608313  135.529900
     40          7           0       -1.717404  -88.792091  128.583737
     41          6           0       -0.765180  -88.911221  127.471638
     42          6           0       -0.711083  -87.509412  126.846332
     43          8           0       -1.248495  -87.180041  125.790097
     44          6           0       -1.102457  -90.043230  126.471716
     45          6           0       -2.558070  -90.548023  126.446010
     46          6           0       -3.662443  -89.627620  125.889382
     47          6           0       -3.690440  -89.471268  124.359914
     48          7           0       -2.940255  -88.246232  123.883079
     49          8           0       -0.118482  -86.639547  127.652461
     50          1           0       -2.673864  -88.574244  128.325027
     51          1           0        0.207787  -89.093321  127.933732
     52          1           0       -0.771165  -89.734593  125.472276
     53          1           0       -0.478232  -90.901893  126.737788
     54          1           0       -2.833173  -90.827615  127.468844
     55          1           0       -2.572937  -91.484439  125.873832
     56          1           0       -4.627311  -90.060916  126.174301
     57          1           0       -3.646441  -88.635010  126.349088
     58          1           0       -3.245132  -90.339700  123.867228
     59          1           0       -4.711728  -89.356845  123.992634
     60          1           0       -2.162504  -87.999216  124.530455
     61          1           0       -3.560378  -87.395351  123.855182
     62          1           0       -2.562281  -88.370936  122.940564
 ---------------------------------------------------------------------
 Rotational constants (GHZ):           0.2381541           0.0823947           0.0751598
 Standard basis: 6-31G(d) (6D, 7F)
   527 basis functions,   992 primitive gaussians,   527 cartesian basis functions
   117 alpha electrons      117 beta electrons
       nuclear repulsion energy      3450.6711866918 Hartrees.
 NAtoms=   62 NActive=   62 NUniq=   62 SFac= 1.00D+00 NAtFMM=   60 NAOKFM=T Big=T
 Integral buffers will be    131072 words long.
 Raffenetti 2 integral format.
 Two-electron integral symmetry is turned off.
 Nuclear repulsion after empirical dispersion term =     3450.5813737306 Hartrees.
 One-electron integrals computed using PRISM.
 NBasis=   527 RedAO= T EigKep=  4.33D-04  NBF=   527
 NBsUse=   527 1.00D-06 EigRej= -1.00D+00 NBFU=   527
 Initial guess from the checkpoint file:  "conf-879.chk"
 B after Tr=     0.000000    0.000000    0.000000
         Rot=    1.000000    0.000000    0.000000    0.000000 Ang=   0.00 deg.
 Requested convergence on RMS density matrix=1.00D-08 within 128 cycles.
 Requested convergence on MAX density matrix=1.00D-06.
 Requested convergence on             energy=1.00D-06.
 No special actions if energy rises.
 SCF Done:  E(RB3LYP) =  -1526.31872105     A.U. after    1 cycles
            NFock=  1  Conv=0.31D-08     -V/T= 2.0093

 **********************************************************************

            Population analysis using the SCF Density.

 **********************************************************************

 Alpha  occ. eigenvalues --  -19.31650 -19.30653 -19.28447 -19.26525 -19.26523
 Alpha  occ. eigenvalues --  -19.24016 -19.23098 -14.55491 -14.49993 -14.48015
 Alpha  occ. eigenvalues --  -14.47224 -10.45643 -10.44845 -10.43097 -10.39846
 Alpha  occ. eigenvalues --  -10.37092 -10.36816 -10.35701 -10.34532 -10.32627
 Alpha  occ. eigenvalues --  -10.32596 -10.31492 -10.31435 -10.30884 -10.30342
 Alpha  occ. eigenvalues --  -10.28193 -10.26190 -10.26110 -10.25571 -10.25405
 Alpha  occ. eigenvalues --  -10.24770  -1.23635  -1.22300  -1.17963  -1.15083
 Alpha  occ. eigenvalues --   -1.14745  -1.13536  -1.12137  -1.10583  -1.06521
 Alpha  occ. eigenvalues --   -1.04326  -1.03561  -0.92682  -0.92386  -0.92261
 Alpha  occ. eigenvalues --   -0.89395  -0.87801  -0.84315  -0.83730  -0.81325
 Alpha  occ. eigenvalues --   -0.80978  -0.78081  -0.77001  -0.75366  -0.73841
 Alpha  occ. eigenvalues --   -0.73531  -0.71940  -0.70530  -0.69542  -0.69218
 Alpha  occ. eigenvalues --   -0.68842  -0.68266  -0.66850  -0.65934  -0.64587
 Alpha  occ. eigenvalues --   -0.63661  -0.63080  -0.62257  -0.61517  -0.60800
 Alpha  occ. eigenvalues --   -0.60667  -0.60127  -0.59895  -0.59297  -0.58716
 Alpha  occ. eigenvalues --   -0.58026  -0.56799  -0.56005  -0.55491  -0.55284
 Alpha  occ. eigenvalues --   -0.54773  -0.54313  -0.53796  -0.53438  -0.53011
 Alpha  occ. eigenvalues --   -0.52723  -0.51914  -0.51209  -0.50603  -0.50308
 Alpha  occ. eigenvalues --   -0.49919  -0.49548  -0.49423  -0.48902  -0.48485
 Alpha  occ. eigenvalues --   -0.47953  -0.47092  -0.46810  -0.46416  -0.45682
 Alpha  occ. eigenvalues --   -0.45392  -0.44941  -0.44898  -0.44165  -0.43700
 Alpha  occ. eigenvalues --   -0.42768  -0.42413  -0.41432  -0.40546  -0.40315
 Alpha  occ. eigenvalues --   -0.40133  -0.39559  -0.39322  -0.36981  -0.35598
 Alpha  occ. eigenvalues --   -0.31720  -0.28385
 Alpha virt. eigenvalues --   -0.14988  -0.12466  -0.11520  -0.08101  -0.07329
 Alpha virt. eigenvalues --   -0.06762  -0.06443  -0.05611  -0.03535  -0.02072
 Alpha virt. eigenvalues --   -0.01830  -0.01432  -0.00742  -0.00087   0.00355
 Alpha virt. eigenvalues --    0.00779   0.00957   0.01076   0.01855   0.02125
 Alpha virt. eigenvalues --    0.02951   0.03418   0.04277   0.04355   0.04791
 Alpha virt. eigenvalues --    0.05468   0.05559   0.05947   0.06295   0.06702
 Alpha virt. eigenvalues --    0.07113   0.07504   0.07637   0.08256   0.08479
 Alpha virt. eigenvalues --    0.09471   0.09861   0.10147   0.10790   0.11141
 Alpha virt. eigenvalues --    0.11413   0.11576   0.11946   0.12901   0.13005
 Alpha virt. eigenvalues --    0.13554   0.13962   0.14222   0.15245   0.15563
 Alpha virt. eigenvalues --    0.16257   0.17146   0.17414   0.19183   0.20698
 Alpha virt. eigenvalues --    0.21231   0.21696   0.23715   0.24707   0.25865
 Alpha virt. eigenvalues --    0.26397   0.27055   0.27542   0.27590   0.28701
 Alpha virt. eigenvalues --    0.29502   0.30870   0.34740   0.35965   0.37641
 Alpha virt. eigenvalues --    0.38980   0.39668   0.40038   0.40620   0.41125
 Alpha virt. eigenvalues --    0.42497   0.43013   0.43306   0.44051   0.44372
 Alpha virt. eigenvalues --    0.44900   0.45760   0.46001   0.46559   0.46768
 Alpha virt. eigenvalues --    0.47510   0.47928   0.48322   0.49493   0.49956
 Alpha virt. eigenvalues --    0.50476   0.50514   0.51043   0.51887   0.52179
 Alpha virt. eigenvalues --    0.52766   0.53320   0.53493   0.53918   0.54348
 Alpha virt. eigenvalues --    0.54773   0.55096   0.55446   0.56208   0.56924
 Alpha virt. eigenvalues --    0.57436   0.57647   0.57977   0.58469   0.58624
 Alpha virt. eigenvalues --    0.58785   0.59705   0.61249   0.61447   0.62108
 Alpha virt. eigenvalues --    0.62581   0.63057   0.64264   0.65077   0.66159
 Alpha virt. eigenvalues --    0.67018   0.67733   0.67937   0.68999   0.69235
 Alpha virt. eigenvalues --    0.70322   0.70585   0.71209   0.71389   0.72371
 Alpha virt. eigenvalues --    0.72606   0.73276   0.73824   0.74077   0.74795
 Alpha virt. eigenvalues --    0.75416   0.75532   0.75782   0.76296   0.76692
 Alpha virt. eigenvalues --    0.77132   0.77872   0.78212   0.78699   0.79295
 Alpha virt. eigenvalues --    0.79494   0.79580   0.80128   0.80434   0.80566
 Alpha virt. eigenvalues --    0.81709   0.82116   0.82580   0.83166   0.83664
 Alpha virt. eigenvalues --    0.84288   0.84776   0.85226   0.85555   0.86365
 Alpha virt. eigenvalues --    0.86950   0.87486   0.87802   0.88574   0.89059
 Alpha virt. eigenvalues --    0.90052   0.90341   0.90520   0.92000   0.92299
 Alpha virt. eigenvalues --    0.92795   0.93800   0.94934   0.94983   0.96235
 Alpha virt. eigenvalues --    0.96906   0.98554   0.99140   1.00754   1.01430
 Alpha virt. eigenvalues --    1.01868   1.02283   1.02962   1.05310   1.06681
 Alpha virt. eigenvalues --    1.08577   1.09118   1.09695   1.10058   1.11200
 Alpha virt. eigenvalues --    1.11958   1.13504   1.13885   1.14455   1.15239
 Alpha virt. eigenvalues --    1.16943   1.17588   1.18397   1.19305   1.20419
 Alpha virt. eigenvalues --    1.22444   1.22957   1.23972   1.25745   1.26236
 Alpha virt. eigenvalues --    1.27282   1.27572   1.28673   1.29762   1.30331
 Alpha virt. eigenvalues --    1.31447   1.32379   1.32912   1.34301   1.35164
 Alpha virt. eigenvalues --    1.36283   1.37767   1.38418   1.38688   1.39272
 Alpha virt. eigenvalues --    1.40132   1.41308   1.41622   1.44032   1.44589
 Alpha virt. eigenvalues --    1.46131   1.47467   1.47912   1.48667   1.49643
 Alpha virt. eigenvalues --    1.50623   1.51829   1.52337   1.53608   1.55810
 Alpha virt. eigenvalues --    1.56580   1.57606   1.58540   1.59490   1.60975
 Alpha virt. eigenvalues --    1.61104   1.61846   1.63226   1.64651   1.65117
 Alpha virt. eigenvalues --    1.65848   1.67025   1.67248   1.67813   1.68464
 Alpha virt. eigenvalues --    1.69086   1.69288   1.70261   1.70373   1.71418
 Alpha virt. eigenvalues --    1.71807   1.72351   1.72813   1.73313   1.73939
 Alpha virt. eigenvalues --    1.74802   1.76772   1.76941   1.77626   1.78309
 Alpha virt. eigenvalues --    1.79747   1.79969   1.80706   1.81724   1.82479
 Alpha virt. eigenvalues --    1.83332   1.83820   1.84457   1.85297   1.85654
 Alpha virt. eigenvalues --    1.86639   1.87175   1.87580   1.88876   1.89470
 Alpha virt. eigenvalues --    1.89841   1.90719   1.91137   1.91602   1.91981
 Alpha virt. eigenvalues --    1.92271   1.93174   1.94030   1.94686   1.95238
 Alpha virt. eigenvalues --    1.96648   1.97392   1.98041   1.99317   2.00005
 Alpha virt. eigenvalues --    2.01113   2.01817   2.02800   2.04218   2.06361
 Alpha virt. eigenvalues --    2.06692   2.07358   2.07684   2.08024   2.10472
 Alpha virt. eigenvalues --    2.11644   2.12686   2.13046   2.16940   2.18420
 Alpha virt. eigenvalues --    2.19562   2.19911   2.20508   2.21118   2.22624
 Alpha virt. eigenvalues --    2.23413   2.24735   2.26456   2.27003   2.27469
 Alpha virt. eigenvalues --    2.28427   2.29199   2.29801   2.30728   2.31676
 Alpha virt. eigenvalues --    2.32252   2.33209   2.33613   2.34198   2.34965
 Alpha virt. eigenvalues --    2.35569   2.36933   2.37503   2.39660   2.41345
 Alpha virt. eigenvalues --    2.42669   2.43312   2.43748   2.44153   2.45600
 Alpha virt. eigenvalues --    2.47162   2.48102   2.49465   2.51244   2.52683
 Alpha virt. eigenvalues --    2.53488   2.53579   2.54553   2.55124   2.56772
 Alpha virt. eigenvalues --    2.58291   2.59154   2.59443   2.60558   2.62046
 Alpha virt. eigenvalues --    2.63800   2.65160   2.66400   2.68542   2.72032
 Alpha virt. eigenvalues --    2.72482   2.73324   2.75451   2.79377   2.80550
 Alpha virt. eigenvalues --    2.83045   2.83508   2.85417   2.86981   2.90627
 Alpha virt. eigenvalues --    2.90957   2.92432   2.93754   2.97306   2.97822
 Alpha virt. eigenvalues --    3.01859   3.02749   3.05657   3.35055   3.73691
 Alpha virt. eigenvalues --    3.77383   3.83863   3.87867   3.90635   3.93844
 Alpha virt. eigenvalues --    3.97092   4.01107   4.03826   4.04798   4.05928
 Alpha virt. eigenvalues --    4.07222   4.09829   4.15600   4.16243   4.17951
 Alpha virt. eigenvalues --    4.22740   4.23384   4.26305   4.27736   4.28432
 Alpha virt. eigenvalues --    4.35048   4.36767   4.39991   4.43277   4.44274
 Alpha virt. eigenvalues --    4.45479   4.52653   4.56643   4.59662   4.69751
          Condensed to atoms (all electrons):
 Mulliken charges:
               1
     1  N   -0.787363
     2  C   -0.100403
     3  C    0.630950
     4  O   -0.578674
     5  C   -0.326738
     6  C   -0.364265
     7  C    0.603848
     8  O   -0.493018
     9  O   -0.603265
    10  H    0.470412
    11  H    0.347980
    12  H    0.206827
    13  H    0.180026
    14  H    0.195428
    15  H    0.194003
    16  H    0.215964
    17  H    0.338533
    18  H    0.448040
    19  N   -0.583918
    20  C   -0.084533
    21  C    0.640081
    22  O   -0.472915
    23  C   -0.363195
    24  C    0.139952
    25  C   -0.189863
    26  C   -0.186881
    27  C   -0.191435
    28  C   -0.159927
    29  C    0.354938
    30  O   -0.632421
    31  H    0.364980
    32  H    0.201898
    33  H    0.173917
    34  H    0.160240
    35  H    0.125847
    36  H    0.161167
    37  H    0.130658
    38  H    0.154147
    39  H    0.413536
    40  N   -0.631174
    41  C   -0.030863
    42  C    0.597054
    43  O   -0.523691
    44  C   -0.296995
    45  C   -0.292687
    46  C   -0.310729
    47  C   -0.171156
    48  N   -0.810651
    49  O   -0.557817
    50  H    0.359872
    51  H    0.228674
    52  H    0.139525
    53  H    0.186748
    54  H    0.181302
    55  H    0.162163
    56  H    0.187462
    57  H    0.162834
    58  H    0.195978
    59  H    0.212166
    60  H    0.442565
    61  H    0.440448
    62  H    0.394416
 Sum of Mulliken charges =   1.00000
 Mulliken charges with hydrogens summed into heavy atoms:
               1
     1  N   -0.100850
     2  C    0.106424
     3  C    0.630950
     4  O   -0.578674
     5  C    0.048716
     6  C    0.045702
     7  C    0.603848
     8  O   -0.493018
     9  O   -0.132853
    19  N   -0.218938
    20  C    0.117365
    21  C    0.640081
    22  O   -0.472915
    23  C   -0.029038
    24  C    0.139952
    25  C   -0.064016
    26  C   -0.025715
    27  C   -0.060777
    28  C   -0.005781
    29  C    0.354938
    30  O   -0.218885
    40  N   -0.271302
    41  C    0.197811
    42  C    0.597054
    43  O   -0.523691
    44  C    0.029278
    45  C    0.050778
    46  C    0.039567
    47  C    0.236988
    48  N    0.466778
    49  O   -0.109777
 Electronic spatial extent (au):  <R**2>=       20275101.4711
 Charge=              1.0000 electrons
 Dipole moment (field-independent basis, Debye):
    X=            -15.1073    Y=           -417.2758    Z=            607.3665  Tot=            737.0491
 Quadrupole moment (field-independent basis, Debye-Ang):
   XX=           -125.7741   YY=          36115.6893   ZZ=          76663.5264
   XY=           1318.6759   XZ=          -1928.7799   YZ=         -52749.6179
 Traceless Quadrupole moment (field-independent basis, Debye-Ang):
   XX=         -37676.9213   YY=          -1435.4579   ZZ=          39112.3792
   XY=           1318.6759   XZ=          -1928.7799   YZ=         -52749.6179
 Octapole moment (field-independent basis, Debye-Ang**2):
  XXX=           1160.2535  YYY=       -3113602.7292  ZZZ=        9658146.2796  XYY=        -114789.1321
  XXY=          11040.8807  XXZ=         -16191.2816  XZZ=        -246031.9398  YZZ=       -6656257.8943
  YYZ=        4563843.9171  XYZ=         168380.7425
 Hexadecapole moment (field-independent basis, Debye-Ang**3):
 XXXX=          -8294.7789 YYYY=      267305864.0541 ZZZZ=     1214237499.3434 XXXY=        -101444.1507
 XXXZ=         148703.7232 YYYX=        9964342.7652 YYYZ=     -393272730.1603 ZZZX=      -31355396.0216
 ZZZY=     -838306251.2778 XXYY=        -970902.5787 XXZZ=       -2086768.1939 YYZZ=      575666520.2545
 XXYZ=        1421507.2253 YYXZ=      -14659084.8665 ZZXY=       21481950.2107
 N-N= 3.450581373731D+03 E-N=-1.043413539811D+04  KE= 1.512236403694D+03
 Unable to Open any file for archive entry.
 1\1\GINC-VIM-001\SP\RB3LYP\6-31G(d)\C20H31N4O7(1+)\KENGMITH\24-May-202
 2\0\\# B3LYP/6-31G* empiricaldispersion=gd3 guess=read geom=check nosy
 mm integral(ultrafinegrid)\\Candidate Structure: Conf:879 Charge calc 
 in gas phase\\1,1\N,0,-1.6131737591,-84.1787219223,127.7517116371\C,0,
 -2.8551333606,-84.9207334749,127.4927615609\C,0,-3.1585164211,-85.9896
 943636,128.5489543131\O,0,-4.1284181014,-86.7490226836,128.3394887714\
 C,0,-4.144530054,-84.1051424216,127.1719852643\C,0,-4.54022749,-84.187
 9009545,125.6850496361\C,0,-4.5470945617,-85.589017555,125.0878801952\
 O,0,-4.2256210231,-85.7877852016,123.9221357242\O,0,-4.911441334,-86.6
 334956516,125.8309275129\H,0,-4.8439226193,-86.5210184763,126.82435932
 16\H,0,-1.3948349918,-83.59072927,126.9477876397\H,0,-2.6188660951,-85
 .5303666131,126.6142516229\H,0,-3.9856661176,-83.0540435888,127.434806
 4543\H,0,-4.9726012037,-84.4558015312,127.7955245562\H,0,-3.8631900093
 ,-83.6018056445,125.0570034886\H,0,-5.5435040767,-83.7663650697,125.54
 17191446\H,0,-1.7152458704,-83.5405593631,128.5419968348\H,0,-0.359834
 6544,-85.6972878817,127.4437797863\N,0,-2.3571720954,-86.1231681661,12
 9.615604044\C,0,-2.3565710961,-87.3411452782,130.4605873405\C,0,-1.295
 9722157,-88.249688873,129.788313381\O,0,-0.1570193352,-88.3466019062,1
 30.2007196552\C,0,-2.0290016894,-87.0261558405,131.9239390694\C,0,-2.2
 806957382,-88.2253615824,132.8147308126\C,0,-3.5483033243,-88.44014811
 49,133.3679068777\C,0,-1.2726943829,-89.1654265177,133.0772768439\C,0,
 -3.811337066,-89.5551636213,134.1621780214\C,0,-1.5200467071,-90.28160
 68188,133.8686950822\C,0,-2.7933082206,-90.4819152786,134.4158809402\O
 ,0,-2.9736114853,-91.5939096492,135.1830344719\H,0,-1.4991084546,-85.5
 826108,129.6220526928\H,0,-3.3550810921,-87.7761473412,130.3826641186\
 H,0,-0.9830264517,-86.7077721321,131.989740535\H,0,-2.6575601885,-86.1
 83185402,132.2326281627\H,0,-4.3453656845,-87.7211979166,133.188083495
 9\H,0,-0.2860243427,-89.020600013,132.6487551723\H,0,-4.8006565763,-89
 .7000780885,134.5914520774\H,0,-0.7407728105,-91.0064842321,134.080323
 2622\H,0,-3.8792961185,-91.6083127546,135.5299001873\N,0,-1.7174035475
 ,-88.7920909902,128.5837367565\C,0,-0.76517999,-88.9112206364,127.4716
 383895\C,0,-0.7110832659,-87.5094122443,126.8463318764\O,0,-1.24849510
 72,-87.1800411191,125.7900969291\C,0,-1.1024573082,-90.0432296687,126.
 4717161003\C,0,-2.5580698214,-90.5480234193,126.4460099905\C,0,-3.6624
 432727,-89.6276199167,125.8893821384\C,0,-3.6904399817,-89.4712677537,
 124.3599139497\N,0,-2.9402552363,-88.2462315891,123.8830787033\O,0,-0.
 1184823186,-86.6395468825,127.6524606326\H,0,-2.6738641523,-88.5742444
 607,128.3250273259\H,0,0.2077867624,-89.093320919,127.9337321439\H,0,-
 0.7711652219,-89.73459314,125.4722763753\H,0,-0.4782315331,-90.9018931
 8,126.7377877143\H,0,-2.8331726894,-90.8276145945,127.4688437302\H,0,-
 2.5729369891,-91.484439475,125.8738322726\H,0,-4.6273106353,-90.060915
 734,126.1743013607\H,0,-3.6464411408,-88.6350099388,126.3490879064\H,0
 ,-3.2451317042,-90.3396995597,123.8672284658\H,0,-4.7117276739,-89.356
 8454171,123.9926342046\H,0,-2.1625044131,-87.9992162367,124.5304551959
 \H,0,-3.5603784685,-87.3953511496,123.855181743\H,0,-2.5622813322,-88.
 3709359507,122.9405635964\\Version=ES64L-G16RevC.01\HF=-1526.318721\RM
 SD=3.111e-09\Dipole=-1.0879401,1.5695648,-4.1049074\Quadrupole=-28011.
 8675307,-1067.2277932,29079.095324,980.4032261,-1434.0005894,-39218.04
 80256\PG=C01 [X(C20H31N4O7)]\\@
 The archive entry for this job was punched.


 The hours that make us happy make us wise.
                         -- John Masefield
 Job cpu time:       0 days  0 hours  1 minutes 47.2 seconds.
 Elapsed time:       0 days  0 hours  0 minutes 27.3 seconds.
 File lengths (MBytes):  RWF=    264 Int=      0 D2E=      0 Chk=     40 Scr=     16
 Normal termination of Gaussian 16 at Tue May 24 19:13:25 2022.
