 Entering Gaussian System, Link 0=/opt/software/Gaussian/g16-AVX2-C.01/g16/g16
 Input=charge-conf-34.com
 Output=charge-conf-34.log
 Initial command:
 /opt/software/Gaussian/g16-AVX2-C.01/g16/l1.exe "/mnt/gs18/scratch/users/kengmith/Gau-10176.inp" -scrdir="/mnt/gs18/scratch/users/kengmith/"
 Entering Link 1 = /opt/software/Gaussian/g16-AVX2-C.01/g16/l1.exe PID=     10186.
  
 Copyright (c) 1988-2019, Gaussian, Inc.  All Rights Reserved.
  
 This is part of the Gaussian(R) 16 program.  It is based on
 the Gaussian(R) 09 system (copyright 2009, Gaussian, Inc.),
 the Gaussian(R) 03 system (copyright 2003, Gaussian, Inc.),
 the Gaussian(R) 98 system (copyright 1998, Gaussian, Inc.),
 the Gaussian(R) 94 system (copyright 1995, Gaussian, Inc.),
 the Gaussian 92(TM) system (copyright 1992, Gaussian, Inc.),
 the Gaussian 90(TM) system (copyright 1990, Gaussian, Inc.),
 the Gaussian 88(TM) system (copyright 1988, Gaussian, Inc.),
 the Gaussian 86(TM) system (copyright 1986, Carnegie Mellon
 University), and the Gaussian 82(TM) system (copyright 1983,
 Carnegie Mellon University). Gaussian is a federally registered
 trademark of Gaussian, Inc.
  
 This software contains proprietary and confidential information,
 including trade secrets, belonging to Gaussian, Inc.
  
 This software is provided under written license and may be
 used, copied, transmitted, or stored only in accord with that
 written license.
  
 The following legend is applicable only to US Government
 contracts under FAR:
  
                    RESTRICTED RIGHTS LEGEND
  
 Use, reproduction and disclosure by the US Government is
 subject to restrictions as set forth in subparagraphs (a)
 and (c) of the Commercial Computer Software - Restricted
 Rights clause in FAR 52.227-19.
  
 Gaussian, Inc.
 340 Quinnipiac St., Bldg. 40, Wallingford CT 06492
  
  
 ---------------------------------------------------------------
 Warning -- This program may not be used in any manner that
 competes with the business of Gaussian, Inc. or will provide
 assistance to any competitor of Gaussian, Inc.  The licensee
 of this program is prohibited from giving any competitor of
 Gaussian, Inc. access to this program.  By using this program,
 the user acknowledges that Gaussian, Inc. is engaged in the
 business of creating and licensing software in the field of
 computational chemistry and represents and warrants to the
 licensee that it is not a competitor of Gaussian, Inc. and that
 it will not use this program in any manner prohibited above.
 ---------------------------------------------------------------
  

 Cite this work as:
 Gaussian 16, Revision C.01,
 M. J. Frisch, G. W. Trucks, H. B. Schlegel, G. E. Scuseria, 
 M. A. Robb, J. R. Cheeseman, G. Scalmani, V. Barone, 
 G. A. Petersson, H. Nakatsuji, X. Li, M. Caricato, A. V. Marenich, 
 J. Bloino, B. G. Janesko, R. Gomperts, B. Mennucci, H. P. Hratchian, 
 J. V. Ortiz, A. F. Izmaylov, J. L. Sonnenberg, D. Williams-Young, 
 F. Ding, F. Lipparini, F. Egidi, J. Goings, B. Peng, A. Petrone, 
 T. Henderson, D. Ranasinghe, V. G. Zakrzewski, J. Gao, N. Rega, 
 G. Zheng, W. Liang, M. Hada, M. Ehara, K. Toyota, R. Fukuda, 
 J. Hasegawa, M. Ishida, T. Nakajima, Y. Honda, O. Kitao, H. Nakai, 
 T. Vreven, K. Throssell, J. A. Montgomery, Jr., J. E. Peralta, 
 F. Ogliaro, M. J. Bearpark, J. J. Heyd, E. N. Brothers, K. N. Kudin, 
 V. N. Staroverov, T. A. Keith, R. Kobayashi, J. Normand, 
 K. Raghavachari, A. P. Rendell, J. C. Burant, S. S. Iyengar, 
 J. Tomasi, M. Cossi, J. M. Millam, M. Klene, C. Adamo, R. Cammi, 
 J. W. Ochterski, R. L. Martin, K. Morokuma, O. Farkas, 
 J. B. Foresman, and D. J. Fox, Gaussian, Inc., Wallingford CT, 2019.
 
 ******************************************
 Gaussian 16:  ES64L-G16RevC.01  3-Jul-2019
                24-May-2022 
 ******************************************
 %mem=8gb
 %nproc=4
 Will use up to    4 processors via shared memory.
 %chk=conf-34.chk
 ----------------------------------------------------------------------
 # B3LYP/6-31G* empiricaldispersion=gd3 guess=read geom=check nosymm in
 tegral(ultrafinegrid)
 ----------------------------------------------------------------------
 1/29=2,38=1,172=1/1;
 2/12=2,15=1,40=1/2;
 3/5=1,6=6,7=1,11=2,14=-4,25=1,30=1,74=-5,75=-5,116=-2,124=31/1,2,3;
 4/5=1/1;
 5/5=2,38=6/2;
 6/7=2,8=2,9=2,10=2,28=1/1;
 99/5=1,9=1/99;
 -----------------------------------------------------
 Candidate Structure: Conf:34 Charge calc in gas phase
 -----------------------------------------------------
 Structure from the checkpoint file:  "conf-34.chk"
 Charge =  1 Multiplicity = 1
 Redundant internal coordinates found in file.  (old form).
 N,0,-0.4007111738,-91.4163642476,124.7874560687
 C,0,-0.9898070949,-91.1875216104,126.1535466265
 C,0,-0.595208084,-89.7308044957,126.507151509
 O,0,-0.2764772822,-88.975218046,125.5879275554
 C,0,-2.5306179202,-91.2908241202,126.1310261041
 C,0,-3.1358903745,-92.7041281082,126.0984909028
 C,0,-3.0250970944,-93.4333128286,124.7658088358
 O,0,-2.252589486,-93.1173844635,123.8741477617
 O,0,-3.8092565615,-94.4954870948,124.5842532615
 H,0,-4.4036714397,-94.6465401946,125.3393938422
 H,0,-0.3156645643,-90.4590140129,124.3812930444
 H,0,-0.5540516064,-91.9105277357,126.8487190509
 H,0,-2.9092710921,-90.6973576978,125.2898980437
 H,0,-2.8943121952,-90.7947440183,127.0387486367
 H,0,-4.1966531984,-92.6274327987,126.368439233
 H,0,-2.6774563363,-93.3431737792,126.8671425128
 H,0,0.5407062823,-91.8159900443,124.8279839214
 H,0,-1.0333875259,-92.0446872764,124.2263791912
 N,0,-0.6991865546,-89.4184720682,127.806009081
 C,0,-0.9812318239,-88.0574962365,128.2704546993
 C,0,-2.4434958029,-88.1228734466,128.8005497557
 O,0,-2.9488399684,-89.2303627047,129.0528584995
 C,0,0.0579167901,-87.6152854967,129.3356946252
 C,0,-0.242324332,-86.243132443,129.8940747545
 C,0,-0.6939376961,-86.0815970075,131.2090660054
 C,0,-0.2010314681,-85.1112193957,129.0675448744
 C,0,-1.1538342014,-84.8508851612,131.6703213779
 C,0,-0.6823226456,-83.880523291,129.5066552661
 C,0,-1.2065060885,-83.7628100871,130.7968791051
 O,0,-1.8092587157,-82.617859554,131.2500625876
 H,0,-1.1829282763,-90.0902844024,128.4029235227
 H,0,-0.9259300745,-87.3894461026,127.4077691426
 H,0,0.0678427527,-88.3593599526,130.1408754737
 H,0,1.0422822678,-87.6494322742,128.8530856696
 H,0,-0.7098746662,-86.9373681563,131.8796402542
 H,0,0.1759609335,-85.1965947361,128.0504724132
 H,0,-1.5096589628,-84.7299364089,132.6878782261
 H,0,-0.6958320014,-83.0279604915,128.8318663304
 H,0,-1.7336025009,-81.9334373461,130.5662720041
 N,0,-3.0703113293,-86.9539508821,128.9273508777
 C,0,-4.3926755293,-86.7646853349,129.51934332
 C,0,-4.7249214767,-85.2672282984,129.3834264006
 O,0,-5.9622568456,-84.9743653099,129.5257919014
 C,0,-4.4153002434,-87.2139858512,131.0216074334
 C,0,-5.3177173227,-86.3974947945,131.9712912594
 C,0,-4.6418183071,-85.0874320508,132.4673905518
 C,0,-5.511640988,-83.8212922692,132.5020122123
 N,0,-5.5137846936,-83.1218538545,131.1716296195
 O,0,-3.7833701471,-84.4543061722,129.2817226477
 H,0,-2.572109173,-86.0731014747,128.8035835361
 H,0,-5.1331082404,-87.3425809923,128.9603920567
 H,0,-4.7012054762,-88.2691277236,131.0428882933
 H,0,-3.3839047757,-87.1675836957,131.3892701221
 H,0,-5.5517480237,-87.02114097,132.8415090296
 H,0,-6.2664004936,-86.1810055991,131.4740392765
 H,0,-4.2635020945,-85.2437411936,133.4840255707
 H,0,-3.75887566,-84.8679397518,131.859143634
 H,0,-6.5535966958,-84.0492589505,132.7449913575
 H,0,-5.1325847218,-83.1126875992,133.2441252749
 H,0,-6.0634520312,-82.2614611752,131.1895548193
 H,0,-5.871273973,-83.8330793381,130.3465434602
 H,0,-4.5537520956,-82.9021219725,130.878931195
 Recover connectivity data from disk.
                           ----------------------------
                           !    Current Parameters    !
                           ! (Angstroms and Degrees)  !
 --------------------------                            --------------------------
 ! Name  Definition              Value                                          !
 --------------------------------------------------------------------------------
 ! R1    R(1,2)                  1.5052                                         !
 ! R2    R(1,11)                 1.0434                                         !
 ! R3    R(1,17)                 1.0235                                         !
 ! R4    R(1,18)                 1.0535                                         !
 ! R5    R(2,3)                  1.5501                                         !
 ! R6    R(2,5)                  1.5444                                         !
 ! R7    R(2,12)                 1.0936                                         !
 ! R8    R(3,4)                  1.2319                                         !
 ! R9    R(3,19)                 1.3399                                         !
 ! R10   R(5,6)                  1.5378                                         !
 ! R11   R(5,13)                 1.0968                                         !
 ! R12   R(5,14)                 1.0965                                         !
 ! R13   R(6,7)                  1.5232                                         !
 ! R14   R(6,15)                 1.0973                                         !
 ! R15   R(6,16)                 1.0997                                         !
 ! R16   R(7,8)                  1.2213                                         !
 ! R17   R(7,9)                  1.3327                                         !
 ! R18   R(9,10)                 0.9728                                         !
 ! R19   R(19,20)                1.4654                                         !
 ! R20   R(19,31)                1.0206                                         !
 ! R21   R(20,21)                1.5568                                         !
 ! R22   R(20,23)                1.5525                                         !
 ! R23   R(20,32)                1.0925                                         !
 ! R24   R(21,22)                1.2432                                         !
 ! R25   R(21,40)                1.3324                                         !
 ! R26   R(23,24)                1.5115                                         !
 ! R27   R(23,33)                1.0964                                         !
 ! R28   R(23,34)                1.0968                                         !
 ! R29   R(24,25)                1.3997                                         !
 ! R30   R(24,26)                1.4022                                         !
 ! R31   R(25,27)                1.3924                                         !
 ! R32   R(25,35)                1.0873                                         !
 ! R33   R(26,28)                1.3925                                         !
 ! R34   R(26,36)                1.088                                          !
 ! R35   R(27,29)                1.3963                                         !
 ! R36   R(27,37)                1.0847                                         !
 ! R37   R(28,29)                1.3976                                         !
 ! R38   R(28,38)                1.0874                                         !
 ! R39   R(29,30)                1.371                                          !
 ! R40   R(30,39)                0.9704                                         !
 ! R41   R(40,41)                1.4611                                         !
 ! R42   R(40,50)                1.0195                                         !
 ! R43   R(41,42)                1.5399                                         !
 ! R44   R(41,44)                1.5682                                         !
 ! R45   R(41,51)                1.093                                          !
 ! R46   R(42,43)                1.2795                                         !
 ! R47   R(42,49)                1.2481                                         !
 ! R48   R(44,45)                1.5437                                         !
 ! R49   R(44,52)                1.0934                                         !
 ! R50   R(44,53)                1.0959                                         !
 ! R51   R(45,46)                1.5554                                         !
 ! R52   R(45,54)                1.0959                                         !
 ! R53   R(45,55)                1.0928                                         !
 ! R54   R(46,47)                1.5365                                         !
 ! R55   R(46,56)                1.0959                                         !
 ! R56   R(46,57)                1.0944                                         !
 ! R57   R(47,48)                1.503                                          !
 ! R58   R(47,58)                1.0939                                         !
 ! R59   R(47,59)                1.0939                                         !
 ! R60   R(48,60)                1.0211                                         !
 ! R61   R(48,61)                1.1465                                         !
 ! R62   R(48,62)                1.0274                                         !
 ! A1    A(2,1,11)             104.2228                                         !
 ! A2    A(2,1,17)             112.5446                                         !
 ! A3    A(2,1,18)             109.8159                                         !
 ! A4    A(11,1,17)            107.3782                                         !
 ! A5    A(11,1,18)            112.883                                          !
 ! A6    A(17,1,18)            109.9129                                         !
 ! A7    A(1,2,3)              104.4943                                         !
 ! A8    A(1,2,5)              111.5341                                         !
 ! A9    A(1,2,12)             108.6917                                         !
 ! A10   A(3,2,5)              108.6722                                         !
 ! A11   A(3,2,12)             112.0163                                         !
 ! A12   A(5,2,12)             111.259                                          !
 ! A13   A(2,3,4)              118.1685                                         !
 ! A14   A(2,3,19)             114.8618                                         !
 ! A15   A(4,3,19)             126.9016                                         !
 ! A16   A(2,5,6)              117.0297                                         !
 ! A17   A(2,5,13)             108.6267                                         !
 ! A18   A(2,5,14)             106.7726                                         !
 ! A19   A(6,5,13)             110.1915                                         !
 ! A20   A(6,5,14)             107.6232                                         !
 ! A21   A(13,5,14)            105.9941                                         !
 ! A22   A(5,6,7)              115.4583                                         !
 ! A23   A(5,6,15)             108.1232                                         !
 ! A24   A(5,6,16)             110.8052                                         !
 ! A25   A(7,6,15)             108.6047                                         !
 ! A26   A(7,6,16)             107.6399                                         !
 ! A27   A(15,6,16)            105.7632                                         !
 ! A28   A(6,7,8)              124.1213                                         !
 ! A29   A(6,7,9)              117.2548                                         !
 ! A30   A(8,7,9)              118.6123                                         !
 ! A31   A(7,9,10)             112.1808                                         !
 ! A32   A(3,19,20)            122.5908                                         !
 ! A33   A(3,19,31)            116.7617                                         !
 ! A34   A(20,19,31)           109.5566                                         !
 ! A35   A(19,20,21)           104.4597                                         !
 ! A36   A(19,20,23)           110.682                                          !
 ! A37   A(19,20,32)           107.932                                          !
 ! A38   A(21,20,23)           114.0193                                         !
 ! A39   A(21,20,32)           110.0053                                         !
 ! A40   A(23,20,32)           109.4972                                         !
 ! A41   A(20,21,22)           119.2308                                         !
 ! A42   A(20,21,40)           115.9407                                         !
 ! A43   A(22,21,40)           124.8186                                         !
 ! A44   A(20,23,24)           112.278                                          !
 ! A45   A(20,23,33)           108.4612                                         !
 ! A46   A(20,23,34)           106.8544                                         !
 ! A47   A(24,23,33)           110.2785                                         !
 ! A48   A(24,23,34)           111.6582                                         !
 ! A49   A(33,23,34)           107.0905                                         !
 ! A50   A(23,24,25)           121.0575                                         !
 ! A51   A(23,24,26)           120.6114                                         !
 ! A52   A(25,24,26)           118.042                                          !
 ! A53   A(24,25,27)           121.3163                                         !
 ! A54   A(24,25,35)           119.5567                                         !
 ! A55   A(27,25,35)           119.1105                                         !
 ! A56   A(24,26,28)           121.1577                                         !
 ! A57   A(24,26,36)           119.8594                                         !
 ! A58   A(28,26,36)           118.9386                                         !
 ! A59   A(25,27,29)           119.6037                                         !
 ! A60   A(25,27,37)           121.1733                                         !
 ! A61   A(29,27,37)           119.1794                                         !
 ! A62   A(26,28,29)           119.6816                                         !
 ! A63   A(26,28,38)           120.1028                                         !
 ! A64   A(29,28,38)           120.145                                          !
 ! A65   A(27,29,28)           119.8484                                         !
 ! A66   A(27,29,30)           117.4258                                         !
 ! A67   A(28,29,30)           122.7101                                         !
 ! A68   A(29,30,39)           108.7723                                         !
 ! A69   A(21,40,41)           125.3063                                         !
 ! A70   A(21,40,50)           121.0997                                         !
 ! A71   A(41,40,50)           112.3041                                         !
 ! A72   A(40,41,42)           106.587                                          !
 ! A73   A(40,41,44)           111.3506                                         !
 ! A74   A(40,41,51)           109.7193                                         !
 ! A75   A(42,41,44)           111.1038                                         !
 ! A76   A(42,41,51)           108.8359                                         !
 ! A77   A(44,41,51)           109.1863                                         !
 ! A78   A(41,42,43)           114.9245                                         !
 ! A79   A(41,42,49)           118.5428                                         !
 ! A80   A(43,42,49)           126.1242                                         !
 ! A81   A(41,44,45)           116.5029                                         !
 ! A82   A(41,44,52)           107.3918                                         !
 ! A83   A(41,44,53)           107.1974                                         !
 ! A84   A(45,44,52)           110.2177                                         !
 ! A85   A(45,44,53)           108.7462                                         !
 ! A86   A(52,44,53)           106.2847                                         !
 ! A87   A(44,45,46)           112.811                                          !
 ! A88   A(44,45,54)           108.2017                                         !
 ! A89   A(44,45,55)           109.4118                                         !
 ! A90   A(46,45,54)           108.5931                                         !
 ! A91   A(46,45,55)           110.8261                                         !
 ! A92   A(54,45,55)           106.779                                          !
 ! A93   A(45,46,47)           117.0808                                         !
 ! A94   A(45,46,56)           109.011                                          !
 ! A95   A(45,46,57)           110.0137                                         !
 ! A96   A(47,46,56)           106.9801                                         !
 ! A97   A(47,46,57)           107.6963                                         !
 ! A98   A(56,46,57)           105.4065                                         !
 ! A99   A(46,47,48)           111.366                                          !
 ! A100  A(46,47,58)           111.869                                          !
 ! A101  A(46,47,59)           110.6662                                         !
 ! A102  A(48,47,58)           106.9908                                         !
 ! A103  A(48,47,59)           107.43                                           !
 ! A104  A(58,47,59)           108.3229                                         !
 ! A105  A(47,48,60)           112.168                                          !
 ! A106  A(47,48,61)           110.4116                                         !
 ! A107  A(47,48,62)           110.5085                                         !
 ! A108  A(60,48,61)           111.5607                                         !
 ! A109  A(60,48,62)           109.134                                          !
 ! A110  A(61,48,62)           102.651                                          !
 ! D1    D(11,1,2,3)           -24.249                                          !
 ! D2    D(11,1,2,5)            92.9769                                         !
 ! D3    D(11,1,2,12)         -143.9987                                         !
 ! D4    D(17,1,2,3)            91.7807                                         !
 ! D5    D(17,1,2,5)          -150.9935                                         !
 ! D6    D(17,1,2,12)          -27.9691                                         !
 ! D7    D(18,1,2,3)          -145.4289                                         !
 ! D8    D(18,1,2,5)           -28.2031                                         !
 ! D9    D(18,1,2,12)           94.8214                                         !
 ! D10   D(1,2,3,4)             19.7278                                         !
 ! D11   D(1,2,3,19)          -163.0647                                         !
 ! D12   D(5,2,3,4)            -99.4516                                         !
 ! D13   D(5,2,3,19)            77.7559                                         !
 ! D14   D(12,2,3,4)           137.2169                                         !
 ! D15   D(12,2,3,19)          -45.5756                                         !
 ! D16   D(1,2,5,6)             78.0411                                         !
 ! D17   D(1,2,5,13)           -47.4701                                         !
 ! D18   D(1,2,5,14)          -161.3784                                         !
 ! D19   D(3,2,5,6)           -167.2906                                         !
 ! D20   D(3,2,5,13)            67.1982                                         !
 ! D21   D(3,2,5,14)           -46.7101                                         !
 ! D22   D(12,2,5,6)           -43.5062                                         !
 ! D23   D(12,2,5,13)         -169.0174                                         !
 ! D24   D(12,2,5,14)           77.0743                                         !
 ! D25   D(2,3,19,20)         -151.1565                                         !
 ! D26   D(2,3,19,31)          -11.0394                                         !
 ! D27   D(4,3,19,20)           25.7648                                         !
 ! D28   D(4,3,19,31)          165.8818                                         !
 ! D29   D(2,5,6,7)            -73.8926                                         !
 ! D30   D(2,5,6,15)           164.2631                                         !
 ! D31   D(2,5,6,16)            48.7864                                         !
 ! D32   D(13,5,6,7)            50.8346                                         !
 ! D33   D(13,5,6,15)          -71.0097                                         !
 ! D34   D(13,5,6,16)          173.5136                                         !
 ! D35   D(14,5,6,7)           165.9765                                         !
 ! D36   D(14,5,6,15)           44.1322                                         !
 ! D37   D(14,5,6,16)          -71.3446                                         !
 ! D38   D(5,6,7,8)             17.6276                                         !
 ! D39   D(5,6,7,9)           -163.6271                                         !
 ! D40   D(15,6,7,8)           139.2132                                         !
 ! D41   D(15,6,7,9)           -42.0415                                         !
 ! D42   D(16,6,7,8)          -106.7184                                         !
 ! D43   D(16,6,7,9)            72.0269                                         !
 ! D44   D(6,7,9,10)             2.8624                                         !
 ! D45   D(8,7,9,10)          -178.3208                                         !
 ! D46   D(3,19,20,21)         108.4857                                         !
 ! D47   D(3,19,20,23)        -128.3758                                         !
 ! D48   D(3,19,20,32)          -8.5654                                         !
 ! D49   D(31,19,20,21)        -34.0989                                         !
 ! D50   D(31,19,20,23)         89.0396                                         !
 ! D51   D(31,19,20,32)       -151.15                                           !
 ! D52   D(19,20,21,22)         17.318                                          !
 ! D53   D(19,20,21,40)       -161.5959                                         !
 ! D54   D(23,20,21,22)       -103.6277                                         !
 ! D55   D(23,20,21,40)         77.4584                                         !
 ! D56   D(32,20,21,22)        132.9292                                         !
 ! D57   D(32,20,21,40)        -45.9847                                         !
 ! D58   D(19,20,23,24)       -176.949                                          !
 ! D59   D(19,20,23,33)        -54.8333                                         !
 ! D60   D(19,20,23,34)         60.3092                                         !
 ! D61   D(21,20,23,24)        -59.5339                                         !
 ! D62   D(21,20,23,33)         62.5817                                         !
 ! D63   D(21,20,23,34)        177.7242                                         !
 ! D64   D(32,20,23,24)         64.184                                          !
 ! D65   D(32,20,23,33)       -173.7003                                         !
 ! D66   D(32,20,23,34)        -58.5579                                         !
 ! D67   D(20,21,40,41)       -173.9717                                         !
 ! D68   D(20,21,40,50)         -7.9626                                         !
 ! D69   D(22,21,40,41)          7.1828                                         !
 ! D70   D(22,21,40,50)        173.1919                                         !
 ! D71   D(20,23,24,25)        109.6031                                         !
 ! D72   D(20,23,24,26)        -64.1009                                         !
 ! D73   D(33,23,24,25)        -11.4738                                         !
 ! D74   D(33,23,24,26)        174.8221                                         !
 ! D75   D(34,23,24,25)       -130.4091                                         !
 ! D76   D(34,23,24,26)         55.8868                                         !
 ! D77   D(23,24,25,27)       -170.6758                                         !
 ! D78   D(23,24,25,35)          7.8331                                         !
 ! D79   D(26,24,25,27)          3.1856                                         !
 ! D80   D(26,24,25,35)       -178.3056                                         !
 ! D81   D(23,24,26,28)        169.4253                                         !
 ! D82   D(23,24,26,36)         -8.1274                                         !
 ! D83   D(25,24,26,28)         -4.4646                                         !
 ! D84   D(25,24,26,36)        177.9827                                         !
 ! D85   D(24,25,27,29)          1.9994                                         !
 ! D86   D(24,25,27,37)        179.5764                                         !
 ! D87   D(35,25,27,29)       -176.5159                                         !
 ! D88   D(35,25,27,37)          1.0611                                         !
 ! D89   D(24,26,28,29)          0.5481                                         !
 ! D90   D(24,26,28,38)       -176.401                                          !
 ! D91   D(36,26,28,29)        178.1229                                         !
 ! D92   D(36,26,28,38)          1.1738                                         !
 ! D93   D(25,27,29,28)         -6.0061                                         !
 ! D94   D(25,27,29,30)        172.5898                                         !
 ! D95   D(37,27,29,28)        176.3683                                         !
 ! D96   D(37,27,29,30)         -5.0358                                         !
 ! D97   D(26,28,29,27)          4.7532                                         !
 ! D98   D(26,28,29,30)       -173.7656                                         !
 ! D99   D(38,28,29,27)       -178.299                                          !
 ! D100  D(38,28,29,30)          3.1822                                         !
 ! D101  D(27,29,30,39)        176.9741                                         !
 ! D102  D(28,29,30,39)         -4.4733                                         !
 ! D103  D(21,40,41,42)       -177.2784                                         !
 ! D104  D(21,40,41,44)         61.4019                                         !
 ! D105  D(21,40,41,51)        -59.5922                                         !
 ! D106  D(50,40,41,42)         15.6515                                         !
 ! D107  D(50,40,41,44)       -105.6682                                         !
 ! D108  D(50,40,41,51)        133.3377                                         !
 ! D109  D(40,41,42,43)        162.6647                                         !
 ! D110  D(40,41,42,49)        -24.22                                           !
 ! D111  D(44,41,42,43)        -75.8586                                         !
 ! D112  D(44,41,42,49)         97.2567                                         !
 ! D113  D(51,41,42,43)         44.3969                                         !
 ! D114  D(51,41,42,49)       -142.4878                                         !
 ! D115  D(40,41,44,45)        145.1944                                         !
 ! D116  D(40,41,44,52)        -90.6904                                         !
 ! D117  D(40,41,44,53)         23.1718                                         !
 ! D118  D(42,41,44,45)         26.5476                                         !
 ! D119  D(42,41,44,52)        150.6628                                         !
 ! D120  D(42,41,44,53)        -95.475                                          !
 ! D121  D(51,41,44,45)        -93.5                                            !
 ! D122  D(51,41,44,52)         30.6151                                         !
 ! D123  D(51,41,44,53)        144.4774                                         !
 ! D124  D(41,44,45,46)        -81.9832                                         !
 ! D125  D(41,44,45,54)        157.8571                                         !
 ! D126  D(41,44,45,55)         41.8761                                         !
 ! D127  D(52,44,45,46)        155.3621                                         !
 ! D128  D(52,44,45,54)         35.2023                                         !
 ! D129  D(52,44,45,55)        -80.7786                                         !
 ! D130  D(53,44,45,46)         39.2233                                         !
 ! D131  D(53,44,45,54)        -80.9365                                         !
 ! D132  D(53,44,45,55)        163.0826                                         !
 ! D133  D(44,45,46,47)        137.4021                                         !
 ! D134  D(44,45,46,56)       -101.0582                                         !
 ! D135  D(44,45,46,57)         14.0638                                         !
 ! D136  D(54,45,46,47)       -102.6632                                         !
 ! D137  D(54,45,46,56)         18.8765                                         !
 ! D138  D(54,45,46,57)        133.9985                                         !
 ! D139  D(55,45,46,47)         14.3266                                         !
 ! D140  D(55,45,46,56)        135.8662                                         !
 ! D141  D(55,45,46,57)       -109.0117                                         !
 ! D142  D(45,46,47,48)        -86.0691                                         !
 ! D143  D(45,46,47,58)         33.6095                                         !
 ! D144  D(45,46,47,59)        154.5028                                         !
 ! D145  D(56,46,47,48)        151.3381                                         !
 ! D146  D(56,46,47,58)        -88.9833                                         !
 ! D147  D(56,46,47,59)         31.91                                           !
 ! D148  D(57,46,47,48)         38.4458                                         !
 ! D149  D(57,46,47,58)        158.1245                                         !
 ! D150  D(57,46,47,59)        -80.9823                                         !
 ! D151  D(46,47,48,60)       -178.1019                                         !
 ! D152  D(46,47,48,61)         56.7968                                         !
 ! D153  D(46,47,48,62)        -56.0764                                         !
 ! D154  D(58,47,48,60)         59.3664                                         !
 ! D155  D(58,47,48,61)        -65.735                                          !
 ! D156  D(58,47,48,62)       -178.6082                                         !
 ! D157  D(59,47,48,60)        -56.7676                                         !
 ! D158  D(59,47,48,61)        178.1311                                         !
 ! D159  D(59,47,48,62)         65.2579                                         !
 --------------------------------------------------------------------------------
 Symmetry turned off by external request.
 Stoichiometry    C20H31N4O7(1+)
 Framework group  C1[X(C20H31N4O7)]
 Deg. of freedom   180
 Full point group                 C1      NOp   1
                          Input orientation:                          
 ---------------------------------------------------------------------
 Center     Atomic      Atomic             Coordinates (Angstroms)
 Number     Number       Type             X           Y           Z
 ---------------------------------------------------------------------
      1          7           0       -0.400711  -91.416364  124.787456
      2          6           0       -0.989807  -91.187522  126.153547
      3          6           0       -0.595208  -89.730804  126.507152
      4          8           0       -0.276477  -88.975218  125.587928
      5          6           0       -2.530618  -91.290824  126.131026
      6          6           0       -3.135890  -92.704128  126.098491
      7          6           0       -3.025097  -93.433313  124.765809
      8          8           0       -2.252589  -93.117384  123.874148
      9          8           0       -3.809257  -94.495487  124.584253
     10          1           0       -4.403671  -94.646540  125.339394
     11          1           0       -0.315665  -90.459014  124.381293
     12          1           0       -0.554052  -91.910528  126.848719
     13          1           0       -2.909271  -90.697358  125.289898
     14          1           0       -2.894312  -90.794744  127.038749
     15          1           0       -4.196653  -92.627433  126.368439
     16          1           0       -2.677456  -93.343174  126.867143
     17          1           0        0.540706  -91.815990  124.827984
     18          1           0       -1.033388  -92.044687  124.226379
     19          7           0       -0.699187  -89.418472  127.806009
     20          6           0       -0.981232  -88.057496  128.270455
     21          6           0       -2.443496  -88.122873  128.800550
     22          8           0       -2.948840  -89.230363  129.052858
     23          6           0        0.057917  -87.615285  129.335695
     24          6           0       -0.242324  -86.243132  129.894075
     25          6           0       -0.693938  -86.081597  131.209066
     26          6           0       -0.201031  -85.111219  129.067545
     27          6           0       -1.153834  -84.850885  131.670321
     28          6           0       -0.682323  -83.880523  129.506655
     29          6           0       -1.206506  -83.762810  130.796879
     30          8           0       -1.809259  -82.617860  131.250063
     31          1           0       -1.182928  -90.090284  128.402924
     32          1           0       -0.925930  -87.389446  127.407769
     33          1           0        0.067843  -88.359360  130.140875
     34          1           0        1.042282  -87.649432  128.853086
     35          1           0       -0.709875  -86.937368  131.879640
     36          1           0        0.175961  -85.196595  128.050472
     37          1           0       -1.509659  -84.729936  132.687878
     38          1           0       -0.695832  -83.027960  128.831866
     39          1           0       -1.733603  -81.933437  130.566272
     40          7           0       -3.070311  -86.953951  128.927351
     41          6           0       -4.392676  -86.764685  129.519343
     42          6           0       -4.724921  -85.267228  129.383426
     43          8           0       -5.962257  -84.974365  129.525792
     44          6           0       -4.415300  -87.213986  131.021607
     45          6           0       -5.317717  -86.397495  131.971291
     46          6           0       -4.641818  -85.087432  132.467391
     47          6           0       -5.511641  -83.821292  132.502012
     48          7           0       -5.513785  -83.121854  131.171630
     49          8           0       -3.783370  -84.454306  129.281723
     50          1           0       -2.572109  -86.073101  128.803584
     51          1           0       -5.133108  -87.342581  128.960392
     52          1           0       -4.701205  -88.269128  131.042888
     53          1           0       -3.383905  -87.167584  131.389270
     54          1           0       -5.551748  -87.021141  132.841509
     55          1           0       -6.266400  -86.181006  131.474039
     56          1           0       -4.263502  -85.243741  133.484026
     57          1           0       -3.758876  -84.867940  131.859144
     58          1           0       -6.553597  -84.049259  132.744991
     59          1           0       -5.132585  -83.112688  133.244125
     60          1           0       -6.063452  -82.261461  131.189555
     61          1           0       -5.871274  -83.833079  130.346543
     62          1           0       -4.553752  -82.902122  130.878931
 ---------------------------------------------------------------------
 Rotational constants (GHZ):           0.2669351           0.0651601           0.0570440
 Standard basis: 6-31G(d) (6D, 7F)
   527 basis functions,   992 primitive gaussians,   527 cartesian basis functions
   117 alpha electrons      117 beta electrons
       nuclear repulsion energy      3308.0679115047 Hartrees.
 NAtoms=   62 NActive=   62 NUniq=   62 SFac= 1.00D+00 NAtFMM=   60 NAOKFM=T Big=T
 Integral buffers will be    131072 words long.
 Raffenetti 2 integral format.
 Two-electron integral symmetry is turned off.
 Nuclear repulsion after empirical dispersion term =     3307.9833740497 Hartrees.
 One-electron integrals computed using PRISM.
 NBasis=   527 RedAO= T EigKep=  4.21D-04  NBF=   527
 NBsUse=   527 1.00D-06 EigRej= -1.00D+00 NBFU=   527
 Initial guess from the checkpoint file:  "conf-34.chk"
 B after Tr=     0.000000    0.000000    0.000000
         Rot=    1.000000    0.000000    0.000000    0.000000 Ang=   0.00 deg.
 Requested convergence on RMS density matrix=1.00D-08 within 128 cycles.
 Requested convergence on MAX density matrix=1.00D-06.
 Requested convergence on             energy=1.00D-06.
 No special actions if energy rises.
 SCF Done:  E(RB3LYP) =  -1526.29606676     A.U. after    2 cycles
            NFock=  2  Conv=0.70D-08     -V/T= 2.0093

 **********************************************************************

            Population analysis using the SCF Density.

 **********************************************************************

 Alpha  occ. eigenvalues --  -19.33267 -19.28455 -19.26069 -19.25901 -19.20738
 Alpha  occ. eigenvalues --  -19.17577 -19.17087 -14.57319 -14.49029 -14.48166
 Alpha  occ. eigenvalues --  -14.43616 -10.46746 -10.42665 -10.40135 -10.37597
 Alpha  occ. eigenvalues --  -10.35126 -10.34936 -10.34524 -10.33602 -10.32687
 Alpha  occ. eigenvalues --  -10.32327 -10.29485 -10.28676 -10.27270 -10.27087
 Alpha  occ. eigenvalues --  -10.26945 -10.26769 -10.26765 -10.26296 -10.25564
 Alpha  occ. eigenvalues --  -10.25299  -1.24458  -1.18107  -1.16207  -1.13792
 Alpha  occ. eigenvalues --   -1.12468  -1.11961  -1.11169  -1.05190  -1.04366
 Alpha  occ. eigenvalues --   -1.01985  -1.00123  -0.95121  -0.93549  -0.89345
 Alpha  occ. eigenvalues --   -0.87537  -0.86620  -0.83208  -0.82691  -0.81500
 Alpha  occ. eigenvalues --   -0.79026  -0.77776  -0.75427  -0.74435  -0.72349
 Alpha  occ. eigenvalues --   -0.71748  -0.71473  -0.70414  -0.69885  -0.67435
 Alpha  occ. eigenvalues --   -0.67028  -0.66190  -0.65622  -0.64799  -0.63524
 Alpha  occ. eigenvalues --   -0.63080  -0.62663  -0.62256  -0.60921  -0.60575
 Alpha  occ. eigenvalues --   -0.58631  -0.58321  -0.57250  -0.57178  -0.56194
 Alpha  occ. eigenvalues --   -0.55391  -0.55312  -0.54970  -0.54264  -0.53970
 Alpha  occ. eigenvalues --   -0.53553  -0.52904  -0.52231  -0.51548  -0.51388
 Alpha  occ. eigenvalues --   -0.51096  -0.50325  -0.50245  -0.49991  -0.49332
 Alpha  occ. eigenvalues --   -0.49124  -0.48901  -0.48205  -0.47607  -0.47293
 Alpha  occ. eigenvalues --   -0.45996  -0.45748  -0.45569  -0.44816  -0.44544
 Alpha  occ. eigenvalues --   -0.43887  -0.43251  -0.42256  -0.41744  -0.41468
 Alpha  occ. eigenvalues --   -0.40989  -0.40363  -0.40040  -0.39818  -0.38373
 Alpha  occ. eigenvalues --   -0.34979  -0.33922  -0.33013  -0.32904  -0.31929
 Alpha  occ. eigenvalues --   -0.31414  -0.29450
 Alpha virt. eigenvalues --   -0.13456  -0.11769  -0.08603  -0.08466  -0.07388
 Alpha virt. eigenvalues --   -0.06585  -0.06494  -0.03913  -0.03758  -0.02216
 Alpha virt. eigenvalues --   -0.02083  -0.01437  -0.00783   0.00573   0.01213
 Alpha virt. eigenvalues --    0.01357   0.02265   0.02674   0.03065   0.03509
 Alpha virt. eigenvalues --    0.04182   0.04507   0.04828   0.04948   0.05566
 Alpha virt. eigenvalues --    0.05786   0.06208   0.06430   0.07008   0.07552
 Alpha virt. eigenvalues --    0.08096   0.08524   0.08910   0.09163   0.09630
 Alpha virt. eigenvalues --    0.09992   0.10474   0.10865   0.11007   0.11634
 Alpha virt. eigenvalues --    0.12460   0.12638   0.13375   0.13790   0.14682
 Alpha virt. eigenvalues --    0.15600   0.15969   0.16795   0.17286   0.17771
 Alpha virt. eigenvalues --    0.18459   0.19344   0.19964   0.21013   0.21894
 Alpha virt. eigenvalues --    0.23231   0.24101   0.24927   0.25303   0.26026
 Alpha virt. eigenvalues --    0.26267   0.26844   0.28291   0.29046   0.30274
 Alpha virt. eigenvalues --    0.34257   0.35589   0.36943   0.37361   0.37904
 Alpha virt. eigenvalues --    0.39652   0.40719   0.42227   0.42565   0.42978
 Alpha virt. eigenvalues --    0.43121   0.43168   0.43751   0.44166   0.45052
 Alpha virt. eigenvalues --    0.45625   0.46285   0.46706   0.46872   0.47794
 Alpha virt. eigenvalues --    0.48617   0.48813   0.49286   0.50429   0.50635
 Alpha virt. eigenvalues --    0.51238   0.51430   0.52137   0.52586   0.53355
 Alpha virt. eigenvalues --    0.53716   0.53932   0.54133   0.54384   0.55282
 Alpha virt. eigenvalues --    0.55741   0.55824   0.56726   0.57515   0.57961
 Alpha virt. eigenvalues --    0.58329   0.58718   0.59633   0.59882   0.60202
 Alpha virt. eigenvalues --    0.61398   0.61759   0.62147   0.63356   0.63670
 Alpha virt. eigenvalues --    0.64408   0.64830   0.65496   0.65833   0.66247
 Alpha virt. eigenvalues --    0.66494   0.67203   0.68226   0.68446   0.70346
 Alpha virt. eigenvalues --    0.70507   0.70576   0.71364   0.71460   0.72226
 Alpha virt. eigenvalues --    0.72300   0.73497   0.73885   0.74676   0.74879
 Alpha virt. eigenvalues --    0.75484   0.75766   0.76318   0.76483   0.77042
 Alpha virt. eigenvalues --    0.78111   0.78441   0.78917   0.79128   0.79434
 Alpha virt. eigenvalues --    0.79710   0.80091   0.80621   0.81303   0.81682
 Alpha virt. eigenvalues --    0.82513   0.82642   0.82951   0.83367   0.83743
 Alpha virt. eigenvalues --    0.84060   0.85015   0.85054   0.85591   0.86398
 Alpha virt. eigenvalues --    0.87281   0.87887   0.88800   0.89422   0.89634
 Alpha virt. eigenvalues --    0.90661   0.91350   0.91810   0.93072   0.93864
 Alpha virt. eigenvalues --    0.94724   0.95375   0.95837   0.96788   0.98018
 Alpha virt. eigenvalues --    0.98771   0.98825   0.99505   1.01935   1.02291
 Alpha virt. eigenvalues --    1.02587   1.04421   1.04717   1.06087   1.06590
 Alpha virt. eigenvalues --    1.07838   1.08334   1.09841   1.11223   1.11923
 Alpha virt. eigenvalues --    1.13296   1.13845   1.14749   1.15035   1.16208
 Alpha virt. eigenvalues --    1.17826   1.18106   1.19643   1.19700   1.21236
 Alpha virt. eigenvalues --    1.21956   1.23946   1.24443   1.24735   1.25726
 Alpha virt. eigenvalues --    1.26716   1.28049   1.29101   1.30359   1.31213
 Alpha virt. eigenvalues --    1.32987   1.33808   1.35950   1.36490   1.37590
 Alpha virt. eigenvalues --    1.37896   1.38121   1.39363   1.40280   1.40849
 Alpha virt. eigenvalues --    1.41645   1.41951   1.42891   1.43652   1.44196
 Alpha virt. eigenvalues --    1.46087   1.46613   1.47099   1.49895   1.50538
 Alpha virt. eigenvalues --    1.52773   1.54521   1.55183   1.56230   1.57274
 Alpha virt. eigenvalues --    1.58826   1.59169   1.60160   1.60473   1.61286
 Alpha virt. eigenvalues --    1.62887   1.64308   1.65088   1.65622   1.66125
 Alpha virt. eigenvalues --    1.66843   1.67377   1.68258   1.68582   1.69709
 Alpha virt. eigenvalues --    1.69897   1.71262   1.71522   1.72603   1.73059
 Alpha virt. eigenvalues --    1.73670   1.74404   1.75292   1.75429   1.75882
 Alpha virt. eigenvalues --    1.76481   1.76757   1.77127   1.78170   1.78988
 Alpha virt. eigenvalues --    1.79942   1.80760   1.81263   1.82018   1.82659
 Alpha virt. eigenvalues --    1.83623   1.84686   1.84945   1.86107   1.86205
 Alpha virt. eigenvalues --    1.86349   1.87134   1.88041   1.88778   1.89389
 Alpha virt. eigenvalues --    1.89930   1.90361   1.90607   1.90683   1.91790
 Alpha virt. eigenvalues --    1.92303   1.94188   1.94694   1.95731   1.96903
 Alpha virt. eigenvalues --    1.97463   1.97754   1.99021   1.99862   2.01951
 Alpha virt. eigenvalues --    2.03081   2.03882   2.04561   2.06209   2.06963
 Alpha virt. eigenvalues --    2.07257   2.08159   2.08497   2.10295   2.11295
 Alpha virt. eigenvalues --    2.14107   2.14893   2.16163   2.18978   2.19533
 Alpha virt. eigenvalues --    2.21163   2.21520   2.22109   2.22515   2.23534
 Alpha virt. eigenvalues --    2.24309   2.24814   2.25505   2.27163   2.28285
 Alpha virt. eigenvalues --    2.28848   2.29376   2.30476   2.31482   2.32625
 Alpha virt. eigenvalues --    2.33102   2.33960   2.34689   2.35515   2.36410
 Alpha virt. eigenvalues --    2.36533   2.37773   2.38029   2.40030   2.40538
 Alpha virt. eigenvalues --    2.41658   2.42456   2.43722   2.47709   2.49220
 Alpha virt. eigenvalues --    2.49528   2.49843   2.50890   2.52409   2.52695
 Alpha virt. eigenvalues --    2.55054   2.55624   2.56209   2.58143   2.58913
 Alpha virt. eigenvalues --    2.61088   2.62417   2.63304   2.63893   2.64244
 Alpha virt. eigenvalues --    2.65366   2.66119   2.68613   2.70796   2.71237
 Alpha virt. eigenvalues --    2.71694   2.75746   2.77308   2.79689   2.81386
 Alpha virt. eigenvalues --    2.82918   2.86072   2.87268   2.88130   2.89702
 Alpha virt. eigenvalues --    2.91229   2.94408   2.95910   2.96334   3.01101
 Alpha virt. eigenvalues --    3.03893   3.09342   3.14970   3.34222   3.70207
 Alpha virt. eigenvalues --    3.73689   3.77741   3.90167   3.91242   3.96501
 Alpha virt. eigenvalues --    3.97760   4.00342   4.03711   4.04852   4.07947
 Alpha virt. eigenvalues --    4.08768   4.10545   4.15092   4.15864   4.17600
 Alpha virt. eigenvalues --    4.21478   4.22995   4.26718   4.30548   4.33217
 Alpha virt. eigenvalues --    4.34572   4.37993   4.40753   4.41359   4.42484
 Alpha virt. eigenvalues --    4.47802   4.54297   4.57264   4.68440   4.71193
          Condensed to atoms (all electrons):
 Mulliken charges:
               1
     1  N   -0.770842
     2  C   -0.121560
     3  C    0.625510
     4  O   -0.514677
     5  C   -0.318666
     6  C   -0.420083
     7  C    0.641342
     8  O   -0.476509
     9  O   -0.517920
    10  H    0.440100
    11  H    0.418878
    12  H    0.202657
    13  H    0.195859
    14  H    0.232757
    15  H    0.207173
    16  H    0.207868
    17  H    0.405694
    18  H    0.451398
    19  N   -0.565821
    20  C   -0.108309
    21  C    0.632365
    22  O   -0.572174
    23  C   -0.340146
    24  C    0.148752
    25  C   -0.183230
    26  C   -0.221506
    27  C   -0.170810
    28  C   -0.154916
    29  C    0.383930
    30  O   -0.659494
    31  H    0.352411
    32  H    0.199815
    33  H    0.156681
    34  H    0.173440
    35  H    0.137971
    36  H    0.140211
    37  H    0.149418
    38  H    0.139675
    39  H    0.417048
    40  N   -0.617969
    41  C   -0.001331
    42  C    0.579767
    43  O   -0.619550
    44  C   -0.291549
    45  C   -0.283050
    46  C   -0.314650
    47  C   -0.168582
    48  N   -0.770178
    49  O   -0.579529
    50  H    0.381947
    51  H    0.171413
    52  H    0.164911
    53  H    0.147290
    54  H    0.144999
    55  H    0.180277
    56  H    0.160102
    57  H    0.190982
    58  H    0.190070
    59  H    0.181398
    60  H    0.373136
    61  H    0.443696
    62  H    0.392109
 Sum of Mulliken charges =   1.00000
 Mulliken charges with hydrogens summed into heavy atoms:
               1
     1  N    0.505128
     2  C    0.081098
     3  C    0.625510
     4  O   -0.514677
     5  C    0.109950
     6  C   -0.005042
     7  C    0.641342
     8  O   -0.476509
     9  O   -0.077820
    19  N   -0.213411
    20  C    0.091506
    21  C    0.632365
    22  O   -0.572174
    23  C   -0.010025
    24  C    0.148752
    25  C   -0.045259
    26  C   -0.081295
    27  C   -0.021392
    28  C   -0.015241
    29  C    0.383930
    30  O   -0.242445
    40  N   -0.236022
    41  C    0.170082
    42  C    0.579767
    43  O   -0.619550
    44  C    0.020653
    45  C    0.042226
    46  C    0.036434
    47  C    0.202886
    48  N    0.438762
    49  O   -0.579529
 Electronic spatial extent (au):  <R**2>=       20285643.1252
 Charge=              1.0000 electrons
 Dipole moment (field-independent basis, Debye):
    X=            -10.7990    Y=           -428.7678    Z=            615.2888  Tot=            750.0258
 Quadrupole moment (field-independent basis, Debye-Ang):
   XX=           -127.3331   YY=          38212.1952   ZZ=          78679.7604
   XY=            939.9367   XZ=          -1412.8829   YZ=         -54865.6828
 Traceless Quadrupole moment (field-independent basis, Debye-Ang):
   XX=         -39048.8739   YY=           -709.3456   ZZ=          39758.2196
   XY=            939.9367   XZ=          -1412.8829   YZ=         -54865.6828
 Octapole moment (field-independent basis, Debye-Ang**2):
  XXX=           1094.3893  YYY=       -3400314.9978  ZZZ=       10043100.7789  XYY=         -81786.0016
  XXY=          11193.4139  XXZ=         -16283.5083  XZZ=        -184471.6739  YZZ=       -7008470.1889
  YYZ=        4884485.7597  XYZ=         122776.9782
 Hexadecapole moment (field-independent basis, Debye-Ang**3):
 XXXX=          -9624.5316 YYYY=      302138613.6677 ZZZZ=     1279591459.0188 XXXY=         -95617.4652
 XXXZ=         141085.2566 YYYX=        7114771.6341 YYYZ=     -434192423.2466 ZZZX=      -24037090.1224
 ZZZY=     -893662740.6710 XXYY=        -985446.5465 XXZZ=       -2084476.7515 YYZZ=      623279698.5518
 XXYZ=        1431454.8160 YYXZ=      -10665606.4238 ZZXY=       16004434.1539
 N-N= 3.307983374050D+03 E-N=-1.015255558255D+04  KE= 1.512251378119D+03
 Unable to Open any file for archive entry.
 1\1\GINC-LAC-314\SP\RB3LYP\6-31G(d)\C20H31N4O7(1+)\KENGMITH\24-May-202
 2\0\\# B3LYP/6-31G* empiricaldispersion=gd3 guess=read geom=check nosy
 mm integral(ultrafinegrid)\\Candidate Structure: Conf:34 Charge calc i
 n gas phase\\1,1\N,0,-0.4007111738,-91.4163642476,124.7874560687\C,0,-
 0.9898070949,-91.1875216104,126.1535466265\C,0,-0.595208084,-89.730804
 4957,126.507151509\O,0,-0.2764772822,-88.975218046,125.5879275554\C,0,
 -2.5306179202,-91.2908241202,126.1310261041\C,0,-3.1358903745,-92.7041
 281082,126.0984909028\C,0,-3.0250970944,-93.4333128286,124.7658088358\
 O,0,-2.252589486,-93.1173844635,123.8741477617\O,0,-3.8092565615,-94.4
 954870948,124.5842532615\H,0,-4.4036714397,-94.6465401946,125.33939384
 22\H,0,-0.3156645643,-90.4590140129,124.3812930444\H,0,-0.5540516064,-
 91.9105277357,126.8487190509\H,0,-2.9092710921,-90.6973576978,125.2898
 980437\H,0,-2.8943121952,-90.7947440183,127.0387486367\H,0,-4.19665319
 84,-92.6274327987,126.368439233\H,0,-2.6774563363,-93.3431737792,126.8
 671425128\H,0,0.5407062823,-91.8159900443,124.8279839214\H,0,-1.033387
 5259,-92.0446872764,124.2263791912\N,0,-0.6991865546,-89.4184720682,12
 7.806009081\C,0,-0.9812318239,-88.0574962365,128.2704546993\C,0,-2.443
 4958029,-88.1228734466,128.8005497557\O,0,-2.9488399684,-89.2303627047
 ,129.0528584995\C,0,0.0579167901,-87.6152854967,129.3356946252\C,0,-0.
 242324332,-86.243132443,129.8940747545\C,0,-0.6939376961,-86.081597007
 5,131.2090660054\C,0,-0.2010314681,-85.1112193957,129.0675448744\C,0,-
 1.1538342014,-84.8508851612,131.6703213779\C,0,-0.6823226456,-83.88052
 3291,129.5066552661\C,0,-1.2065060885,-83.7628100871,130.7968791051\O,
 0,-1.8092587157,-82.617859554,131.2500625876\H,0,-1.1829282763,-90.090
 2844024,128.4029235227\H,0,-0.9259300745,-87.3894461026,127.4077691426
 \H,0,0.0678427527,-88.3593599526,130.1408754737\H,0,1.0422822678,-87.6
 494322742,128.8530856696\H,0,-0.7098746662,-86.9373681563,131.87964025
 42\H,0,0.1759609335,-85.1965947361,128.0504724132\H,0,-1.5096589628,-8
 4.7299364089,132.6878782261\H,0,-0.6958320014,-83.0279604915,128.83186
 63304\H,0,-1.7336025009,-81.9334373461,130.5662720041\N,0,-3.070311329
 3,-86.9539508821,128.9273508777\C,0,-4.3926755293,-86.7646853349,129.5
 1934332\C,0,-4.7249214767,-85.2672282984,129.3834264006\O,0,-5.9622568
 456,-84.9743653099,129.5257919014\C,0,-4.4153002434,-87.2139858512,131
 .0216074334\C,0,-5.3177173227,-86.3974947945,131.9712912594\C,0,-4.641
 8183071,-85.0874320508,132.4673905518\C,0,-5.511640988,-83.8212922692,
 132.5020122123\N,0,-5.5137846936,-83.1218538545,131.1716296195\O,0,-3.
 7833701471,-84.4543061722,129.2817226477\H,0,-2.572109173,-86.07310147
 47,128.8035835361\H,0,-5.1331082404,-87.3425809923,128.9603920567\H,0,
 -4.7012054762,-88.2691277236,131.0428882933\H,0,-3.3839047757,-87.1675
 836957,131.3892701221\H,0,-5.5517480237,-87.02114097,132.8415090296\H,
 0,-6.2664004936,-86.1810055991,131.4740392765\H,0,-4.2635020945,-85.24
 37411936,133.4840255707\H,0,-3.75887566,-84.8679397518,131.859143634\H
 ,0,-6.5535966958,-84.0492589505,132.7449913575\H,0,-5.1325847218,-83.1
 126875992,133.2441252749\H,0,-6.0634520312,-82.2614611752,131.18955481
 93\H,0,-5.871273973,-83.8330793381,130.3465434602\H,0,-4.5537520956,-8
 2.9021219725,130.878931195\\Version=ES64L-G16RevC.01\HF=-1526.2960668\
 RMSD=7.044e-09\Dipole=0.6020077,-3.1098564,-1.1851924\Quadrupole=-2903
 1.8807087,-527.3810873,29559.2617959,698.8199207,-1050.4438284,-40791.
 2904201\PG=C01 [X(C20H31N4O7)]\\@
 The archive entry for this job was punched.


 IF YOU GIVE EVERYONE A PIECE OF YOUR MIND,
 PRETTY SOON IT WILL BE ALL GONE.
 Job cpu time:       0 days  0 hours  2 minutes 12.3 seconds.
 Elapsed time:       0 days  0 hours  0 minutes 33.7 seconds.
 File lengths (MBytes):  RWF=    264 Int=      0 D2E=      0 Chk=     40 Scr=     16
 Normal termination of Gaussian 16 at Tue May 24 19:13:28 2022.
