 Entering Gaussian System, Link 0=/opt/software/Gaussian/g16-AVX2-C.01/g16/g16
 Input=charge-conf-123.com
 Output=charge-conf-123.log
 Initial command:
 /opt/software/Gaussian/g16-AVX2-C.01/g16/l1.exe "/mnt/gs18/scratch/users/kengmith/Gau-13011.inp" -scrdir="/mnt/gs18/scratch/users/kengmith/"
 Entering Link 1 = /opt/software/Gaussian/g16-AVX2-C.01/g16/l1.exe PID=     13021.
  
 Copyright (c) 1988-2019, Gaussian, Inc.  All Rights Reserved.
  
 This is part of the Gaussian(R) 16 program.  It is based on
 the Gaussian(R) 09 system (copyright 2009, Gaussian, Inc.),
 the Gaussian(R) 03 system (copyright 2003, Gaussian, Inc.),
 the Gaussian(R) 98 system (copyright 1998, Gaussian, Inc.),
 the Gaussian(R) 94 system (copyright 1995, Gaussian, Inc.),
 the Gaussian 92(TM) system (copyright 1992, Gaussian, Inc.),
 the Gaussian 90(TM) system (copyright 1990, Gaussian, Inc.),
 the Gaussian 88(TM) system (copyright 1988, Gaussian, Inc.),
 the Gaussian 86(TM) system (copyright 1986, Carnegie Mellon
 University), and the Gaussian 82(TM) system (copyright 1983,
 Carnegie Mellon University). Gaussian is a federally registered
 trademark of Gaussian, Inc.
  
 This software contains proprietary and confidential information,
 including trade secrets, belonging to Gaussian, Inc.
  
 This software is provided under written license and may be
 used, copied, transmitted, or stored only in accord with that
 written license.
  
 The following legend is applicable only to US Government
 contracts under FAR:
  
                    RESTRICTED RIGHTS LEGEND
  
 Use, reproduction and disclosure by the US Government is
 subject to restrictions as set forth in subparagraphs (a)
 and (c) of the Commercial Computer Software - Restricted
 Rights clause in FAR 52.227-19.
  
 Gaussian, Inc.
 340 Quinnipiac St., Bldg. 40, Wallingford CT 06492
  
  
 ---------------------------------------------------------------
 Warning -- This program may not be used in any manner that
 competes with the business of Gaussian, Inc. or will provide
 assistance to any competitor of Gaussian, Inc.  The licensee
 of this program is prohibited from giving any competitor of
 Gaussian, Inc. access to this program.  By using this program,
 the user acknowledges that Gaussian, Inc. is engaged in the
 business of creating and licensing software in the field of
 computational chemistry and represents and warrants to the
 licensee that it is not a competitor of Gaussian, Inc. and that
 it will not use this program in any manner prohibited above.
 ---------------------------------------------------------------
  

 Cite this work as:
 Gaussian 16, Revision C.01,
 M. J. Frisch, G. W. Trucks, H. B. Schlegel, G. E. Scuseria, 
 M. A. Robb, J. R. Cheeseman, G. Scalmani, V. Barone, 
 G. A. Petersson, H. Nakatsuji, X. Li, M. Caricato, A. V. Marenich, 
 J. Bloino, B. G. Janesko, R. Gomperts, B. Mennucci, H. P. Hratchian, 
 J. V. Ortiz, A. F. Izmaylov, J. L. Sonnenberg, D. Williams-Young, 
 F. Ding, F. Lipparini, F. Egidi, J. Goings, B. Peng, A. Petrone, 
 T. Henderson, D. Ranasinghe, V. G. Zakrzewski, J. Gao, N. Rega, 
 G. Zheng, W. Liang, M. Hada, M. Ehara, K. Toyota, R. Fukuda, 
 J. Hasegawa, M. Ishida, T. Nakajima, Y. Honda, O. Kitao, H. Nakai, 
 T. Vreven, K. Throssell, J. A. Montgomery, Jr., J. E. Peralta, 
 F. Ogliaro, M. J. Bearpark, J. J. Heyd, E. N. Brothers, K. N. Kudin, 
 V. N. Staroverov, T. A. Keith, R. Kobayashi, J. Normand, 
 K. Raghavachari, A. P. Rendell, J. C. Burant, S. S. Iyengar, 
 J. Tomasi, M. Cossi, J. M. Millam, M. Klene, C. Adamo, R. Cammi, 
 J. W. Ochterski, R. L. Martin, K. Morokuma, O. Farkas, 
 J. B. Foresman, and D. J. Fox, Gaussian, Inc., Wallingford CT, 2019.
 
 ******************************************
 Gaussian 16:  ES64L-G16RevC.01  3-Jul-2019
                24-May-2022 
 ******************************************
 %mem=8gb
 %nproc=4
 Will use up to    4 processors via shared memory.
 %chk=conf-123.chk
 ----------------------------------------------------------------------
 # B3LYP/6-31G* empiricaldispersion=gd3 guess=read geom=check nosymm in
 tegral(ultrafinegrid)
 ----------------------------------------------------------------------
 1/29=2,38=1,172=1/1;
 2/12=2,15=1,40=1/2;
 3/5=1,6=6,7=1,11=2,14=-4,25=1,30=1,74=-5,75=-5,116=-2,124=31/1,2,3;
 4/5=1/1;
 5/5=2,38=6/2;
 6/7=2,8=2,9=2,10=2,28=1/1;
 99/5=1,9=1/99;
 ------------------------------------------------------
 Candidate Structure: Conf:123 Charge calc in gas phase
 ------------------------------------------------------
 Structure from the checkpoint file:  "conf-123.chk"
 Charge =  1 Multiplicity = 1
 Redundant internal coordinates found in file.  (old form).
 N,0,-5.5736741662,-89.1478552323,129.865727197
 C,0,-4.6494306701,-89.7991382538,128.907140557
 C,0,-3.2829506361,-89.0929270593,128.8630643646
 O,0,-2.6293020774,-89.0914592706,127.8081300914
 C,0,-4.4699649472,-91.3370257457,129.0780192587
 C,0,-4.6368313089,-92.1150086998,127.7522573052
 C,0,-3.6705480994,-91.6447047982,126.6909298978
 O,0,-3.9840415386,-90.9770162281,125.7166162374
 O,0,-2.4171385008,-92.0271687454,126.949952582
 H,0,-1.8273432423,-91.6250123475,126.2851599012
 H,0,-6.5270980174,-89.4405573285,129.6516779225
 H,0,-5.0760476235,-89.5989671281,127.9238283178
 H,0,-5.2305909914,-91.7058688606,129.7754391823
 H,0,-3.4955055983,-91.5693509386,129.5202944736
 H,0,-5.6471614681,-91.9824389718,127.3567098766
 H,0,-4.4684352911,-93.1807735581,127.9373977643
 H,0,-5.4057343733,-89.4675923663,130.8212775494
 H,0,-5.5444529513,-87.3436775342,129.4937235177
 N,0,-2.8447025063,-88.5083952691,130.0025091349
 C,0,-1.662592745,-87.6195445196,130.0674991277
 C,0,-2.2070425848,-86.2343066914,129.6348097936
 O,0,-2.5564618601,-85.3772603937,130.4219543491
 C,0,-1.0478358856,-87.6028967097,131.4701408678
 C,0,0.2883753585,-86.8903322922,131.4757441057
 C,0,0.3807635297,-85.5172705824,131.7301968375
 C,0,1.4662897709,-87.5929898525,131.1809815737
 C,0,1.6117683813,-84.8636329822,131.6979120692
 C,0,2.7006015839,-86.9542497778,131.1428408664
 C,0,2.7772887246,-85.5803942154,131.4038351834
 O,0,4.012770807,-85.0065681229,131.3549463297
 H,0,-3.5106772177,-88.3758766774,130.7535160386
 H,0,-0.9395783382,-88.0009270554,129.3424800077
 H,0,-1.7495950526,-87.1104666865,132.1527417699
 H,0,-0.9287444122,-88.6414417507,131.7999917757
 H,0,-0.5209612136,-84.9522165932,131.944849494
 H,0,1.4196609613,-88.6635245894,130.9897064911
 H,0,1.6666968553,-83.7966047788,131.9042977364
 H,0,3.6143495549,-87.4978898179,130.9260606856
 H,0,3.9441659869,-84.0663497487,131.5833599806
 N,0,-2.4065851728,-86.1569986591,128.2667610531
 C,0,-3.5941720489,-85.5014487361,127.6956635287
 C,0,-4.7310564784,-86.4881990359,127.9997826605
 O,0,-5.1068410981,-87.3533554237,127.2037125129
 C,0,-3.3240474317,-85.2667807958,126.1949883609
 C,0,-4.5343129717,-85.1590438667,125.2284777431
 C,0,-4.3941328424,-86.0399336992,123.9657232389
 C,0,-4.7179048769,-87.5340592291,124.1040557404
 N,0,-3.8000650526,-88.2716513891,125.0464934581
 O,0,-5.1464027972,-86.4479084599,129.2485834687
 H,0,-2.1529194503,-87.0112748202,127.776448051
 H,0,-3.7687068396,-84.574786204,128.2455577987
 H,0,-2.7015817902,-84.3700044505,126.1229095275
 H,0,-2.6623335381,-86.0739545128,125.8575501964
 H,0,-4.6338267344,-84.1211664275,124.8963368306
 H,0,-5.4733338561,-85.405762226,125.7318328912
 H,0,-5.0840888084,-85.6707348369,123.1976704883
 H,0,-3.3873846002,-85.9227225725,123.5394073153
 H,0,-5.7224999408,-87.6847250266,124.5062614886
 H,0,-4.6507029582,-88.0313725047,123.1332713861
 H,0,-4.0143798086,-87.9491526756,126.015998595
 H,0,-2.8125418192,-88.1036047296,124.8422546853
 H,0,-3.9409857618,-89.300008975,125.0664059862
 Recover connectivity data from disk.
                           ----------------------------
                           !    Current Parameters    !
                           ! (Angstroms and Degrees)  !
 --------------------------                            --------------------------
 ! Name  Definition              Value                                          !
 --------------------------------------------------------------------------------
 ! R1    R(1,2)                  1.4823                                         !
 ! R2    R(1,11)                 1.0201                                         !
 ! R3    R(1,17)                 1.0215                                         !
 ! R4    R(1,18)                 1.8424                                         !
 ! R5    R(2,3)                  1.5388                                         !
 ! R6    R(2,5)                  1.5577                                         !
 ! R7    R(2,12)                 1.0904                                         !
 ! R8    R(3,4)                  1.241                                          !
 ! R9    R(3,19)                 1.3535                                         !
 ! R10   R(5,6)                  1.5462                                         !
 ! R11   R(5,13)                 1.0959                                         !
 ! R12   R(5,14)                 1.0951                                         !
 ! R13   R(6,7)                  1.5104                                         !
 ! R14   R(6,15)                 1.0931                                         !
 ! R15   R(6,16)                 1.0948                                         !
 ! R16   R(7,8)                  1.222                                          !
 ! R17   R(7,9)                  1.3358                                         !
 ! R18   R(9,10)                 0.9755                                         !
 ! R19   R(19,20)                1.4804                                         !
 ! R20   R(19,31)                1.0125                                         !
 ! R21   R(20,21)                1.55                                           !
 ! R22   R(20,23)                1.5315                                         !
 ! R23   R(20,32)                1.0926                                         !
 ! R24   R(21,22)                1.215                                          !
 ! R25   R(21,40)                1.3847                                         !
 ! R26   R(23,24)                1.5143                                         !
 ! R27   R(23,33)                1.0959                                         !
 ! R28   R(23,34)                1.0962                                         !
 ! R29   R(24,25)                1.3995                                         !
 ! R30   R(24,26)                1.4029                                         !
 ! R31   R(25,27)                1.3942                                         !
 ! R32   R(25,35)                1.0856                                         !
 ! R33   R(26,28)                1.3903                                         !
 ! R34   R(26,36)                1.0885                                         !
 ! R35   R(27,29)                1.3995                                         !
 ! R36   R(27,37)                1.0882                                         !
 ! R37   R(28,29)                1.4005                                         !
 ! R38   R(28,38)                1.0851                                         !
 ! R39   R(29,30)                1.3631                                         !
 ! R40   R(30,39)                0.97                                           !
 ! R41   R(40,41)                1.4718                                         !
 ! R42   R(40,50)                1.0171                                         !
 ! R43   R(41,42)                1.5358                                         !
 ! R44   R(41,44)                1.5427                                         !
 ! R45   R(41,51)                1.0916                                         !
 ! R46   R(42,43)                1.2343                                         !
 ! R47   R(42,49)                1.3167                                         !
 ! R48   R(44,45)                1.5526                                         !
 ! R49   R(44,52)                1.094                                          !
 ! R50   R(44,53)                1.0969                                         !
 ! R51   R(45,46)                1.546                                          !
 ! R52   R(45,54)                1.0943                                         !
 ! R53   R(45,55)                1.0936                                         !
 ! R54   R(46,47)                1.535                                          !
 ! R55   R(46,56)                1.0965                                         !
 ! R56   R(46,57)                1.0996                                         !
 ! R57   R(47,48)                1.5082                                         !
 ! R58   R(47,58)                1.0926                                         !
 ! R59   R(47,59)                1.0928                                         !
 ! R60   R(48,60)                1.044                                          !
 ! R61   R(48,61)                1.0223                                         !
 ! R62   R(48,62)                1.0382                                         !
 ! A1    A(2,1,11)             108.7239                                         !
 ! A2    A(2,1,17)             111.4006                                         !
 ! A3    A(2,1,18)             106.8457                                         !
 ! A4    A(11,1,17)            105.0782                                         !
 ! A5    A(11,1,18)            104.6821                                         !
 ! A6    A(17,1,18)            119.5236                                         !
 ! A7    A(1,2,3)              111.7505                                         !
 ! A8    A(1,2,5)              115.7641                                         !
 ! A9    A(1,2,12)             104.9849                                         !
 ! A10   A(3,2,5)              110.7274                                         !
 ! A11   A(3,2,12)             103.7304                                         !
 ! A12   A(5,2,12)             108.98                                           !
 ! A13   A(2,3,4)              119.512                                          !
 ! A14   A(2,3,19)             117.4903                                         !
 ! A15   A(4,3,19)             122.9938                                         !
 ! A16   A(2,5,6)              112.9705                                         !
 ! A17   A(2,5,13)             108.7917                                         !
 ! A18   A(2,5,14)             110.8721                                         !
 ! A19   A(6,5,13)             107.5424                                         !
 ! A20   A(6,5,14)             109.6083                                         !
 ! A21   A(13,5,14)            106.8098                                         !
 ! A22   A(5,6,7)              112.1347                                         !
 ! A23   A(5,6,15)             110.4264                                         !
 ! A24   A(5,6,16)             109.1612                                         !
 ! A25   A(7,6,15)             107.4147                                         !
 ! A26   A(7,6,16)             108.8783                                         !
 ! A27   A(15,6,16)            108.7504                                         !
 ! A28   A(6,7,8)              124.489                                          !
 ! A29   A(6,7,9)              112.017                                          !
 ! A30   A(8,7,9)              123.4865                                         !
 ! A31   A(7,9,10)             108.4901                                         !
 ! A32   A(3,19,20)            123.6953                                         !
 ! A33   A(3,19,31)            117.9033                                         !
 ! A34   A(20,19,31)           114.4613                                         !
 ! A35   A(19,20,21)           104.1137                                         !
 ! A36   A(19,20,23)           111.5458                                         !
 ! A37   A(19,20,32)           106.8386                                         !
 ! A38   A(21,20,23)           112.7641                                         !
 ! A39   A(21,20,32)           111.0475                                         !
 ! A40   A(23,20,32)           110.236                                          !
 ! A41   A(20,21,22)           123.4061                                         !
 ! A42   A(20,21,40)           112.1055                                         !
 ! A43   A(22,21,40)           124.0038                                         !
 ! A44   A(20,23,24)           111.2652                                         !
 ! A45   A(20,23,33)           108.5607                                         !
 ! A46   A(20,23,34)           107.993                                          !
 ! A47   A(24,23,33)           110.5669                                         !
 ! A48   A(24,23,34)           110.416                                          !
 ! A49   A(33,23,34)           107.9312                                         !
 ! A50   A(23,24,25)           121.3711                                         !
 ! A51   A(23,24,26)           120.2924                                         !
 ! A52   A(25,24,26)           118.3059                                         !
 ! A53   A(24,25,27)           120.9352                                         !
 ! A54   A(24,25,35)           119.4588                                         !
 ! A55   A(27,25,35)           119.6026                                         !
 ! A56   A(24,26,28)           121.4047                                         !
 ! A57   A(24,26,36)           119.5747                                         !
 ! A58   A(28,26,36)           119.0161                                         !
 ! A59   A(25,27,29)           120.0061                                         !
 ! A60   A(25,27,37)           119.9935                                         !
 ! A61   A(29,27,37)           120.0001                                         !
 ! A62   A(26,28,29)           119.6152                                         !
 ! A63   A(26,28,38)           121.527                                          !
 ! A64   A(29,28,38)           118.8539                                         !
 ! A65   A(27,29,28)           119.7324                                         !
 ! A66   A(27,29,30)           123.145                                          !
 ! A67   A(28,29,30)           117.1225                                         !
 ! A68   A(29,30,39)           109.6026                                         !
 ! A69   A(21,40,41)           121.6348                                         !
 ! A70   A(21,40,50)           113.1684                                         !
 ! A71   A(41,40,50)           112.8471                                         !
 ! A72   A(40,41,42)           103.55                                           !
 ! A73   A(40,41,44)           107.6926                                         !
 ! A74   A(40,41,51)           108.1589                                         !
 ! A75   A(42,41,44)           114.8324                                         !
 ! A76   A(42,41,51)           109.1059                                         !
 ! A77   A(44,41,51)           112.8854                                         !
 ! A78   A(41,42,43)           123.231                                          !
 ! A79   A(41,42,49)           113.6824                                         !
 ! A80   A(43,42,49)           122.4883                                         !
 ! A81   A(41,44,45)           118.66                                           !
 ! A82   A(41,44,52)           106.7621                                         !
 ! A83   A(41,44,53)           107.0331                                         !
 ! A84   A(45,44,52)           110.2203                                         !
 ! A85   A(45,44,53)           109.2567                                         !
 ! A86   A(52,44,53)           103.868                                          !
 ! A87   A(44,45,46)           113.4684                                         !
 ! A88   A(44,45,54)           109.0056                                         !
 ! A89   A(44,45,55)           111.5397                                         !
 ! A90   A(46,45,54)           107.5027                                         !
 ! A91   A(46,45,55)           108.9807                                         !
 ! A92   A(54,45,55)           105.9973                                         !
 ! A93   A(45,46,47)           117.5073                                         !
 ! A94   A(45,46,56)           108.8581                                         !
 ! A95   A(45,46,57)           109.8135                                         !
 ! A96   A(47,46,56)           104.9598                                         !
 ! A97   A(47,46,57)           109.3789                                         !
 ! A98   A(56,46,57)           105.5845                                         !
 ! A99   A(46,47,48)           113.8266                                         !
 ! A100  A(46,47,58)           111.1824                                         !
 ! A101  A(46,47,59)           110.4823                                         !
 ! A102  A(48,47,58)           105.1942                                         !
 ! A103  A(48,47,59)           107.1645                                         !
 ! A104  A(58,47,59)           108.7119                                         !
 ! A105  A(47,48,60)           107.7158                                         !
 ! A106  A(47,48,61)           112.4962                                         !
 ! A107  A(47,48,62)           114.4448                                         !
 ! A108  A(60,48,61)           109.4539                                         !
 ! A109  A(60,48,62)           105.0891                                         !
 ! A110  A(61,48,62)           107.3241                                         !
 ! D1    D(11,1,2,3)           162.0279                                         !
 ! D2    D(11,1,2,5)           -69.9712                                         !
 ! D3    D(11,1,2,12)           50.23                                           !
 ! D4    D(17,1,2,3)           -82.641                                          !
 ! D5    D(17,1,2,5)            45.3599                                         !
 ! D6    D(17,1,2,12)          165.5612                                         !
 ! D7    D(18,1,2,3)            49.555                                          !
 ! D8    D(18,1,2,5)           177.5559                                         !
 ! D9    D(18,1,2,12)          -62.2428                                         !
 ! D10   D(1,2,3,4)           -149.3047                                         !
 ! D11   D(1,2,3,19)            31.3952                                         !
 ! D12   D(5,2,3,4)             80.052                                          !
 ! D13   D(5,2,3,19)           -99.248                                          !
 ! D14   D(12,2,3,4)           -36.7197                                         !
 ! D15   D(12,2,3,19)          143.9803                                         !
 ! D16   D(1,2,5,6)            130.511                                          !
 ! D17   D(1,2,5,13)            11.1684                                         !
 ! D18   D(1,2,5,14)          -106.0045                                         !
 ! D19   D(3,2,5,6)           -100.9838                                         !
 ! D20   D(3,2,5,13)           139.6736                                         !
 ! D21   D(3,2,5,14)            22.5007                                         !
 ! D22   D(12,2,5,6)            12.502                                          !
 ! D23   D(12,2,5,13)         -106.8406                                         !
 ! D24   D(12,2,5,14)          135.9864                                         !
 ! D25   D(2,3,19,20)         -170.1926                                         !
 ! D26   D(2,3,19,31)          -13.8062                                         !
 ! D27   D(4,3,19,20)           10.5337                                         !
 ! D28   D(4,3,19,31)          166.9201                                         !
 ! D29   D(2,5,6,7)             57.5322                                         !
 ! D30   D(2,5,6,15)           -62.221                                          !
 ! D31   D(2,5,6,16)           178.2713                                         !
 ! D32   D(13,5,6,7)           177.5935                                         !
 ! D33   D(13,5,6,15)           57.8403                                         !
 ! D34   D(13,5,6,16)          -61.6674                                         !
 ! D35   D(14,5,6,7)           -66.6475                                         !
 ! D36   D(14,5,6,15)          173.5993                                         !
 ! D37   D(14,5,6,16)           54.0916                                         !
 ! D38   D(5,6,7,8)           -106.9855                                         !
 ! D39   D(5,6,7,9)             72.046                                          !
 ! D40   D(15,6,7,8)            14.5118                                         !
 ! D41   D(15,6,7,9)          -166.4567                                         !
 ! D42   D(16,6,7,8)           132.1119                                         !
 ! D43   D(16,6,7,9)           -48.8566                                         !
 ! D44   D(6,7,9,10)          -174.5075                                         !
 ! D45   D(8,7,9,10)             4.5353                                         !
 ! D46   D(3,19,20,21)          83.0195                                         !
 ! D47   D(3,19,20,23)        -155.0944                                         !
 ! D48   D(3,19,20,32)         -34.5618                                         !
 ! D49   D(31,19,20,21)        -74.0942                                         !
 ! D50   D(31,19,20,23)         47.7919                                         !
 ! D51   D(31,19,20,32)        168.3244                                         !
 ! D52   D(19,20,21,22)         96.2449                                         !
 ! D53   D(19,20,21,40)        -76.0454                                         !
 ! D54   D(23,20,21,22)        -24.831                                          !
 ! D55   D(23,20,21,40)        162.8787                                         !
 ! D56   D(32,20,21,22)       -149.1223                                         !
 ! D57   D(32,20,21,40)         38.5875                                         !
 ! D58   D(19,20,23,24)        170.1624                                         !
 ! D59   D(19,20,23,33)        -67.9449                                         !
 ! D60   D(19,20,23,34)         48.8322                                         !
 ! D61   D(21,20,23,24)        -73.0942                                         !
 ! D62   D(21,20,23,33)         48.7984                                         !
 ! D63   D(21,20,23,34)        165.5755                                         !
 ! D64   D(32,20,23,24)         51.6416                                         !
 ! D65   D(32,20,23,33)        173.5342                                         !
 ! D66   D(32,20,23,34)        -69.6887                                         !
 ! D67   D(20,21,40,41)        138.6779                                         !
 ! D68   D(20,21,40,50)         -0.7576                                         !
 ! D69   D(22,21,40,41)        -33.5582                                         !
 ! D70   D(22,21,40,50)       -172.9937                                         !
 ! D71   D(20,23,24,25)         91.071                                          !
 ! D72   D(20,23,24,26)        -86.8807                                         !
 ! D73   D(33,23,24,25)        -29.6492                                         !
 ! D74   D(33,23,24,26)        152.3991                                         !
 ! D75   D(34,23,24,25)       -149.025                                          !
 ! D76   D(34,23,24,26)         33.0233                                         !
 ! D77   D(23,24,25,27)       -178.2712                                         !
 ! D78   D(23,24,25,35)          1.0488                                         !
 ! D79   D(26,24,25,27)         -0.2801                                         !
 ! D80   D(26,24,25,35)        179.04                                           !
 ! D81   D(23,24,26,28)        178.1776                                         !
 ! D82   D(23,24,26,36)         -2.6064                                         !
 ! D83   D(25,24,26,28)          0.164                                          !
 ! D84   D(25,24,26,36)        179.38                                           !
 ! D85   D(24,25,27,29)          0.2016                                         !
 ! D86   D(24,25,27,37)       -179.6172                                         !
 ! D87   D(35,25,27,29)       -179.1175                                         !
 ! D88   D(35,25,27,37)          1.0638                                         !
 ! D89   D(24,26,28,29)          0.031                                          !
 ! D90   D(24,26,28,38)        179.3012                                         !
 ! D91   D(36,26,28,29)       -179.1894                                         !
 ! D92   D(36,26,28,38)          0.0809                                         !
 ! D93   D(25,27,29,28)         -0.0006                                         !
 ! D94   D(25,27,29,30)        179.9867                                         !
 ! D95   D(37,27,29,28)        179.8182                                         !
 ! D96   D(37,27,29,30)         -0.1945                                         !
 ! D97   D(26,28,29,27)         -0.114                                          !
 ! D98   D(26,28,29,30)        179.8979                                         !
 ! D99   D(38,28,29,27)       -179.4038                                         !
 ! D100  D(38,28,29,30)          0.6081                                         !
 ! D101  D(27,29,30,39)          2.0818                                         !
 ! D102  D(28,29,30,39)       -177.9305                                         !
 ! D103  D(21,40,41,42)        -72.5851                                         !
 ! D104  D(21,40,41,44)        165.3881                                         !
 ! D105  D(21,40,41,51)         43.0971                                         !
 ! D106  D(50,40,41,42)         66.967                                          !
 ! D107  D(50,40,41,44)        -55.0599                                         !
 ! D108  D(50,40,41,51)       -177.3508                                         !
 ! D109  D(40,41,42,43)        -93.9012                                         !
 ! D110  D(40,41,42,49)         77.4163                                         !
 ! D111  D(44,41,42,43)         23.2271                                         !
 ! D112  D(44,41,42,49)       -165.4554                                         !
 ! D113  D(51,41,42,43)        151.0907                                         !
 ! D114  D(51,41,42,49)        -37.5918                                         !
 ! D115  D(40,41,44,45)        154.6822                                         !
 ! D116  D(40,41,44,52)        -80.1484                                         !
 ! D117  D(40,41,44,53)         30.5888                                         !
 ! D118  D(42,41,44,45)         39.936                                          !
 ! D119  D(42,41,44,52)        165.1054                                         !
 ! D120  D(42,41,44,53)        -84.1574                                         !
 ! D121  D(51,41,44,45)        -85.995                                          !
 ! D122  D(51,41,44,52)         39.1744                                         !
 ! D123  D(51,41,44,53)        149.9116                                         !
 ! D124  D(41,44,45,46)       -131.4402                                         !
 ! D125  D(41,44,45,54)        108.8033                                         !
 ! D126  D(41,44,45,55)         -7.8968                                         !
 ! D127  D(52,44,45,46)        105.0847                                         !
 ! D128  D(52,44,45,54)        -14.6718                                         !
 ! D129  D(52,44,45,55)       -131.3719                                         !
 ! D130  D(53,44,45,46)         -8.4461                                         !
 ! D131  D(53,44,45,54)       -128.2026                                         !
 ! D132  D(53,44,45,55)        115.0973                                         !
 ! D133  D(44,45,46,47)         79.8655                                         !
 ! D134  D(44,45,46,56)       -161.0951                                         !
 ! D135  D(44,45,46,57)        -45.9557                                         !
 ! D136  D(54,45,46,47)       -159.5257                                         !
 ! D137  D(54,45,46,56)        -40.4862                                         !
 ! D138  D(54,45,46,57)         74.6532                                         !
 ! D139  D(55,45,46,47)        -45.0661                                         !
 ! D140  D(55,45,46,56)         73.9734                                         !
 ! D141  D(55,45,46,57)       -170.8872                                         !
 ! D142  D(45,46,47,48)        -63.4129                                         !
 ! D143  D(45,46,47,58)         55.1684                                         !
 ! D144  D(45,46,47,59)        175.9673                                         !
 ! D145  D(56,46,47,48)        175.4998                                         !
 ! D146  D(56,46,47,58)        -65.919                                          !
 ! D147  D(56,46,47,59)         54.88                                           !
 ! D148  D(57,46,47,48)         62.6218                                         !
 ! D149  D(57,46,47,58)       -178.797                                          !
 ! D150  D(57,46,47,59)        -57.998                                          !
 ! D151  D(46,47,48,60)         70.0989                                         !
 ! D152  D(46,47,48,61)        -50.6128                                         !
 ! D153  D(46,47,48,62)       -173.4524                                         !
 ! D154  D(58,47,48,60)        -51.8556                                         !
 ! D155  D(58,47,48,61)       -172.5674                                         !
 ! D156  D(58,47,48,62)         64.5931                                         !
 ! D157  D(59,47,48,60)       -167.4383                                         !
 ! D158  D(59,47,48,61)         71.8499                                         !
 ! D159  D(59,47,48,62)        -50.9896                                         !
 --------------------------------------------------------------------------------
 Symmetry turned off by external request.
 Stoichiometry    C20H31N4O7(1+)
 Framework group  C1[X(C20H31N4O7)]
 Deg. of freedom   180
 Full point group                 C1      NOp   1
                          Input orientation:                          
 ---------------------------------------------------------------------
 Center     Atomic      Atomic             Coordinates (Angstroms)
 Number     Number       Type             X           Y           Z
 ---------------------------------------------------------------------
      1          7           0       -5.573674  -89.147855  129.865727
      2          6           0       -4.649431  -89.799138  128.907141
      3          6           0       -3.282951  -89.092927  128.863064
      4          8           0       -2.629302  -89.091459  127.808130
      5          6           0       -4.469965  -91.337026  129.078019
      6          6           0       -4.636831  -92.115009  127.752257
      7          6           0       -3.670548  -91.644705  126.690930
      8          8           0       -3.984042  -90.977016  125.716616
      9          8           0       -2.417139  -92.027169  126.949953
     10          1           0       -1.827343  -91.625012  126.285160
     11          1           0       -6.527098  -89.440557  129.651678
     12          1           0       -5.076048  -89.598967  127.923828
     13          1           0       -5.230591  -91.705869  129.775439
     14          1           0       -3.495506  -91.569351  129.520294
     15          1           0       -5.647161  -91.982439  127.356710
     16          1           0       -4.468435  -93.180774  127.937398
     17          1           0       -5.405734  -89.467592  130.821278
     18          1           0       -5.544453  -87.343678  129.493724
     19          7           0       -2.844703  -88.508395  130.002509
     20          6           0       -1.662593  -87.619545  130.067499
     21          6           0       -2.207043  -86.234307  129.634810
     22          8           0       -2.556462  -85.377260  130.421954
     23          6           0       -1.047836  -87.602897  131.470141
     24          6           0        0.288375  -86.890332  131.475744
     25          6           0        0.380764  -85.517271  131.730197
     26          6           0        1.466290  -87.592990  131.180982
     27          6           0        1.611768  -84.863633  131.697912
     28          6           0        2.700602  -86.954250  131.142841
     29          6           0        2.777289  -85.580394  131.403835
     30          8           0        4.012771  -85.006568  131.354946
     31          1           0       -3.510677  -88.375877  130.753516
     32          1           0       -0.939578  -88.000927  129.342480
     33          1           0       -1.749595  -87.110467  132.152742
     34          1           0       -0.928744  -88.641442  131.799992
     35          1           0       -0.520961  -84.952217  131.944849
     36          1           0        1.419661  -88.663525  130.989706
     37          1           0        1.666697  -83.796605  131.904298
     38          1           0        3.614350  -87.497890  130.926061
     39          1           0        3.944166  -84.066350  131.583360
     40          7           0       -2.406585  -86.156999  128.266761
     41          6           0       -3.594172  -85.501449  127.695664
     42          6           0       -4.731056  -86.488199  127.999783
     43          8           0       -5.106841  -87.353355  127.203713
     44          6           0       -3.324047  -85.266781  126.194988
     45          6           0       -4.534313  -85.159044  125.228478
     46          6           0       -4.394133  -86.039934  123.965723
     47          6           0       -4.717905  -87.534059  124.104056
     48          7           0       -3.800065  -88.271651  125.046493
     49          8           0       -5.146403  -86.447908  129.248583
     50          1           0       -2.152919  -87.011275  127.776448
     51          1           0       -3.768707  -84.574786  128.245558
     52          1           0       -2.701582  -84.370004  126.122910
     53          1           0       -2.662334  -86.073955  125.857550
     54          1           0       -4.633827  -84.121166  124.896337
     55          1           0       -5.473334  -85.405762  125.731833
     56          1           0       -5.084089  -85.670735  123.197670
     57          1           0       -3.387385  -85.922723  123.539407
     58          1           0       -5.722500  -87.684725  124.506261
     59          1           0       -4.650703  -88.031373  123.133271
     60          1           0       -4.014380  -87.949153  126.015999
     61          1           0       -2.812542  -88.103605  124.842255
     62          1           0       -3.940986  -89.300009  125.066406
 ---------------------------------------------------------------------
 Rotational constants (GHZ):           0.1952804           0.0868412           0.0751464
 Standard basis: 6-31G(d) (6D, 7F)
   527 basis functions,   992 primitive gaussians,   527 cartesian basis functions
   117 alpha electrons      117 beta electrons
       nuclear repulsion energy      3425.1404161709 Hartrees.
 NAtoms=   62 NActive=   62 NUniq=   62 SFac= 1.00D+00 NAtFMM=   60 NAOKFM=T Big=T
 Integral buffers will be    131072 words long.
 Raffenetti 2 integral format.
 Two-electron integral symmetry is turned off.
 Nuclear repulsion after empirical dispersion term =     3425.0519994979 Hartrees.
 One-electron integrals computed using PRISM.
 NBasis=   527 RedAO= T EigKep=  4.33D-04  NBF=   527
 NBsUse=   527 1.00D-06 EigRej= -1.00D+00 NBFU=   527
 Initial guess from the checkpoint file:  "conf-123.chk"
 B after Tr=     0.000000    0.000000    0.000000
         Rot=    1.000000    0.000000    0.000000    0.000000 Ang=   0.00 deg.
 Requested convergence on RMS density matrix=1.00D-08 within 128 cycles.
 Requested convergence on MAX density matrix=1.00D-06.
 Requested convergence on             energy=1.00D-06.
 No special actions if energy rises.
 SCF Done:  E(RB3LYP) =  -1526.31297700     A.U. after    2 cycles
            NFock=  2  Conv=0.72D-08     -V/T= 2.0093

 **********************************************************************

            Population analysis using the SCF Density.

 **********************************************************************

 Alpha  occ. eigenvalues --  -19.31707 -19.30160 -19.27018 -19.26788 -19.24780
 Alpha  occ. eigenvalues --  -19.23961 -19.22472 -14.55694 -14.49033 -14.47747
 Alpha  occ. eigenvalues --  -14.46486 -10.44842 -10.44525 -10.41825 -10.39140
 Alpha  occ. eigenvalues --  -10.37117 -10.35660 -10.35455 -10.34020 -10.32259
 Alpha  occ. eigenvalues --  -10.31988 -10.31937 -10.31372 -10.31191 -10.30474
 Alpha  occ. eigenvalues --  -10.28029 -10.26088 -10.25870 -10.25533 -10.25313
 Alpha  occ. eigenvalues --  -10.24928  -1.22935  -1.22589  -1.16385  -1.14251
 Alpha  occ. eigenvalues --   -1.13984  -1.13596  -1.12078  -1.10918  -1.05478
 Alpha  occ. eigenvalues --   -1.03882  -1.02870  -0.92713  -0.92307  -0.91994
 Alpha  occ. eigenvalues --   -0.89173  -0.87527  -0.83922  -0.83245  -0.81248
 Alpha  occ. eigenvalues --   -0.80564  -0.77715  -0.76973  -0.74729  -0.72819
 Alpha  occ. eigenvalues --   -0.72002  -0.71722  -0.70625  -0.69808  -0.68830
 Alpha  occ. eigenvalues --   -0.68768  -0.68292  -0.66145  -0.65487  -0.63661
 Alpha  occ. eigenvalues --   -0.62239  -0.61941  -0.61574  -0.61074  -0.60660
 Alpha  occ. eigenvalues --   -0.60461  -0.60295  -0.59299  -0.58663  -0.58223
 Alpha  occ. eigenvalues --   -0.57857  -0.57119  -0.55735  -0.55047  -0.54931
 Alpha  occ. eigenvalues --   -0.54496  -0.53875  -0.53382  -0.52900  -0.52268
 Alpha  occ. eigenvalues --   -0.51902  -0.51528  -0.50846  -0.50449  -0.50229
 Alpha  occ. eigenvalues --   -0.49536  -0.49090  -0.48904  -0.48334  -0.48201
 Alpha  occ. eigenvalues --   -0.47763  -0.47409  -0.46666  -0.46563  -0.46402
 Alpha  occ. eigenvalues --   -0.45428  -0.45226  -0.44209  -0.43949  -0.43752
 Alpha  occ. eigenvalues --   -0.42641  -0.41226  -0.41039  -0.40273  -0.40082
 Alpha  occ. eigenvalues --   -0.39491  -0.39071  -0.38072  -0.36408  -0.34709
 Alpha  occ. eigenvalues --   -0.31679  -0.28304
 Alpha virt. eigenvalues --   -0.13620  -0.12054  -0.11001  -0.08094  -0.07667
 Alpha virt. eigenvalues --   -0.06734  -0.06103  -0.05494  -0.03705  -0.02732
 Alpha virt. eigenvalues --   -0.01252  -0.00945  -0.00215  -0.00021   0.00909
 Alpha virt. eigenvalues --    0.01159   0.01445   0.01843   0.02222   0.02365
 Alpha virt. eigenvalues --    0.02714   0.02987   0.03801   0.03985   0.04235
 Alpha virt. eigenvalues --    0.04584   0.04987   0.05457   0.06262   0.06427
 Alpha virt. eigenvalues --    0.06765   0.07113   0.07253   0.08352   0.08625
 Alpha virt. eigenvalues --    0.09385   0.09802   0.10304   0.10646   0.10893
 Alpha virt. eigenvalues --    0.11564   0.11839   0.12155   0.12643   0.13589
 Alpha virt. eigenvalues --    0.13689   0.14324   0.14958   0.15505   0.16536
 Alpha virt. eigenvalues --    0.16782   0.17098   0.17698   0.18568   0.19395
 Alpha virt. eigenvalues --    0.19979   0.21985   0.23316   0.24238   0.25788
 Alpha virt. eigenvalues --    0.25997   0.27144   0.27855   0.27994   0.28734
 Alpha virt. eigenvalues --    0.29904   0.30895   0.36407   0.36795   0.38223
 Alpha virt. eigenvalues --    0.39465   0.39958   0.40726   0.41147   0.41741
 Alpha virt. eigenvalues --    0.42103   0.43139   0.43439   0.43523   0.44431
 Alpha virt. eigenvalues --    0.44941   0.45910   0.46102   0.46431   0.46820
 Alpha virt. eigenvalues --    0.47179   0.47830   0.48611   0.49250   0.49573
 Alpha virt. eigenvalues --    0.50102   0.50839   0.50956   0.51273   0.51587
 Alpha virt. eigenvalues --    0.52776   0.53184   0.53446   0.54019   0.54305
 Alpha virt. eigenvalues --    0.54839   0.55180   0.55235   0.56168   0.56774
 Alpha virt. eigenvalues --    0.57224   0.57906   0.58340   0.58571   0.59015
 Alpha virt. eigenvalues --    0.59659   0.60236   0.61341   0.61733   0.62396
 Alpha virt. eigenvalues --    0.62872   0.63871   0.64319   0.65163   0.66332
 Alpha virt. eigenvalues --    0.67342   0.68070   0.68551   0.69189   0.69350
 Alpha virt. eigenvalues --    0.70362   0.71028   0.71288   0.72477   0.72696
 Alpha virt. eigenvalues --    0.73329   0.74072   0.74458   0.74961   0.75344
 Alpha virt. eigenvalues --    0.75423   0.75724   0.76508   0.76690   0.77075
 Alpha virt. eigenvalues --    0.77547   0.77749   0.78637   0.78745   0.78866
 Alpha virt. eigenvalues --    0.79481   0.79981   0.80363   0.80901   0.81278
 Alpha virt. eigenvalues --    0.81575   0.82061   0.83221   0.83591   0.83646
 Alpha virt. eigenvalues --    0.83968   0.84469   0.85329   0.85929   0.85990
 Alpha virt. eigenvalues --    0.86901   0.87221   0.87501   0.88554   0.89356
 Alpha virt. eigenvalues --    0.89902   0.90374   0.90495   0.91758   0.92031
 Alpha virt. eigenvalues --    0.93493   0.94291   0.94705   0.95674   0.96187
 Alpha virt. eigenvalues --    0.96683   0.97717   0.98300   0.99117   0.99312
 Alpha virt. eigenvalues --    1.00221   1.00988   1.02756   1.03523   1.06468
 Alpha virt. eigenvalues --    1.07273   1.08647   1.09111   1.09742   1.10532
 Alpha virt. eigenvalues --    1.11246   1.13241   1.13736   1.14344   1.15550
 Alpha virt. eigenvalues --    1.16572   1.17955   1.18346   1.19430   1.19748
 Alpha virt. eigenvalues --    1.20828   1.23015   1.24556   1.25494   1.26485
 Alpha virt. eigenvalues --    1.27152   1.27415   1.28394   1.29502   1.30421
 Alpha virt. eigenvalues --    1.30879   1.32196   1.32907   1.34021   1.35362
 Alpha virt. eigenvalues --    1.36881   1.37561   1.37932   1.38254   1.39246
 Alpha virt. eigenvalues --    1.39676   1.40108   1.41000   1.43048   1.44471
 Alpha virt. eigenvalues --    1.44781   1.46682   1.47370   1.47921   1.49028
 Alpha virt. eigenvalues --    1.50301   1.51816   1.51931   1.53063   1.54961
 Alpha virt. eigenvalues --    1.56794   1.58172   1.59233   1.59338   1.60802
 Alpha virt. eigenvalues --    1.61569   1.62275   1.63563   1.64106   1.66117
 Alpha virt. eigenvalues --    1.66512   1.67270   1.67565   1.68209   1.68578
 Alpha virt. eigenvalues --    1.68636   1.69884   1.71039   1.71704   1.72475
 Alpha virt. eigenvalues --    1.73234   1.73552   1.74778   1.75178   1.75898
 Alpha virt. eigenvalues --    1.76003   1.77649   1.77812   1.79138   1.79851
 Alpha virt. eigenvalues --    1.80504   1.81255   1.81667   1.81910   1.82737
 Alpha virt. eigenvalues --    1.83277   1.83803   1.84853   1.85901   1.86450
 Alpha virt. eigenvalues --    1.86604   1.87437   1.88009   1.88802   1.89613
 Alpha virt. eigenvalues --    1.90527   1.90804   1.91284   1.92001   1.92200
 Alpha virt. eigenvalues --    1.93121   1.94133   1.94565   1.95871   1.96823
 Alpha virt. eigenvalues --    1.97600   1.98033   1.98561   2.00574   2.00887
 Alpha virt. eigenvalues --    2.01344   2.02602   2.03325   2.04611   2.06337
 Alpha virt. eigenvalues --    2.07188   2.07765   2.08825   2.10510   2.11290
 Alpha virt. eigenvalues --    2.12001   2.12226   2.13155   2.16823   2.17448
 Alpha virt. eigenvalues --    2.19330   2.19590   2.20202   2.21184   2.21486
 Alpha virt. eigenvalues --    2.22743   2.23958   2.24633   2.24994   2.25885
 Alpha virt. eigenvalues --    2.27756   2.28098   2.28966   2.29635   2.31635
 Alpha virt. eigenvalues --    2.32315   2.32736   2.33803   2.34070   2.34983
 Alpha virt. eigenvalues --    2.36887   2.37603   2.39537   2.40904   2.42266
 Alpha virt. eigenvalues --    2.43321   2.44279   2.45192   2.45918   2.47661
 Alpha virt. eigenvalues --    2.49215   2.49632   2.50098   2.52956   2.53010
 Alpha virt. eigenvalues --    2.53981   2.54456   2.55082   2.55797   2.57562
 Alpha virt. eigenvalues --    2.59370   2.59695   2.60115   2.60584   2.63682
 Alpha virt. eigenvalues --    2.65967   2.66745   2.68490   2.69015   2.72054
 Alpha virt. eigenvalues --    2.73034   2.73862   2.75552   2.80443   2.81502
 Alpha virt. eigenvalues --    2.83098   2.84935   2.86667   2.90073   2.91123
 Alpha virt. eigenvalues --    2.92797   2.93127   2.94420   2.95376   2.98613
 Alpha virt. eigenvalues --    3.02186   3.03865   3.05765   3.35115   3.74144
 Alpha virt. eigenvalues --    3.76028   3.79551   3.87853   3.90919   3.93510
 Alpha virt. eigenvalues --    3.96047   3.99872   4.04663   4.05246   4.05825
 Alpha virt. eigenvalues --    4.07694   4.12558   4.15276   4.16268   4.18913
 Alpha virt. eigenvalues --    4.21899   4.25682   4.28167   4.28958   4.32527
 Alpha virt. eigenvalues --    4.34765   4.36079   4.39710   4.40766   4.44134
 Alpha virt. eigenvalues --    4.46843   4.55275   4.58258   4.61804   4.69723
          Condensed to atoms (all electrons):
 Mulliken charges:
               1
     1  N   -0.792053
     2  C   -0.068295
     3  C    0.624197
     4  O   -0.584831
     5  C   -0.301619
     6  C   -0.347218
     7  C    0.616987
     8  O   -0.514957
     9  O   -0.526199
    10  H    0.422982
    11  H    0.350264
    12  H    0.196984
    13  H    0.171390
    14  H    0.193014
    15  H    0.184683
    16  H    0.204554
    17  H    0.333523
    18  H    0.456871
    19  N   -0.589562
    20  C   -0.075363
    21  C    0.633964
    22  O   -0.476668
    23  C   -0.370070
    24  C    0.141728
    25  C   -0.186036
    26  C   -0.189789
    27  C   -0.194950
    28  C   -0.156833
    29  C    0.354825
    30  O   -0.633720
    31  H    0.349248
    32  H    0.189200
    33  H    0.171850
    34  H    0.158903
    35  H    0.161334
    36  H    0.123927
    37  H    0.132755
    38  H    0.151025
    39  H    0.414195
    40  N   -0.616758
    41  C   -0.033881
    42  C    0.603981
    43  O   -0.540767
    44  C   -0.293917
    45  C   -0.274304
    46  C   -0.301212
    47  C   -0.183994
    48  N   -0.791931
    49  O   -0.559174
    50  H    0.345186
    51  H    0.218338
    52  H    0.196588
    53  H    0.109335
    54  H    0.177719
    55  H    0.168574
    56  H    0.189965
    57  H    0.161674
    58  H    0.213027
    59  H    0.203138
    60  H    0.445944
    61  H    0.386492
    62  H    0.445736
 Sum of Mulliken charges =   1.00000
 Mulliken charges with hydrogens summed into heavy atoms:
               1
     1  N   -0.108265
     2  C    0.128689
     3  C    0.624197
     4  O   -0.584831
     5  C    0.062785
     6  C    0.042019
     7  C    0.616987
     8  O   -0.514957
     9  O   -0.103217
    19  N   -0.240314
    20  C    0.113836
    21  C    0.633964
    22  O   -0.476668
    23  C   -0.039317
    24  C    0.141728
    25  C   -0.024702
    26  C   -0.065861
    27  C   -0.062195
    28  C   -0.005808
    29  C    0.354825
    30  O   -0.219526
    40  N   -0.271572
    41  C    0.184457
    42  C    0.603981
    43  O   -0.540767
    44  C    0.012006
    45  C    0.071989
    46  C    0.050428
    47  C    0.232171
    48  N    0.486241
    49  O   -0.102303
 Electronic spatial extent (au):  <R**2>=       20256280.3282
 Charge=              1.0000 electrons
 Dipole moment (field-independent basis, Debye):
    X=            -18.9376    Y=           -425.4757    Z=            609.7587  Tot=            743.7700
 Quadrupole moment (field-independent basis, Debye-Ang):
   XX=            -85.5766   YY=          37545.4041   ZZ=          77269.1571
   XY=           1691.9508   XZ=          -2405.4946   YZ=         -54026.3189
 Traceless Quadrupole moment (field-independent basis, Debye-Ang):
   XX=         -38328.5715   YY=           -697.5907   ZZ=          39026.1622
   XY=           1691.9508   XZ=          -2405.4946   YZ=         -54026.3189
 Octapole moment (field-independent basis, Debye-Ang**2):
  XXX=            816.6239  YYY=       -3300751.9641  ZZZ=        9773123.9871  XYY=        -150755.8516
  XXY=           7377.3497  XXZ=         -11092.2621  XZZ=        -305263.0553  YZZ=       -6848044.9918
  YYZ=        4768361.4842  XYZ=         215063.6279
 Hexadecapole moment (field-independent basis, Debye-Ang**3):
 XXXX=         -11330.9975 YYYY=      289103245.2918 ZZZZ=     1233642282.5221 XXXY=         -71961.7068
 XXXZ=         103060.7359 YYYX=       13397291.9047 YYYZ=     -419263248.4967 ZZZX=      -38702156.2297
 ZZZY=     -866398217.8728 XXYY=        -638256.5381 XXZZ=       -1440153.2607 YYZZ=      604528512.2634
 XXYZ=         955879.5207 YYXZ=      -19175264.4199 ZZXY=       27311404.9682
 N-N= 3.425051999498D+03 E-N=-1.038396592912D+04  KE= 1.512261636884D+03
 Unable to Open any file for archive entry.
 1\1\GINC-LAC-315\SP\RB3LYP\6-31G(d)\C20H31N4O7(1+)\KENGMITH\24-May-202
 2\0\\# B3LYP/6-31G* empiricaldispersion=gd3 guess=read geom=check nosy
 mm integral(ultrafinegrid)\\Candidate Structure: Conf:123 Charge calc 
 in gas phase\\1,1\N,0,-5.5736741662,-89.1478552323,129.865727197\C,0,-
 4.6494306701,-89.7991382538,128.907140557\C,0,-3.2829506361,-89.092927
 0593,128.8630643646\O,0,-2.6293020774,-89.0914592706,127.8081300914\C,
 0,-4.4699649472,-91.3370257457,129.0780192587\C,0,-4.6368313089,-92.11
 50086998,127.7522573052\C,0,-3.6705480994,-91.6447047982,126.690929897
 8\O,0,-3.9840415386,-90.9770162281,125.7166162374\O,0,-2.4171385008,-9
 2.0271687454,126.949952582\H,0,-1.8273432423,-91.6250123475,126.285159
 9012\H,0,-6.5270980174,-89.4405573285,129.6516779225\H,0,-5.0760476235
 ,-89.5989671281,127.9238283178\H,0,-5.2305909914,-91.7058688606,129.77
 54391823\H,0,-3.4955055983,-91.5693509386,129.5202944736\H,0,-5.647161
 4681,-91.9824389718,127.3567098766\H,0,-4.4684352911,-93.1807735581,12
 7.9373977643\H,0,-5.4057343733,-89.4675923663,130.8212775494\H,0,-5.54
 44529513,-87.3436775342,129.4937235177\N,0,-2.8447025063,-88.508395269
 1,130.0025091349\C,0,-1.662592745,-87.6195445196,130.0674991277\C,0,-2
 .2070425848,-86.2343066914,129.6348097936\O,0,-2.5564618601,-85.377260
 3937,130.4219543491\C,0,-1.0478358856,-87.6028967097,131.4701408678\C,
 0,0.2883753585,-86.8903322922,131.4757441057\C,0,0.3807635297,-85.5172
 705824,131.7301968375\C,0,1.4662897709,-87.5929898525,131.1809815737\C
 ,0,1.6117683813,-84.8636329822,131.6979120692\C,0,2.7006015839,-86.954
 2497778,131.1428408664\C,0,2.7772887246,-85.5803942154,131.4038351834\
 O,0,4.012770807,-85.0065681229,131.3549463297\H,0,-3.5106772177,-88.37
 58766774,130.7535160386\H,0,-0.9395783382,-88.0009270554,129.342480007
 7\H,0,-1.7495950526,-87.1104666865,132.1527417699\H,0,-0.9287444122,-8
 8.6414417507,131.7999917757\H,0,-0.5209612136,-84.9522165932,131.94484
 9494\H,0,1.4196609613,-88.6635245894,130.9897064911\H,0,1.6666968553,-
 83.7966047788,131.9042977364\H,0,3.6143495549,-87.4978898179,130.92606
 06856\H,0,3.9441659869,-84.0663497487,131.5833599806\N,0,-2.4065851728
 ,-86.1569986591,128.2667610531\C,0,-3.5941720489,-85.5014487361,127.69
 56635287\C,0,-4.7310564784,-86.4881990359,127.9997826605\O,0,-5.106841
 0981,-87.3533554237,127.2037125129\C,0,-3.3240474317,-85.2667807958,12
 6.1949883609\C,0,-4.5343129717,-85.1590438667,125.2284777431\C,0,-4.39
 41328424,-86.0399336992,123.9657232389\C,0,-4.7179048769,-87.534059229
 1,124.1040557404\N,0,-3.8000650526,-88.2716513891,125.0464934581\O,0,-
 5.1464027972,-86.4479084599,129.2485834687\H,0,-2.1529194503,-87.01127
 48202,127.776448051\H,0,-3.7687068396,-84.574786204,128.2455577987\H,0
 ,-2.7015817902,-84.3700044505,126.1229095275\H,0,-2.6623335381,-86.073
 9545128,125.8575501964\H,0,-4.6338267344,-84.1211664275,124.8963368306
 \H,0,-5.4733338561,-85.405762226,125.7318328912\H,0,-5.0840888084,-85.
 6707348369,123.1976704883\H,0,-3.3873846002,-85.9227225725,123.5394073
 153\H,0,-5.7224999408,-87.6847250266,124.5062614886\H,0,-4.6507029582,
 -88.0313725047,123.1332713861\H,0,-4.0143798086,-87.9491526756,126.015
 998595\H,0,-2.8125418192,-88.1036047296,124.8422546853\H,0,-3.94098576
 18,-89.300008975,125.0664059862\\Version=ES64L-G16RevC.01\HF=-1526.312
 977\RMSD=7.192e-09\Dipole=-2.7350331,-1.6693852,-3.0223422\Quadrupole=
 -28496.3534875,-518.6416139,29014.9951014,1257.9239183,-1788.4263133,-
 40167.2439109\PG=C01 [X(C20H31N4O7)]\\@
 The archive entry for this job was punched.


 TRUTH, IN SCIENCE, CAN BE DEFINED AS THE WORKING HYPOTHESIS 
 BEST FITTED TO OPEN THE WAY TO THE NEXT BETTER ONE.

                              -- KONRAD LORENZ
 Job cpu time:       0 days  0 hours  2 minutes 20.8 seconds.
 Elapsed time:       0 days  0 hours  0 minutes 35.7 seconds.
 File lengths (MBytes):  RWF=    264 Int=      0 D2E=      0 Chk=     40 Scr=     16
 Normal termination of Gaussian 16 at Tue May 24 19:13:30 2022.
