 Entering Gaussian System, Link 0=/opt/software/Gaussian/g16-AVX2-C.01/g16/g16
 Input=charge-conf-978.com
 Output=charge-conf-978.log
 Initial command:
 /opt/software/Gaussian/g16-AVX2-C.01/g16/l1.exe "/mnt/gs18/scratch/users/kengmith/Gau-5338.inp" -scrdir="/mnt/gs18/scratch/users/kengmith/"
 Entering Link 1 = /opt/software/Gaussian/g16-AVX2-C.01/g16/l1.exe PID=      5358.
  
 Copyright (c) 1988-2019, Gaussian, Inc.  All Rights Reserved.
  
 This is part of the Gaussian(R) 16 program.  It is based on
 the Gaussian(R) 09 system (copyright 2009, Gaussian, Inc.),
 the Gaussian(R) 03 system (copyright 2003, Gaussian, Inc.),
 the Gaussian(R) 98 system (copyright 1998, Gaussian, Inc.),
 the Gaussian(R) 94 system (copyright 1995, Gaussian, Inc.),
 the Gaussian 92(TM) system (copyright 1992, Gaussian, Inc.),
 the Gaussian 90(TM) system (copyright 1990, Gaussian, Inc.),
 the Gaussian 88(TM) system (copyright 1988, Gaussian, Inc.),
 the Gaussian 86(TM) system (copyright 1986, Carnegie Mellon
 University), and the Gaussian 82(TM) system (copyright 1983,
 Carnegie Mellon University). Gaussian is a federally registered
 trademark of Gaussian, Inc.
  
 This software contains proprietary and confidential information,
 including trade secrets, belonging to Gaussian, Inc.
  
 This software is provided under written license and may be
 used, copied, transmitted, or stored only in accord with that
 written license.
  
 The following legend is applicable only to US Government
 contracts under FAR:
  
                    RESTRICTED RIGHTS LEGEND
  
 Use, reproduction and disclosure by the US Government is
 subject to restrictions as set forth in subparagraphs (a)
 and (c) of the Commercial Computer Software - Restricted
 Rights clause in FAR 52.227-19.
  
 Gaussian, Inc.
 340 Quinnipiac St., Bldg. 40, Wallingford CT 06492
  
  
 ---------------------------------------------------------------
 Warning -- This program may not be used in any manner that
 competes with the business of Gaussian, Inc. or will provide
 assistance to any competitor of Gaussian, Inc.  The licensee
 of this program is prohibited from giving any competitor of
 Gaussian, Inc. access to this program.  By using this program,
 the user acknowledges that Gaussian, Inc. is engaged in the
 business of creating and licensing software in the field of
 computational chemistry and represents and warrants to the
 licensee that it is not a competitor of Gaussian, Inc. and that
 it will not use this program in any manner prohibited above.
 ---------------------------------------------------------------
  

 Cite this work as:
 Gaussian 16, Revision C.01,
 M. J. Frisch, G. W. Trucks, H. B. Schlegel, G. E. Scuseria, 
 M. A. Robb, J. R. Cheeseman, G. Scalmani, V. Barone, 
 G. A. Petersson, H. Nakatsuji, X. Li, M. Caricato, A. V. Marenich, 
 J. Bloino, B. G. Janesko, R. Gomperts, B. Mennucci, H. P. Hratchian, 
 J. V. Ortiz, A. F. Izmaylov, J. L. Sonnenberg, D. Williams-Young, 
 F. Ding, F. Lipparini, F. Egidi, J. Goings, B. Peng, A. Petrone, 
 T. Henderson, D. Ranasinghe, V. G. Zakrzewski, J. Gao, N. Rega, 
 G. Zheng, W. Liang, M. Hada, M. Ehara, K. Toyota, R. Fukuda, 
 J. Hasegawa, M. Ishida, T. Nakajima, Y. Honda, O. Kitao, H. Nakai, 
 T. Vreven, K. Throssell, J. A. Montgomery, Jr., J. E. Peralta, 
 F. Ogliaro, M. J. Bearpark, J. J. Heyd, E. N. Brothers, K. N. Kudin, 
 V. N. Staroverov, T. A. Keith, R. Kobayashi, J. Normand, 
 K. Raghavachari, A. P. Rendell, J. C. Burant, S. S. Iyengar, 
 J. Tomasi, M. Cossi, J. M. Millam, M. Klene, C. Adamo, R. Cammi, 
 J. W. Ochterski, R. L. Martin, K. Morokuma, O. Farkas, 
 J. B. Foresman, and D. J. Fox, Gaussian, Inc., Wallingford CT, 2019.
 
 ******************************************
 Gaussian 16:  ES64L-G16RevC.01  3-Jul-2019
                24-May-2022 
 ******************************************
 %mem=8gb
 %nproc=4
 Will use up to    4 processors via shared memory.
 %chk=conf-978.chk
 ----------------------------------------------------------------------
 # B3LYP/6-31G* empiricaldispersion=gd3 guess=read geom=check nosymm in
 tegral(ultrafinegrid)
 ----------------------------------------------------------------------
 1/29=2,38=1,172=1/1;
 2/12=2,15=1,40=1/2;
 3/5=1,6=6,7=1,11=2,14=-4,25=1,30=1,74=-5,75=-5,116=-2,124=31/1,2,3;
 4/5=1/1;
 5/5=2,38=6/2;
 6/7=2,8=2,9=2,10=2,28=1/1;
 99/5=1,9=1/99;
 ------------------------------------------------------
 Candidate Structure: Conf:978 Charge calc in gas phase
 ------------------------------------------------------
 Structure from the checkpoint file:  "conf-978.chk"
 Charge =  1 Multiplicity = 1
 Redundant internal coordinates found in file.  (old form).
 N,0,0.4207006787,-88.7413440076,128.0783192017
 C,0,0.486264561,-89.7618208275,129.1929763172
 C,0,-0.8244853277,-89.5738447951,129.9908388872
 O,0,-0.8286703692,-88.8512907613,130.9712344588
 C,0,0.7734371504,-91.1835576922,128.6842614067
 C,0,1.8829336277,-91.3246884169,127.6114625071
 C,0,3.130931603,-90.5270211626,127.9233967023
 O,0,3.163941794,-89.3041747864,127.9164600581
 O,0,4.1879371232,-91.2847259268,128.2184046127
 H,0,4.9475739206,-90.6953762029,128.3974306435
 H,0,1.3540780899,-88.6847700515,127.6377702899
 H,0,1.2927492387,-89.4221836281,129.8432666386
 H,0,-0.1279996747,-91.6411594383,128.2631444123
 H,0,1.0339739916,-91.7806079297,129.5647021514
 H,0,1.5144023983,-90.95949751,126.6457707079
 H,0,2.1290123513,-92.3814758073,127.4900597145
 H,0,-0.3377155196,-88.9507415403,127.4061783814
 H,0,0.1331798809,-87.7803867526,128.438831857
 N,0,-1.957843638,-90.1415405759,129.444103465
 C,0,-3.1483899679,-89.2843618492,129.4101853073
 C,0,-2.8970923191,-88.2823603157,128.256723861
 O,0,-2.2201161536,-88.6160770539,127.2693211942
 C,0,-4.4698720523,-90.0569092261,129.244550918
 C,0,-5.6191286761,-89.0699328534,129.2281490419
 C,0,-5.9431699244,-88.3455840997,130.38747353
 C,0,-6.2827568428,-88.7432574951,128.0421017199
 C,0,-6.8801851948,-87.3167507259,130.361961074
 C,0,-7.2336673995,-87.7234603842,128.0008489889
 C,0,-7.5299675313,-86.9987767809,129.1605073417
 O,0,-8.429892824,-85.9771641697,129.1948949902
 H,0,-1.8175595291,-90.5803315289,128.539905399
 H,0,-3.1651938432,-88.7445028827,130.3582377988
 H,0,-4.4442517443,-90.6350081043,128.3130494532
 H,0,-4.5530896313,-90.7693185963,130.0732415585
 H,0,-5.4553595041,-88.5914602941,131.3288872634
 H,0,-6.0453668793,-89.2807141967,127.1273901732
 H,0,-7.1411957979,-86.7652203127,131.259500757
 H,0,-7.7399140869,-87.4880364416,127.0671209948
 H,0,-8.8672087877,-85.8945789295,128.3327760577
 N,0,-3.3743286029,-87.0423213994,128.4212181148
 C,0,-2.8472061852,-85.9184326371,127.6644509335
 C,0,-1.3166038408,-85.719794172,127.8801890286
 O,0,-0.7674279332,-84.8200395774,127.2481763021
 C,0,-3.6072693623,-84.6196876477,128.0133871159
 C,0,-3.7793768689,-84.2827789882,129.5157917924
 C,0,-2.5402875471,-84.4276333886,130.4255030826
 C,0,-1.3494886462,-83.5345022341,130.0226203053
 N,0,-0.0460725835,-84.2963814005,130.1600256309
 O,0,-0.737197572,-86.4277182509,128.8173106888
 H,0,-3.9430701049,-86.8618681703,129.2374337592
 H,0,-2.9768571872,-86.1149851135,126.5961726964
 H,0,-3.0833261358,-83.8148523718,127.4905881497
 H,0,-4.6102540803,-84.674962322,127.5747450665
 H,0,-4.5703020245,-84.9122463869,129.9463443879
 H,0,-4.1683270908,-83.2589596598,129.5813486159
 H,0,-2.8340953151,-84.1984813508,131.4558960487
 H,0,-2.2183148421,-85.4741725803,130.4184856054
 H,0,-1.3903349258,-83.2443891798,128.9735443654
 H,0,-1.275470643,-82.6330791502,130.6356751204
 H,0,-0.1373486764,-85.2437208326,129.6173988736
 H,0,0.1706557696,-84.4995108041,131.1394328241
 H,0,0.7337783979,-83.7718140079,129.755916396
 Recover connectivity data from disk.
                           ----------------------------
                           !    Current Parameters    !
                           ! (Angstroms and Degrees)  !
 --------------------------                            --------------------------
 ! Name  Definition              Value                                          !
 --------------------------------------------------------------------------------
 ! R1    R(1,2)                  1.5127                                         !
 ! R2    R(1,11)                 1.0337                                         !
 ! R3    R(1,17)                 1.0348                                         !
 ! R4    R(1,18)                 1.0659                                         !
 ! R5    R(2,3)                  1.546                                          !
 ! R6    R(2,5)                  1.5371                                         !
 ! R7    R(2,12)                 1.0903                                         !
 ! R8    R(3,4)                  1.2179                                         !
 ! R9    R(3,19)                 1.3805                                         !
 ! R10   R(5,6)                  1.5498                                         !
 ! R11   R(5,13)                 1.0951                                         !
 ! R12   R(5,14)                 1.0952                                         !
 ! R13   R(6,7)                  1.5136                                         !
 ! R14   R(6,15)                 1.0962                                         !
 ! R15   R(6,16)                 1.0918                                         !
 ! R16   R(7,8)                  1.2233                                         !
 ! R17   R(7,9)                  1.3336                                         !
 ! R18   R(9,10)                 0.978                                          !
 ! R19   R(19,20)                1.4674                                         !
 ! R20   R(19,31)                1.0148                                         !
 ! R21   R(20,21)                1.5484                                         !
 ! R22   R(20,23)                1.5397                                         !
 ! R23   R(20,32)                1.0911                                         !
 ! R24   R(21,22)                1.2428                                         !
 ! R25   R(21,40)                1.3388                                         !
 ! R26   R(23,24)                1.515                                          !
 ! R27   R(23,33)                1.0966                                         !
 ! R28   R(23,34)                1.096                                          !
 ! R29   R(24,25)                1.4049                                         !
 ! R30   R(24,26)                1.3978                                         !
 ! R31   R(25,27)                1.3918                                         !
 ! R32   R(25,35)                1.0884                                         !
 ! R33   R(26,28)                1.395                                          !
 ! R34   R(26,36)                1.0872                                         !
 ! R35   R(27,29)                1.4024                                         !
 ! R36   R(27,37)                1.0853                                         !
 ! R37   R(28,29)                1.3992                                         !
 ! R38   R(28,38)                1.0879                                         !
 ! R39   R(29,30)                1.3619                                         !
 ! R40   R(30,39)                0.9702                                         !
 ! R41   R(40,41)                1.4539                                         !
 ! R42   R(40,50)                1.0111                                         !
 ! R43   R(41,42)                1.5584                                         !
 ! R44   R(41,44)                1.5447                                         !
 ! R45   R(41,51)                1.0939                                         !
 ! R46   R(42,43)                1.2291                                         !
 ! R47   R(42,49)                1.3096                                         !
 ! R48   R(44,45)                1.5493                                         !
 ! R49   R(44,52)                1.0934                                         !
 ! R50   R(44,53)                1.0961                                         !
 ! R51   R(45,46)                1.544                                          !
 ! R52   R(45,54)                1.0987                                         !
 ! R53   R(45,55)                1.0972                                         !
 ! R54   R(46,47)                1.5421                                         !
 ! R55   R(46,56)                1.0957                                         !
 ! R56   R(46,57)                1.095                                          !
 ! R57   R(47,48)                1.516                                          !
 ! R58   R(47,58)                1.0892                                         !
 ! R59   R(47,59)                1.0926                                         !
 ! R60   R(48,60)                1.0955                                         !
 ! R61   R(48,61)                1.0235                                         !
 ! R62   R(48,62)                1.0231                                         !
 ! A1    A(2,1,11)             108.1704                                         !
 ! A2    A(2,1,17)             111.9555                                         !
 ! A3    A(2,1,18)             111.7573                                         !
 ! A4    A(11,1,17)            113.3309                                         !
 ! A5    A(11,1,18)            109.7788                                         !
 ! A6    A(17,1,18)            101.796                                          !
 ! A7    A(1,2,3)              105.1606                                         !
 ! A8    A(1,2,5)              112.8437                                         !
 ! A9    A(1,2,12)             105.1546                                         !
 ! A10   A(3,2,5)              116.2113                                         !
 ! A11   A(3,2,12)             106.348                                          !
 ! A12   A(5,2,12)             110.3253                                         !
 ! A13   A(2,3,4)              119.3737                                         !
 ! A14   A(2,3,19)             116.2113                                         !
 ! A15   A(4,3,19)             124.0538                                         !
 ! A16   A(2,5,6)              116.557                                          !
 ! A17   A(2,5,13)             111.0987                                         !
 ! A18   A(2,5,14)             106.4166                                         !
 ! A19   A(6,5,13)             106.5616                                         !
 ! A20   A(6,5,14)             109.6655                                         !
 ! A21   A(13,5,14)            106.0899                                         !
 ! A22   A(5,6,7)              113.5547                                         !
 ! A23   A(5,6,15)             109.8029                                         !
 ! A24   A(5,6,16)             109.0544                                         !
 ! A25   A(7,6,15)             106.4493                                         !
 ! A26   A(7,6,16)             110.3138                                         !
 ! A27   A(15,6,16)            107.473                                          !
 ! A28   A(6,7,8)              123.221                                          !
 ! A29   A(6,7,9)              113.5582                                         !
 ! A30   A(8,7,9)              123.2182                                         !
 ! A31   A(7,9,10)             108.2858                                         !
 ! A32   A(3,19,20)            115.787                                          !
 ! A33   A(3,19,31)            114.6587                                         !
 ! A34   A(20,19,31)           110.1295                                         !
 ! A35   A(19,20,21)           105.2808                                         !
 ! A36   A(19,20,23)           113.9373                                         !
 ! A37   A(19,20,32)           106.3457                                         !
 ! A38   A(21,20,23)           112.5724                                         !
 ! A39   A(21,20,32)           109.2431                                         !
 ! A40   A(23,20,32)           109.1787                                         !
 ! A41   A(20,21,22)           120.429                                          !
 ! A42   A(20,21,40)           116.7423                                         !
 ! A43   A(22,21,40)           122.7157                                         !
 ! A44   A(20,23,24)           108.9881                                         !
 ! A45   A(20,23,33)           109.6238                                         !
 ! A46   A(20,23,34)           108.0582                                         !
 ! A47   A(24,23,33)           110.6076                                         !
 ! A48   A(24,23,34)           111.9661                                         !
 ! A49   A(33,23,34)           107.5404                                         !
 ! A50   A(23,24,25)           120.1279                                         !
 ! A51   A(23,24,26)           121.4394                                         !
 ! A52   A(25,24,26)           118.047                                          !
 ! A53   A(24,25,27)           121.4183                                         !
 ! A54   A(24,25,35)           119.5973                                         !
 ! A55   A(27,25,35)           118.9843                                         !
 ! A56   A(24,26,28)           121.3044                                         !
 ! A57   A(24,26,36)           119.6509                                         !
 ! A58   A(28,26,36)           119.0373                                         !
 ! A59   A(25,27,29)           119.6849                                         !
 ! A60   A(25,27,37)           121.4932                                         !
 ! A61   A(29,27,37)           118.8051                                         !
 ! A62   A(26,28,29)           119.8993                                         !
 ! A63   A(26,28,38)           120.0523                                         !
 ! A64   A(29,28,38)           120.0474                                         !
 ! A65   A(27,29,28)           119.6356                                         !
 ! A66   A(27,29,30)           117.0399                                         !
 ! A67   A(28,29,30)           123.3244                                         !
 ! A68   A(29,30,39)           109.832                                          !
 ! A69   A(21,40,41)           121.5202                                         !
 ! A70   A(21,40,50)           117.7106                                         !
 ! A71   A(41,40,50)           119.0908                                         !
 ! A72   A(40,41,42)           112.4928                                         !
 ! A73   A(40,41,44)           110.73                                           !
 ! A74   A(40,41,51)           109.0538                                         !
 ! A75   A(42,41,44)           110.1704                                         !
 ! A76   A(42,41,51)           105.9317                                         !
 ! A77   A(44,41,51)           108.2608                                         !
 ! A78   A(41,42,43)           117.4495                                         !
 ! A79   A(41,42,49)           117.6897                                         !
 ! A80   A(43,42,49)           124.4722                                         !
 ! A81   A(41,44,45)           117.164                                          !
 ! A82   A(41,44,52)           105.9666                                         !
 ! A83   A(41,44,53)           108.5083                                         !
 ! A84   A(45,44,52)           110.905                                          !
 ! A85   A(45,44,53)           107.3006                                         !
 ! A86   A(52,44,53)           106.5138                                         !
 ! A87   A(44,45,46)           117.5038                                         !
 ! A88   A(44,45,54)           109.5963                                         !
 ! A89   A(44,45,55)           107.4721                                         !
 ! A90   A(46,45,54)           107.042                                          !
 ! A91   A(46,45,55)           109.6844                                         !
 ! A92   A(54,45,55)           104.833                                          !
 ! A93   A(45,46,47)           114.2955                                         !
 ! A94   A(45,46,56)           108.6185                                         !
 ! A95   A(45,46,57)           108.7762                                         !
 ! A96   A(47,46,56)           109.3675                                         !
 ! A97   A(47,46,57)           108.9546                                         !
 ! A98   A(56,46,57)           106.5447                                         !
 ! A99   A(46,47,48)           110.4368                                         !
 ! A100  A(46,47,58)           112.1441                                         !
 ! A101  A(46,47,59)           112.553                                          !
 ! A102  A(48,47,58)           104.6786                                         !
 ! A103  A(48,47,59)           107.7889                                         !
 ! A104  A(58,47,59)           108.8565                                         !
 ! A105  A(47,48,60)           108.5449                                         !
 ! A106  A(47,48,61)           111.6261                                         !
 ! A107  A(47,48,62)           111.2169                                         !
 ! A108  A(60,48,61)           108.663                                          !
 ! A109  A(60,48,62)           108.1342                                         !
 ! A110  A(61,48,62)           108.5629                                         !
 ! D1    D(11,1,2,3)           168.095                                          !
 ! D2    D(11,1,2,5)           -64.265                                          !
 ! D3    D(11,1,2,12)           56.0389                                         !
 ! D4    D(17,1,2,3)           -66.3326                                         !
 ! D5    D(17,1,2,5)            61.3075                                         !
 ! D6    D(17,1,2,12)         -178.3886                                         !
 ! D7    D(18,1,2,3)            47.1337                                         !
 ! D8    D(18,1,2,5)           174.7738                                         !
 ! D9    D(18,1,2,12)          -64.9223                                         !
 ! D10   D(1,2,3,4)            -94.3991                                         !
 ! D11   D(1,2,3,19)            78.981                                          !
 ! D12   D(5,2,3,4)            140.0299                                         !
 ! D13   D(5,2,3,19)           -46.59                                           !
 ! D14   D(12,2,3,4)            16.8081                                         !
 ! D15   D(12,2,3,19)         -169.8117                                         !
 ! D16   D(1,2,5,6)             44.1775                                         !
 ! D17   D(1,2,5,13)           -78.1271                                         !
 ! D18   D(1,2,5,14)           166.8256                                         !
 ! D19   D(3,2,5,6)            165.7582                                         !
 ! D20   D(3,2,5,13)            43.4535                                         !
 ! D21   D(3,2,5,14)           -71.5937                                         !
 ! D22   D(12,2,5,6)           -73.116                                          !
 ! D23   D(12,2,5,13)          164.5793                                         !
 ! D24   D(12,2,5,14)           49.5321                                         !
 ! D25   D(2,3,19,20)         -133.3795                                         !
 ! D26   D(2,3,19,31)           -3.4121                                         !
 ! D27   D(4,3,19,20)           39.656                                          !
 ! D28   D(4,3,19,31)          169.6234                                         !
 ! D29   D(2,5,6,7)             44.9528                                         !
 ! D30   D(2,5,6,15)           -74.079                                          !
 ! D31   D(2,5,6,16)           168.4051                                         !
 ! D32   D(13,5,6,7)           169.5982                                         !
 ! D33   D(13,5,6,15)           50.5664                                         !
 ! D34   D(13,5,6,16)          -66.9496                                         !
 ! D35   D(14,5,6,7)           -75.9878                                         !
 ! D36   D(14,5,6,15)          164.9803                                         !
 ! D37   D(14,5,6,16)           47.4644                                         !
 ! D38   D(5,6,7,8)            -68.0437                                         !
 ! D39   D(5,6,7,9)            111.3801                                         !
 ! D40   D(15,6,7,8)            52.8913                                         !
 ! D41   D(15,6,7,9)          -127.685                                          !
 ! D42   D(16,6,7,8)           169.195                                          !
 ! D43   D(16,6,7,9)           -11.3812                                         !
 ! D44   D(6,7,9,10)           179.4863                                         !
 ! D45   D(8,7,9,10)            -1.0899                                         !
 ! D46   D(3,19,20,21)          75.3976                                         !
 ! D47   D(3,19,20,23)        -160.7781                                         !
 ! D48   D(3,19,20,32)         -40.4625                                         !
 ! D49   D(31,19,20,21)        -56.7145                                         !
 ! D50   D(31,19,20,23)         67.1098                                         !
 ! D51   D(31,19,20,32)       -172.5746                                         !
 ! D52   D(19,20,21,22)         30.8754                                         !
 ! D53   D(19,20,21,40)       -145.3642                                         !
 ! D54   D(23,20,21,22)        -93.8101                                         !
 ! D55   D(23,20,21,40)         89.9503                                         !
 ! D56   D(32,20,21,22)        144.7279                                         !
 ! D57   D(32,20,21,40)        -31.5118                                         !
 ! D58   D(19,20,23,24)        179.8212                                         !
 ! D59   D(19,20,23,33)        -58.9901                                         !
 ! D60   D(19,20,23,34)         57.9328                                         !
 ! D61   D(21,20,23,24)        -60.3898                                         !
 ! D62   D(21,20,23,33)         60.799                                          !
 ! D63   D(21,20,23,34)        177.7218                                         !
 ! D64   D(32,20,23,24)         61.1089                                         !
 ! D65   D(32,20,23,33)       -177.7024                                         !
 ! D66   D(32,20,23,34)        -60.7795                                         !
 ! D67   D(20,21,40,41)        159.1848                                         !
 ! D68   D(20,21,40,50)         -5.9125                                         !
 ! D69   D(22,21,40,41)        -16.9614                                         !
 ! D70   D(22,21,40,50)        177.9414                                         !
 ! D71   D(20,23,24,25)        -67.5114                                         !
 ! D72   D(20,23,24,26)        105.2196                                         !
 ! D73   D(33,23,24,25)        171.9023                                         !
 ! D74   D(33,23,24,26)        -15.3667                                         !
 ! D75   D(34,23,24,25)         51.9784                                         !
 ! D76   D(34,23,24,26)       -135.2907                                         !
 ! D77   D(23,24,25,27)        171.9541                                         !
 ! D78   D(23,24,25,35)         -8.1688                                         !
 ! D79   D(26,24,25,27)         -1.0201                                         !
 ! D80   D(26,24,25,35)        178.8571                                         !
 ! D81   D(23,24,26,28)       -172.4633                                         !
 ! D82   D(23,24,26,36)          6.5397                                         !
 ! D83   D(25,24,26,28)          0.4139                                         !
 ! D84   D(25,24,26,36)        179.4169                                         !
 ! D85   D(24,25,27,29)          0.6786                                         !
 ! D86   D(24,25,27,37)        179.1684                                         !
 ! D87   D(35,25,27,29)       -179.1992                                         !
 ! D88   D(35,25,27,37)         -0.7094                                         !
 ! D89   D(24,26,28,29)          0.5247                                         !
 ! D90   D(24,26,28,38)       -179.8334                                         !
 ! D91   D(36,26,28,29)       -178.4843                                         !
 ! D92   D(36,26,28,38)          1.1576                                         !
 ! D93   D(25,27,29,28)          0.2843                                         !
 ! D94   D(25,27,29,30)       -179.5727                                         !
 ! D95   D(37,27,29,28)       -178.2461                                         !
 ! D96   D(37,27,29,30)          1.8969                                         !
 ! D97   D(26,28,29,27)         -0.8765                                         !
 ! D98   D(26,28,29,30)        178.9711                                         !
 ! D99   D(38,28,29,27)        179.4815                                         !
 ! D100  D(38,28,29,30)         -0.6709                                         !
 ! D101  D(27,29,30,39)       -175.389                                          !
 ! D102  D(28,29,30,39)          4.7597                                         !
 ! D103  D(21,40,41,42)        -58.2003                                         !
 ! D104  D(21,40,41,44)        178.0374                                         !
 ! D105  D(21,40,41,51)         59.014                                          !
 ! D106  D(50,40,41,42)        106.6969                                         !
 ! D107  D(50,40,41,44)        -17.0653                                         !
 ! D108  D(50,40,41,51)       -136.0887                                         !
 ! D109  D(40,41,42,43)        177.6851                                         !
 ! D110  D(40,41,42,49)         -9.1459                                         !
 ! D111  D(44,41,42,43)        -58.2423                                         !
 ! D112  D(44,41,42,49)        114.9267                                         !
 ! D113  D(51,41,42,43)         58.6303                                         !
 ! D114  D(51,41,42,49)       -128.2006                                         !
 ! D115  D(40,41,44,45)         49.669                                          !
 ! D116  D(40,41,44,52)        173.9993                                         !
 ! D117  D(40,41,44,53)        -71.9493                                         !
 ! D118  D(42,41,44,45)        -75.4168                                         !
 ! D119  D(42,41,44,52)         48.9135                                         !
 ! D120  D(42,41,44,53)        162.9649                                         !
 ! D121  D(51,41,44,45)        169.1702                                         !
 ! D122  D(51,41,44,52)        -66.4995                                         !
 ! D123  D(51,41,44,53)         47.5519                                         !
 ! D124  D(41,44,45,46)         45.6658                                         !
 ! D125  D(41,44,45,54)        -76.7519                                         !
 ! D126  D(41,44,45,55)        169.8607                                         !
 ! D127  D(52,44,45,46)        -76.1347                                         !
 ! D128  D(52,44,45,54)        161.4475                                         !
 ! D129  D(52,44,45,55)         48.0602                                         !
 ! D130  D(53,44,45,46)        167.9102                                         !
 ! D131  D(53,44,45,54)         45.4925                                         !
 ! D132  D(53,44,45,55)        -67.8949                                         !
 ! D133  D(44,45,46,47)         60.0833                                         !
 ! D134  D(44,45,46,56)       -177.5031                                         !
 ! D135  D(44,45,46,57)        -61.9141                                         !
 ! D136  D(54,45,46,47)       -176.1999                                         !
 ! D137  D(54,45,46,56)        -53.7863                                         !
 ! D138  D(54,45,46,57)         61.8027                                         !
 ! D139  D(55,45,46,47)        -62.9939                                         !
 ! D140  D(55,45,46,56)         59.4197                                         !
 ! D141  D(55,45,46,57)        175.0087                                         !
 ! D142  D(45,46,47,48)       -139.2365                                         !
 ! D143  D(45,46,47,58)        -22.9031                                         !
 ! D144  D(45,46,47,59)        100.2474                                         !
 ! D145  D(56,46,47,48)         98.7592                                         !
 ! D146  D(56,46,47,58)       -144.9074                                         !
 ! D147  D(56,46,47,59)        -21.757                                          !
 ! D148  D(57,46,47,48)        -17.3368                                         !
 ! D149  D(57,46,47,58)         98.9966                                         !
 ! D150  D(57,46,47,59)       -137.853                                          !
 ! D151  D(46,47,48,60)         52.0118                                         !
 ! D152  D(46,47,48,61)        -67.7294                                         !
 ! D153  D(46,47,48,62)        170.8537                                         !
 ! D154  D(58,47,48,60)        -68.8811                                         !
 ! D155  D(58,47,48,61)        171.3777                                         !
 ! D156  D(58,47,48,62)         49.9608                                         !
 ! D157  D(59,47,48,60)        175.3383                                         !
 ! D158  D(59,47,48,61)         55.5971                                         !
 ! D159  D(59,47,48,62)        -65.8198                                         !
 --------------------------------------------------------------------------------
 Symmetry turned off by external request.
 Stoichiometry    C20H31N4O7(1+)
 Framework group  C1[X(C20H31N4O7)]
 Deg. of freedom   180
 Full point group                 C1      NOp   1
                          Input orientation:                          
 ---------------------------------------------------------------------
 Center     Atomic      Atomic             Coordinates (Angstroms)
 Number     Number       Type             X           Y           Z
 ---------------------------------------------------------------------
      1          7           0        0.420701  -88.741344  128.078319
      2          6           0        0.486265  -89.761821  129.192976
      3          6           0       -0.824485  -89.573845  129.990839
      4          8           0       -0.828670  -88.851291  130.971234
      5          6           0        0.773437  -91.183558  128.684261
      6          6           0        1.882934  -91.324688  127.611463
      7          6           0        3.130932  -90.527021  127.923397
      8          8           0        3.163942  -89.304175  127.916460
      9          8           0        4.187937  -91.284726  128.218405
     10          1           0        4.947574  -90.695376  128.397431
     11          1           0        1.354078  -88.684770  127.637770
     12          1           0        1.292749  -89.422184  129.843267
     13          1           0       -0.128000  -91.641159  128.263144
     14          1           0        1.033974  -91.780608  129.564702
     15          1           0        1.514402  -90.959498  126.645771
     16          1           0        2.129012  -92.381476  127.490060
     17          1           0       -0.337716  -88.950742  127.406178
     18          1           0        0.133180  -87.780387  128.438832
     19          7           0       -1.957844  -90.141541  129.444103
     20          6           0       -3.148390  -89.284362  129.410185
     21          6           0       -2.897092  -88.282360  128.256724
     22          8           0       -2.220116  -88.616077  127.269321
     23          6           0       -4.469872  -90.056909  129.244551
     24          6           0       -5.619129  -89.069933  129.228149
     25          6           0       -5.943170  -88.345584  130.387474
     26          6           0       -6.282757  -88.743257  128.042102
     27          6           0       -6.880185  -87.316751  130.361961
     28          6           0       -7.233667  -87.723460  128.000849
     29          6           0       -7.529968  -86.998777  129.160507
     30          8           0       -8.429893  -85.977164  129.194895
     31          1           0       -1.817560  -90.580332  128.539905
     32          1           0       -3.165194  -88.744503  130.358238
     33          1           0       -4.444252  -90.635008  128.313049
     34          1           0       -4.553090  -90.769319  130.073242
     35          1           0       -5.455360  -88.591460  131.328887
     36          1           0       -6.045367  -89.280714  127.127390
     37          1           0       -7.141196  -86.765220  131.259501
     38          1           0       -7.739914  -87.488036  127.067121
     39          1           0       -8.867209  -85.894579  128.332776
     40          7           0       -3.374329  -87.042321  128.421218
     41          6           0       -2.847206  -85.918433  127.664451
     42          6           0       -1.316604  -85.719794  127.880189
     43          8           0       -0.767428  -84.820040  127.248176
     44          6           0       -3.607269  -84.619688  128.013387
     45          6           0       -3.779377  -84.282779  129.515792
     46          6           0       -2.540288  -84.427633  130.425503
     47          6           0       -1.349489  -83.534502  130.022620
     48          7           0       -0.046073  -84.296381  130.160026
     49          8           0       -0.737198  -86.427718  128.817311
     50          1           0       -3.943070  -86.861868  129.237434
     51          1           0       -2.976857  -86.114985  126.596173
     52          1           0       -3.083326  -83.814852  127.490588
     53          1           0       -4.610254  -84.674962  127.574745
     54          1           0       -4.570302  -84.912246  129.946344
     55          1           0       -4.168327  -83.258960  129.581349
     56          1           0       -2.834095  -84.198481  131.455896
     57          1           0       -2.218315  -85.474173  130.418486
     58          1           0       -1.390335  -83.244389  128.973544
     59          1           0       -1.275471  -82.633079  130.635675
     60          1           0       -0.137349  -85.243721  129.617399
     61          1           0        0.170656  -84.499511  131.139433
     62          1           0        0.733778  -83.771814  129.755916
 ---------------------------------------------------------------------
 Rotational constants (GHZ):           0.2168684           0.0899525           0.0719727
 Standard basis: 6-31G(d) (6D, 7F)
   527 basis functions,   992 primitive gaussians,   527 cartesian basis functions
   117 alpha electrons      117 beta electrons
       nuclear repulsion energy      3426.4583797065 Hartrees.
 NAtoms=   62 NActive=   62 NUniq=   62 SFac= 1.00D+00 NAtFMM=   60 NAOKFM=T Big=T
 Integral buffers will be    131072 words long.
 Raffenetti 2 integral format.
 Two-electron integral symmetry is turned off.
 Nuclear repulsion after empirical dispersion term =     3426.3700402767 Hartrees.
 One-electron integrals computed using PRISM.
 NBasis=   527 RedAO= T EigKep=  4.37D-04  NBF=   527
 NBsUse=   527 1.00D-06 EigRej= -1.00D+00 NBFU=   527
 Initial guess from the checkpoint file:  "conf-978.chk"
 B after Tr=     0.000000    0.000000    0.000000
         Rot=    1.000000    0.000000    0.000000    0.000000 Ang=   0.00 deg.
 Requested convergence on RMS density matrix=1.00D-08 within 128 cycles.
 Requested convergence on MAX density matrix=1.00D-06.
 Requested convergence on             energy=1.00D-06.
 No special actions if energy rises.
 SCF Done:  E(RB3LYP) =  -1526.30776695     A.U. after    3 cycles
            NFock=  3  Conv=0.97D-09     -V/T= 2.0093

 **********************************************************************

            Population analysis using the SCF Density.

 **********************************************************************

 Alpha  occ. eigenvalues --  -19.32012 -19.26796 -19.25910 -19.23892 -19.22647
 Alpha  occ. eigenvalues --  -19.21746 -19.20006 -14.55096 -14.53361 -14.46837
 Alpha  occ. eigenvalues --  -14.46193 -10.44926 -10.40904 -10.39204 -10.38253
 Alpha  occ. eigenvalues --  -10.37422 -10.35723 -10.33701 -10.33515 -10.33501
 Alpha  occ. eigenvalues --  -10.32905 -10.32315 -10.30315 -10.29322 -10.29049
 Alpha  occ. eigenvalues --  -10.28642 -10.27967 -10.27874 -10.27758 -10.27425
 Alpha  occ. eigenvalues --  -10.27209  -1.23163  -1.16068  -1.14682  -1.14138
 Alpha  occ. eigenvalues --   -1.14065  -1.13754  -1.09675  -1.09020  -1.05013
 Alpha  occ. eigenvalues --   -1.03703  -1.02845  -0.94288  -0.93244  -0.91285
 Alpha  occ. eigenvalues --   -0.88844  -0.86157  -0.85773  -0.83390  -0.81890
 Alpha  occ. eigenvalues --   -0.80439  -0.77967  -0.75719  -0.74313  -0.72030
 Alpha  occ. eigenvalues --   -0.70986  -0.70855  -0.70141  -0.69339  -0.68837
 Alpha  occ. eigenvalues --   -0.68298  -0.67393  -0.67169  -0.66080  -0.64163
 Alpha  occ. eigenvalues --   -0.62853  -0.62658  -0.61906  -0.61318  -0.60463
 Alpha  occ. eigenvalues --   -0.60147  -0.59012  -0.58499  -0.57641  -0.57103
 Alpha  occ. eigenvalues --   -0.56523  -0.55930  -0.55675  -0.55259  -0.54713
 Alpha  occ. eigenvalues --   -0.54273  -0.53451  -0.52927  -0.52479  -0.52014
 Alpha  occ. eigenvalues --   -0.51472  -0.51239  -0.50871  -0.50469  -0.50245
 Alpha  occ. eigenvalues --   -0.49730  -0.49380  -0.49019  -0.48760  -0.48559
 Alpha  occ. eigenvalues --   -0.48033  -0.47842  -0.47634  -0.46206  -0.45419
 Alpha  occ. eigenvalues --   -0.44195  -0.44104  -0.43957  -0.43716  -0.42807
 Alpha  occ. eigenvalues --   -0.42123  -0.41238  -0.40564  -0.38606  -0.37873
 Alpha  occ. eigenvalues --   -0.37382  -0.36774  -0.36348  -0.35346  -0.33903
 Alpha  occ. eigenvalues --   -0.32924  -0.30270
 Alpha virt. eigenvalues --   -0.12269  -0.11694  -0.09289  -0.09013  -0.07991
 Alpha virt. eigenvalues --   -0.07652  -0.06771  -0.04584  -0.03036  -0.02868
 Alpha virt. eigenvalues --   -0.01552  -0.00735  -0.00624   0.00192   0.00688
 Alpha virt. eigenvalues --    0.01071   0.01339   0.01789   0.02004   0.02884
 Alpha virt. eigenvalues --    0.03345   0.03626   0.04340   0.04633   0.05011
 Alpha virt. eigenvalues --    0.05154   0.05566   0.06171   0.06950   0.07455
 Alpha virt. eigenvalues --    0.07522   0.07869   0.08414   0.08602   0.09019
 Alpha virt. eigenvalues --    0.09369   0.09645   0.10192   0.10610   0.11127
 Alpha virt. eigenvalues --    0.11235   0.11822   0.12043   0.12852   0.13833
 Alpha virt. eigenvalues --    0.14082   0.14475   0.14873   0.15817   0.16047
 Alpha virt. eigenvalues --    0.17010   0.17398   0.17558   0.19618   0.20372
 Alpha virt. eigenvalues --    0.21508   0.22477   0.23121   0.25355   0.25979
 Alpha virt. eigenvalues --    0.26465   0.26494   0.27531   0.27927   0.29870
 Alpha virt. eigenvalues --    0.31261   0.35565   0.37447   0.37652   0.37927
 Alpha virt. eigenvalues --    0.39007   0.39260   0.39583   0.40222   0.40389
 Alpha virt. eigenvalues --    0.41799   0.42244   0.43755   0.44188   0.44696
 Alpha virt. eigenvalues --    0.45039   0.45186   0.46017   0.46174   0.46618
 Alpha virt. eigenvalues --    0.47164   0.47659   0.48245   0.49136   0.49502
 Alpha virt. eigenvalues --    0.50339   0.50522   0.51085   0.51489   0.51744
 Alpha virt. eigenvalues --    0.52530   0.52963   0.53038   0.54092   0.54234
 Alpha virt. eigenvalues --    0.54549   0.55314   0.55670   0.56153   0.56729
 Alpha virt. eigenvalues --    0.56855   0.57830   0.58170   0.58473   0.58759
 Alpha virt. eigenvalues --    0.59604   0.60033   0.61533   0.61819   0.62580
 Alpha virt. eigenvalues --    0.64220   0.64632   0.65729   0.66622   0.67087
 Alpha virt. eigenvalues --    0.67321   0.67789   0.68254   0.69211   0.69676
 Alpha virt. eigenvalues --    0.70228   0.70508   0.70944   0.71331   0.71574
 Alpha virt. eigenvalues --    0.72740   0.73281   0.73447   0.74052   0.74516
 Alpha virt. eigenvalues --    0.75129   0.75519   0.76130   0.76568   0.77110
 Alpha virt. eigenvalues --    0.77625   0.77966   0.78265   0.78547   0.79017
 Alpha virt. eigenvalues --    0.79665   0.80134   0.80965   0.81033   0.81815
 Alpha virt. eigenvalues --    0.82045   0.82507   0.83268   0.83772   0.84043
 Alpha virt. eigenvalues --    0.84390   0.84667   0.85604   0.85805   0.86434
 Alpha virt. eigenvalues --    0.86907   0.87366   0.87731   0.88105   0.88820
 Alpha virt. eigenvalues --    0.89247   0.89992   0.90803   0.91261   0.92955
 Alpha virt. eigenvalues --    0.93393   0.94241   0.94309   0.95030   0.96202
 Alpha virt. eigenvalues --    0.96741   0.97550   0.97728   0.99046   1.01158
 Alpha virt. eigenvalues --    1.01905   1.02843   1.03185   1.04357   1.04786
 Alpha virt. eigenvalues --    1.05921   1.06614   1.07010   1.07705   1.08812
 Alpha virt. eigenvalues --    1.11193   1.11963   1.12221   1.13740   1.14538
 Alpha virt. eigenvalues --    1.15705   1.16730   1.17116   1.17855   1.20274
 Alpha virt. eigenvalues --    1.21202   1.22306   1.24786   1.25113   1.26184
 Alpha virt. eigenvalues --    1.27122   1.27841   1.28568   1.29209   1.29353
 Alpha virt. eigenvalues --    1.30802   1.31077   1.32993   1.34151   1.35640
 Alpha virt. eigenvalues --    1.35930   1.36567   1.37092   1.38128   1.38652
 Alpha virt. eigenvalues --    1.40150   1.41741   1.42224   1.43154   1.43602
 Alpha virt. eigenvalues --    1.45384   1.46247   1.48174   1.49411   1.50106
 Alpha virt. eigenvalues --    1.51519   1.53174   1.53715   1.54610   1.55233
 Alpha virt. eigenvalues --    1.56368   1.57186   1.59487   1.60468   1.61962
 Alpha virt. eigenvalues --    1.62289   1.63424   1.63704   1.64951   1.65709
 Alpha virt. eigenvalues --    1.65824   1.66370   1.67233   1.68392   1.68534
 Alpha virt. eigenvalues --    1.69454   1.69927   1.70417   1.70799   1.71738
 Alpha virt. eigenvalues --    1.72029   1.72650   1.72985   1.73997   1.74790
 Alpha virt. eigenvalues --    1.75622   1.75991   1.77693   1.78175   1.78714
 Alpha virt. eigenvalues --    1.79915   1.81193   1.81502   1.82100   1.82395
 Alpha virt. eigenvalues --    1.83219   1.83932   1.84869   1.85026   1.85750
 Alpha virt. eigenvalues --    1.86968   1.88002   1.88661   1.88906   1.89192
 Alpha virt. eigenvalues --    1.90109   1.90190   1.91453   1.91728   1.91997
 Alpha virt. eigenvalues --    1.92916   1.94048   1.94717   1.95839   1.96318
 Alpha virt. eigenvalues --    1.97481   1.98807   1.99470   2.00497   2.01372
 Alpha virt. eigenvalues --    2.02775   2.03343   2.03858   2.04161   2.04910
 Alpha virt. eigenvalues --    2.06877   2.07566   2.08677   2.09330   2.11057
 Alpha virt. eigenvalues --    2.12490   2.14080   2.16176   2.17035   2.18186
 Alpha virt. eigenvalues --    2.19212   2.20806   2.21274   2.22125   2.22728
 Alpha virt. eigenvalues --    2.23465   2.24171   2.25134   2.25676   2.26733
 Alpha virt. eigenvalues --    2.27652   2.28157   2.28795   2.29314   2.30096
 Alpha virt. eigenvalues --    2.31218   2.31497   2.32417   2.33568   2.34395
 Alpha virt. eigenvalues --    2.35031   2.35927   2.36645   2.39157   2.40214
 Alpha virt. eigenvalues --    2.41900   2.43936   2.45175   2.46029   2.48393
 Alpha virt. eigenvalues --    2.48781   2.49163   2.52207   2.52798   2.53366
 Alpha virt. eigenvalues --    2.55895   2.56581   2.56778   2.57433   2.57836
 Alpha virt. eigenvalues --    2.58531   2.60201   2.60800   2.61859   2.62739
 Alpha virt. eigenvalues --    2.64670   2.65459   2.66285   2.68006   2.70036
 Alpha virt. eigenvalues --    2.71055   2.72284   2.77028   2.79970   2.80810
 Alpha virt. eigenvalues --    2.82997   2.85180   2.86099   2.87784   2.89514
 Alpha virt. eigenvalues --    2.90684   2.92478   2.93839   2.95354   2.99264
 Alpha virt. eigenvalues --    3.03593   3.06441   3.10036   3.32889   3.68276
 Alpha virt. eigenvalues --    3.75553   3.79280   3.85452   3.86971   3.90941
 Alpha virt. eigenvalues --    3.99132   4.01412   4.02333   4.03741   4.06237
 Alpha virt. eigenvalues --    4.07974   4.12300   4.13785   4.18688   4.19328
 Alpha virt. eigenvalues --    4.20079   4.23547   4.27630   4.28901   4.30466
 Alpha virt. eigenvalues --    4.35468   4.37104   4.39326   4.41696   4.43019
 Alpha virt. eigenvalues --    4.48996   4.55953   4.57504   4.60847   4.68800
          Condensed to atoms (all electrons):
 Mulliken charges:
               1
     1  N   -0.814169
     2  C   -0.093911
     3  C    0.596096
     4  O   -0.473965
     5  C   -0.307401
     6  C   -0.373735
     7  C    0.603885
     8  O   -0.483469
     9  O   -0.528879
    10  H    0.434129
    11  H    0.415117
    12  H    0.212608
    13  H    0.177715
    14  H    0.206906
    15  H    0.191405
    16  H    0.214469
    17  H    0.414580
    18  H    0.451817
    19  N   -0.569528
    20  C   -0.088884
    21  C    0.641512
    22  O   -0.594968
    23  C   -0.352018
    24  C    0.145082
    25  C   -0.221658
    26  C   -0.178908
    27  C   -0.164952
    28  C   -0.191202
    29  C    0.350438
    30  O   -0.631531
    31  H    0.328191
    32  H    0.192736
    33  H    0.159648
    34  H    0.181809
    35  H    0.143128
    36  H    0.144820
    37  H    0.158259
    38  H    0.140278
    39  H    0.417744
    40  N   -0.583413
    41  C   -0.028032
    42  C    0.592311
    43  O   -0.518236
    44  C   -0.314021
    45  C   -0.301797
    46  C   -0.319303
    47  C   -0.193376
    48  N   -0.757766
    49  O   -0.679911
    50  H    0.356211
    51  H    0.197997
    52  H    0.183840
    53  H    0.169622
    54  H    0.160618
    55  H    0.167639
    56  H    0.169586
    57  H    0.184310
    58  H    0.233438
    59  H    0.196662
    60  H    0.439645
    61  H    0.390201
    62  H    0.400579
 Sum of Mulliken charges =   1.00000
 Mulliken charges with hydrogens summed into heavy atoms:
               1
     1  N    0.467345
     2  C    0.118697
     3  C    0.596096
     4  O   -0.473965
     5  C    0.077220
     6  C    0.032139
     7  C    0.603885
     8  O   -0.483469
     9  O   -0.094750
    19  N   -0.241336
    20  C    0.103852
    21  C    0.641512
    22  O   -0.594968
    23  C   -0.010561
    24  C    0.145082
    25  C   -0.078530
    26  C   -0.034088
    27  C   -0.006694
    28  C   -0.050924
    29  C    0.350438
    30  O   -0.213787
    40  N   -0.227203
    41  C    0.169965
    42  C    0.592311
    43  O   -0.518236
    44  C    0.039441
    45  C    0.026460
    46  C    0.034593
    47  C    0.236724
    48  N    0.472660
    49  O   -0.679911
 Electronic spatial extent (au):  <R**2>=       20330334.7755
 Charge=              1.0000 electrons
 Dipole moment (field-independent basis, Debye):
    X=             -3.4085    Y=           -420.1271    Z=            620.6725  Tot=            749.5017
 Quadrupole moment (field-independent basis, Debye-Ang):
   XX=           -108.5148   YY=          36628.7123   ZZ=          80029.5991
   XY=            277.0662   XZ=           -430.2306   YZ=         -54263.9716
 Traceless Quadrupole moment (field-independent basis, Debye-Ang):
   XX=         -38958.4470   YY=          -2221.2199   ZZ=          41179.6669
   XY=            277.0662   XZ=           -430.2306   YZ=         -54263.9716
 Octapole moment (field-independent basis, Debye-Ang**2):
  XXX=            957.6321  YYY=       -3182830.3183  ZZZ=       10296685.2471  XYY=         -21977.7526
  XXY=           9558.4012  XXZ=         -14099.3665  XZZ=         -53894.5161  YZZ=       -6993506.8004
  YYZ=        4728874.8122  XYZ=          34935.9465
 Hexadecapole moment (field-independent basis, Debye-Ang**3):
 XXXX=         -13416.8805 YYYY=      275608247.4629 ZZZZ=     1321898737.4669 XXXY=         -83599.5715
 XXXZ=         124928.6397 YYYX=        1689612.2587 YYYZ=     -410732438.5825 ZZZX=       -6695623.3034
 ZZZY=     -899356028.0695 XXYY=        -845447.8831 XXZZ=       -1834598.6309 YYZZ=      609169703.5480
 XXYZ=        1241642.1164 YYXZ=       -2766571.6489 ZZXY=        4369557.9560
 N-N= 3.426370040277D+03 E-N=-1.038749759877D+04  KE= 1.512271283270D+03
 Unable to Open any file for archive entry.
 1\1\GINC-VIM-001\SP\RB3LYP\6-31G(d)\C20H31N4O7(1+)\KENGMITH\24-May-202
 2\0\\# B3LYP/6-31G* empiricaldispersion=gd3 guess=read geom=check nosy
 mm integral(ultrafinegrid)\\Candidate Structure: Conf:978 Charge calc 
 in gas phase\\1,1\N,0,0.4207006787,-88.7413440076,128.0783192017\C,0,0
 .486264561,-89.7618208275,129.1929763172\C,0,-0.8244853277,-89.5738447
 951,129.9908388872\O,0,-0.8286703692,-88.8512907613,130.9712344588\C,0
 ,0.7734371504,-91.1835576922,128.6842614067\C,0,1.8829336277,-91.32468
 84169,127.6114625071\C,0,3.130931603,-90.5270211626,127.9233967023\O,0
 ,3.163941794,-89.3041747864,127.9164600581\O,0,4.1879371232,-91.284725
 9268,128.2184046127\H,0,4.9475739206,-90.6953762029,128.3974306435\H,0
 ,1.3540780899,-88.6847700515,127.6377702899\H,0,1.2927492387,-89.42218
 36281,129.8432666386\H,0,-0.1279996747,-91.6411594383,128.2631444123\H
 ,0,1.0339739916,-91.7806079297,129.5647021514\H,0,1.5144023983,-90.959
 49751,126.6457707079\H,0,2.1290123513,-92.3814758073,127.4900597145\H,
 0,-0.3377155196,-88.9507415403,127.4061783814\H,0,0.1331798809,-87.780
 3867526,128.438831857\N,0,-1.957843638,-90.1415405759,129.444103465\C,
 0,-3.1483899679,-89.2843618492,129.4101853073\C,0,-2.8970923191,-88.28
 23603157,128.256723861\O,0,-2.2201161536,-88.6160770539,127.2693211942
 \C,0,-4.4698720523,-90.0569092261,129.244550918\C,0,-5.6191286761,-89.
 0699328534,129.2281490419\C,0,-5.9431699244,-88.3455840997,130.3874735
 3\C,0,-6.2827568428,-88.7432574951,128.0421017199\C,0,-6.8801851948,-8
 7.3167507259,130.361961074\C,0,-7.2336673995,-87.7234603842,128.000848
 9889\C,0,-7.5299675313,-86.9987767809,129.1605073417\O,0,-8.429892824,
 -85.9771641697,129.1948949902\H,0,-1.8175595291,-90.5803315289,128.539
 905399\H,0,-3.1651938432,-88.7445028827,130.3582377988\H,0,-4.44425174
 43,-90.6350081043,128.3130494532\H,0,-4.5530896313,-90.7693185963,130.
 0732415585\H,0,-5.4553595041,-88.5914602941,131.3288872634\H,0,-6.0453
 668793,-89.2807141967,127.1273901732\H,0,-7.1411957979,-86.7652203127,
 131.259500757\H,0,-7.7399140869,-87.4880364416,127.0671209948\H,0,-8.8
 672087877,-85.8945789295,128.3327760577\N,0,-3.3743286029,-87.04232139
 94,128.4212181148\C,0,-2.8472061852,-85.9184326371,127.6644509335\C,0,
 -1.3166038408,-85.719794172,127.8801890286\O,0,-0.7674279332,-84.82003
 95774,127.2481763021\C,0,-3.6072693623,-84.6196876477,128.0133871159\C
 ,0,-3.7793768689,-84.2827789882,129.5157917924\C,0,-2.5402875471,-84.4
 276333886,130.4255030826\C,0,-1.3494886462,-83.5345022341,130.02262030
 53\N,0,-0.0460725835,-84.2963814005,130.1600256309\O,0,-0.737197572,-8
 6.4277182509,128.8173106888\H,0,-3.9430701049,-86.8618681703,129.23743
 37592\H,0,-2.9768571872,-86.1149851135,126.5961726964\H,0,-3.083326135
 8,-83.8148523718,127.4905881497\H,0,-4.6102540803,-84.674962322,127.57
 47450665\H,0,-4.5703020245,-84.9122463869,129.9463443879\H,0,-4.168327
 0908,-83.2589596598,129.5813486159\H,0,-2.8340953151,-84.1984813508,13
 1.4558960487\H,0,-2.2183148421,-85.4741725803,130.4184856054\H,0,-1.39
 03349258,-83.2443891798,128.9735443654\H,0,-1.275470643,-82.6330791502
 ,130.6356751204\H,0,-0.1373486764,-85.2437208326,129.6173988736\H,0,0.
 1706557696,-84.4995108041,131.1394328241\H,0,0.7337783979,-83.77181400
 79,129.755916396\\Version=ES64L-G16RevC.01\HF=-1526.3077669\RMSD=9.707
 e-10\Dipole=2.7385274,0.5525895,0.6786165\Quadrupole=-28964.6505056,-1
 651.4225447,30616.0730504,205.9919126,-319.8659135,-40343.9328748\PG=C
 01 [X(C20H31N4O7)]\\@
 The archive entry for this job was punched.


 NEVER LOSE YOUR IGNORANCE, IT CAN'T BE REPLACED.
   -- ANDY CAPP
 Job cpu time:       0 days  0 hours  4 minutes  0.9 seconds.
 Elapsed time:       0 days  0 hours  1 minutes  0.8 seconds.
 File lengths (MBytes):  RWF=    264 Int=      0 D2E=      0 Chk=     40 Scr=     16
 Normal termination of Gaussian 16 at Tue May 24 19:13:58 2022.
