 Entering Gaussian System, Link 0=/opt/software/Gaussian/g16-AVX2-C.01/g16/g16
 Input=charge-conf-831.com
 Output=charge-conf-831.log
 Initial command:
 /opt/software/Gaussian/g16-AVX2-C.01/g16/l1.exe "/mnt/gs18/scratch/users/kengmith/Gau-30687.inp" -scrdir="/mnt/gs18/scratch/users/kengmith/"
 Entering Link 1 = /opt/software/Gaussian/g16-AVX2-C.01/g16/l1.exe PID=     30697.
  
 Copyright (c) 1988-2019, Gaussian, Inc.  All Rights Reserved.
  
 This is part of the Gaussian(R) 16 program.  It is based on
 the Gaussian(R) 09 system (copyright 2009, Gaussian, Inc.),
 the Gaussian(R) 03 system (copyright 2003, Gaussian, Inc.),
 the Gaussian(R) 98 system (copyright 1998, Gaussian, Inc.),
 the Gaussian(R) 94 system (copyright 1995, Gaussian, Inc.),
 the Gaussian 92(TM) system (copyright 1992, Gaussian, Inc.),
 the Gaussian 90(TM) system (copyright 1990, Gaussian, Inc.),
 the Gaussian 88(TM) system (copyright 1988, Gaussian, Inc.),
 the Gaussian 86(TM) system (copyright 1986, Carnegie Mellon
 University), and the Gaussian 82(TM) system (copyright 1983,
 Carnegie Mellon University). Gaussian is a federally registered
 trademark of Gaussian, Inc.
  
 This software contains proprietary and confidential information,
 including trade secrets, belonging to Gaussian, Inc.
  
 This software is provided under written license and may be
 used, copied, transmitted, or stored only in accord with that
 written license.
  
 The following legend is applicable only to US Government
 contracts under FAR:
  
                    RESTRICTED RIGHTS LEGEND
  
 Use, reproduction and disclosure by the US Government is
 subject to restrictions as set forth in subparagraphs (a)
 and (c) of the Commercial Computer Software - Restricted
 Rights clause in FAR 52.227-19.
  
 Gaussian, Inc.
 340 Quinnipiac St., Bldg. 40, Wallingford CT 06492
  
  
 ---------------------------------------------------------------
 Warning -- This program may not be used in any manner that
 competes with the business of Gaussian, Inc. or will provide
 assistance to any competitor of Gaussian, Inc.  The licensee
 of this program is prohibited from giving any competitor of
 Gaussian, Inc. access to this program.  By using this program,
 the user acknowledges that Gaussian, Inc. is engaged in the
 business of creating and licensing software in the field of
 computational chemistry and represents and warrants to the
 licensee that it is not a competitor of Gaussian, Inc. and that
 it will not use this program in any manner prohibited above.
 ---------------------------------------------------------------
  

 Cite this work as:
 Gaussian 16, Revision C.01,
 M. J. Frisch, G. W. Trucks, H. B. Schlegel, G. E. Scuseria, 
 M. A. Robb, J. R. Cheeseman, G. Scalmani, V. Barone, 
 G. A. Petersson, H. Nakatsuji, X. Li, M. Caricato, A. V. Marenich, 
 J. Bloino, B. G. Janesko, R. Gomperts, B. Mennucci, H. P. Hratchian, 
 J. V. Ortiz, A. F. Izmaylov, J. L. Sonnenberg, D. Williams-Young, 
 F. Ding, F. Lipparini, F. Egidi, J. Goings, B. Peng, A. Petrone, 
 T. Henderson, D. Ranasinghe, V. G. Zakrzewski, J. Gao, N. Rega, 
 G. Zheng, W. Liang, M. Hada, M. Ehara, K. Toyota, R. Fukuda, 
 J. Hasegawa, M. Ishida, T. Nakajima, Y. Honda, O. Kitao, H. Nakai, 
 T. Vreven, K. Throssell, J. A. Montgomery, Jr., J. E. Peralta, 
 F. Ogliaro, M. J. Bearpark, J. J. Heyd, E. N. Brothers, K. N. Kudin, 
 V. N. Staroverov, T. A. Keith, R. Kobayashi, J. Normand, 
 K. Raghavachari, A. P. Rendell, J. C. Burant, S. S. Iyengar, 
 J. Tomasi, M. Cossi, J. M. Millam, M. Klene, C. Adamo, R. Cammi, 
 J. W. Ochterski, R. L. Martin, K. Morokuma, O. Farkas, 
 J. B. Foresman, and D. J. Fox, Gaussian, Inc., Wallingford CT, 2019.
 
 ******************************************
 Gaussian 16:  ES64L-G16RevC.01  3-Jul-2019
                24-May-2022 
 ******************************************
 %mem=8gb
 %nproc=4
 Will use up to    4 processors via shared memory.
 %chk=conf-831.chk
 ----------------------------------------------------------------------
 # B3LYP/6-31G* empiricaldispersion=gd3 guess=read geom=check nosymm in
 tegral(ultrafinegrid)
 ----------------------------------------------------------------------
 1/29=2,38=1,172=1/1;
 2/12=2,15=1,40=1/2;
 3/5=1,6=6,7=1,11=2,14=-4,25=1,30=1,74=-5,75=-5,116=-2,124=31/1,2,3;
 4/5=1/1;
 5/5=2,38=6/2;
 6/7=2,8=2,9=2,10=2,28=1/1;
 99/5=1,9=1/99;
 ------------------------------------------------------
 Candidate Structure: Conf:831 Charge calc in gas phase
 ------------------------------------------------------
 Structure from the checkpoint file:  "conf-831.chk"
 Charge =  1 Multiplicity = 1
 Redundant internal coordinates found in file.  (old form).
 N,0,-97.4716317417,-15.1467443205,4.1950684257
 C,0,-96.6506465069,-14.8301939393,2.9601719149
 C,0,-95.2085536271,-14.8842718726,3.516246376
 O,0,-94.9349836192,-15.8578160041,4.2148549119
 C,0,-97.1847594628,-13.5282044127,2.3430457259
 C,0,-98.6485187532,-13.6279461321,2.0290999923
 C,0,-99.674347413,-12.945052984,2.6471500264
 C,0,-99.2571339919,-14.4975515346,1.0504171094
 C,0,-100.659526899,-14.2863054419,1.1276245547
 C,0,-98.7546516074,-15.4210015911,0.1151533614
 N,0,-100.8791596892,-13.3383481942,2.1108006328
 C,0,-101.5647995293,-14.9709917942,0.310118926
 C,0,-99.6493641103,-16.1026135441,-0.6981999398
 C,0,-101.0396921137,-15.8806225041,-0.5991307636
 H,0,-97.1873652484,-16.0614841429,4.5650136938
 H,0,-96.7999531152,-15.6685921593,2.2751662576
 H,0,-96.9984741839,-12.6958572477,3.0337169687
 H,0,-96.6074897514,-13.3352947908,1.428708919
 H,0,-99.6307895064,-12.1810421865,3.4122055679
 H,0,-101.777266889,-12.945249638,2.3495798212
 H,0,-97.6847948633,-15.5867443907,0.012455049
 H,0,-102.6343730244,-14.7957338289,0.3798153315
 H,0,-99.2769482634,-16.8142723556,-1.4286920506
 H,0,-101.7126060805,-16.4283208861,-1.2517516173
 H,0,-97.2258201921,-14.4531897245,4.9421278349
 H,0,-98.4740591303,-15.1106563366,3.9727594825
 N,0,-94.4172519663,-13.8206058268,3.286020368
 C,0,-93.3221829305,-13.3805330541,4.1724753966
 C,0,-92.7058624126,-14.5809658817,4.9173031517
 O,0,-91.9085223016,-15.3115583139,4.3583836938
 C,0,-92.2144211336,-12.6322580432,3.3966678338
 C,0,-91.2161137994,-12.0263530742,4.4077539288
 C,0,-92.8005402109,-11.5552346433,2.4710064976
 C,0,-89.9215608662,-11.5092637109,3.7711440897
 H,0,-94.8105296783,-13.0711251099,2.7348535688
 H,0,-93.7851289118,-12.6897287205,4.8835110232
 H,0,-91.6903644275,-13.3835310784,2.7954040522
 H,0,-91.7133030502,-11.2123962429,4.9572249496
 H,0,-90.9507991871,-12.7868317071,5.1520878039
 H,0,-93.3888060031,-11.9835281073,1.6504925986
 H,0,-93.4329858445,-10.8494684951,3.0275237687
 H,0,-92.0031820838,-10.9753424539,1.9997317935
 H,0,-90.1001912216,-10.6789898615,3.0799553635
 H,0,-89.4161933768,-12.3081838026,3.2167829846
 H,0,-89.2316735111,-11.1491439956,4.5413358534
 N,0,-92.9898867979,-14.7571147594,6.2566228049
 C,0,-93.9780307418,-14.1832511888,7.17785181
 C,0,-95.4220529173,-14.334533405,6.657174209
 O,0,-95.9260899809,-13.5372356919,5.8673142014
 C,0,-93.6743206976,-12.7379495102,7.621792301
 C,0,-94.659381498,-12.1299621023,8.6394299649
 C,0,-94.7394487722,-12.7925945044,10.0278072183
 N,0,-95.3903792242,-14.1025686998,10.0259077058
 C,0,-94.718374614,-15.3057943649,10.054146794
 N,0,-93.5106419514,-15.581561207,10.3674962216
 N,0,-95.5107976912,-16.37669106,9.5204453331
 O,0,-96.1483766354,-15.3689442231,7.0621306819
 H,0,-95.7658966119,-15.8816491471,7.8473632118
 H,0,-92.5326352423,-15.5942705987,6.6004699249
 H,0,-93.8736129848,-14.818616184,8.0528027601
 H,0,-92.6589094082,-12.7433245828,8.0351845863
 H,0,-93.6509016853,-12.0840037612,6.7457729783
 H,0,-95.6663881583,-12.0935767565,8.200767839
 H,0,-94.3680742003,-11.0840844603,8.7964831823
 H,0,-93.7391827645,-12.9054597162,10.4556261037
 H,0,-95.2917034793,-12.1350602066,10.7080409742
 H,0,-96.310331952,-14.116882177,9.6037432624
 H,0,-92.9780181899,-14.7659619949,10.6673356967
 H,0,-96.4297002762,-16.4426186042,9.9595851061
 H,0,-95.008550305,-17.248313544,9.683556256
 Recover connectivity data from disk.
                           ----------------------------
                           !    Current Parameters    !
                           ! (Angstroms and Degrees)  !
 --------------------------                            --------------------------
 ! Name  Definition              Value                                          !
 --------------------------------------------------------------------------------
 ! R1    R(1,2)                  1.5163                                         !
 ! R2    R(1,15)                 1.0268                                         !
 ! R3    R(1,25)                 1.0486                                         !
 ! R4    R(1,26)                 1.0274                                         !
 ! R5    R(2,3)                  1.5465                                         !
 ! R6    R(2,5)                  1.5367                                         !
 ! R7    R(2,16)                 1.0929                                         !
 ! R8    R(3,4)                  1.2291                                         !
 ! R9    R(3,27)                 1.3456                                         !
 ! R10   R(5,6)                  1.5004                                         !
 ! R11   R(5,17)                 1.0975                                         !
 ! R12   R(5,18)                 1.0984                                         !
 ! R13   R(6,7)                  1.3786                                         !
 ! R14   R(6,8)                  1.4438                                         !
 ! R15   R(7,11)                 1.3762                                         !
 ! R16   R(7,19)                 1.0821                                         !
 ! R17   R(8,9)                  1.4203                                         !
 ! R18   R(8,10)                 1.4071                                         !
 ! R19   R(9,11)                 1.3833                                         !
 ! R20   R(9,12)                 1.3988                                         !
 ! R21   R(10,13)                1.388                                          !
 ! R22   R(10,21)                1.0875                                         !
 ! R23   R(11,20)                1.009                                          !
 ! R24   R(12,14)                1.3892                                         !
 ! R25   R(12,22)                1.0861                                         !
 ! R26   R(13,14)                1.4114                                         !
 ! R27   R(13,23)                1.0857                                         !
 ! R28   R(14,24)                1.0857                                         !
 ! R29   R(27,28)                1.476                                          !
 ! R30   R(27,35)                1.01                                           !
 ! R31   R(28,29)                1.5413                                         !
 ! R32   R(28,31)                1.5456                                         !
 ! R33   R(28,36)                1.0941                                         !
 ! R34   R(29,30)                1.2173                                         !
 ! R35   R(29,46)                1.3804                                         !
 ! R36   R(31,32)                1.5447                                         !
 ! R37   R(31,33)                1.5363                                         !
 ! R38   R(31,37)                1.0957                                         !
 ! R39   R(32,34)                1.5325                                         !
 ! R40   R(32,38)                1.1007                                         !
 ! R41   R(32,39)                1.0967                                         !
 ! R42   R(33,40)                1.0967                                         !
 ! R43   R(33,41)                1.099                                          !
 ! R44   R(33,42)                1.0928                                         !
 ! R45   R(34,43)                1.095                                          !
 ! R46   R(34,44)                1.0959                                         !
 ! R47   R(34,45)                1.0949                                         !
 ! R48   R(46,47)                1.4678                                         !
 ! R49   R(46,59)                1.014                                          !
 ! R50   R(47,48)                1.5425                                         !
 ! R51   R(47,50)                1.5421                                         !
 ! R52   R(47,60)                1.0863                                         !
 ! R53   R(48,49)                1.2303                                         !
 ! R54   R(48,57)                1.3272                                         !
 ! R55   R(50,51)                1.5413                                         !
 ! R56   R(50,61)                1.0963                                         !
 ! R57   R(50,62)                1.0934                                         !
 ! R58   R(51,52)                1.5405                                         !
 ! R59   R(51,63)                1.099                                          !
 ! R60   R(51,64)                1.097                                          !
 ! R61   R(52,53)                1.4628                                         !
 ! R62   R(52,65)                1.0938                                         !
 ! R63   R(52,66)                1.0955                                         !
 ! R64   R(53,54)                1.3785                                         !
 ! R65   R(53,67)                1.0123                                         !
 ! R66   R(54,55)                1.2778                                         !
 ! R67   R(54,56)                1.4351                                         !
 ! R68   R(55,68)                1.0192                                         !
 ! R69   R(56,69)                1.0206                                         !
 ! R70   R(56,70)                1.0191                                         !
 ! R71   R(57,58)                1.0128                                         !
 ! A1    A(2,1,15)             109.238                                          !
 ! A2    A(2,1,25)             108.3739                                         !
 ! A3    A(2,1,26)             110.1645                                         !
 ! A4    A(15,1,25)            105.5237                                         !
 ! A5    A(15,1,26)            112.2932                                         !
 ! A6    A(25,1,26)            111.0783                                         !
 ! A7    A(1,2,3)              101.8144                                         !
 ! A8    A(1,2,5)              108.4067                                         !
 ! A9    A(1,2,16)             106.0416                                         !
 ! A10   A(3,2,5)              119.8768                                         !
 ! A11   A(3,2,16)             109.0218                                         !
 ! A12   A(5,2,16)             110.535                                          !
 ! A13   A(2,3,4)              116.0793                                         !
 ! A14   A(2,3,27)             117.3357                                         !
 ! A15   A(4,3,27)             126.3342                                         !
 ! A16   A(2,5,6)              111.519                                          !
 ! A17   A(2,5,17)             109.3205                                         !
 ! A18   A(2,5,18)             107.4842                                         !
 ! A19   A(6,5,17)             110.3461                                         !
 ! A20   A(6,5,18)             110.5013                                         !
 ! A21   A(17,5,18)            107.5449                                         !
 ! A22   A(5,6,7)              126.8124                                         !
 ! A23   A(5,6,8)              126.3806                                         !
 ! A24   A(7,6,8)              106.7726                                         !
 ! A25   A(6,7,11)             109.5812                                         !
 ! A26   A(6,7,19)             129.5491                                         !
 ! A27   A(11,7,19)            120.8349                                         !
 ! A28   A(6,8,9)              106.8458                                         !
 ! A29   A(6,8,10)             134.0519                                         !
 ! A30   A(9,8,10)             119.1                                            !
 ! A31   A(8,9,11)             107.2975                                         !
 ! A32   A(8,9,12)             122.3061                                         !
 ! A33   A(11,9,12)            130.3962                                         !
 ! A34   A(8,10,13)            118.7877                                         !
 ! A35   A(8,10,21)            120.9378                                         !
 ! A36   A(13,10,21)           120.2625                                         !
 ! A37   A(7,11,9)             109.5023                                         !
 ! A38   A(7,11,20)            125.146                                          !
 ! A39   A(9,11,20)            125.2042                                         !
 ! A40   A(9,12,14)            117.2836                                         !
 ! A41   A(9,12,22)            121.3896                                         !
 ! A42   A(14,12,22)           121.3262                                         !
 ! A43   A(10,13,14)           121.1038                                         !
 ! A44   A(10,13,23)           119.6719                                         !
 ! A45   A(14,13,23)           119.223                                          !
 ! A46   A(12,14,13)           121.4173                                         !
 ! A47   A(12,14,24)           119.3062                                         !
 ! A48   A(13,14,24)           119.2754                                         !
 ! A49   A(3,27,28)            124.6964                                         !
 ! A50   A(3,27,35)            116.8054                                         !
 ! A51   A(28,27,35)           113.2887                                         !
 ! A52   A(27,28,29)           110.7735                                         !
 ! A53   A(27,28,31)           112.001                                          !
 ! A54   A(27,28,36)           105.3444                                         !
 ! A55   A(29,28,31)           109.4525                                         !
 ! A56   A(29,28,36)           110.2971                                         !
 ! A57   A(31,28,36)           108.8919                                         !
 ! A58   A(28,29,30)           120.4947                                         !
 ! A59   A(28,29,46)           119.0763                                         !
 ! A60   A(30,29,46)           120.2422                                         !
 ! A61   A(28,31,32)           108.9384                                         !
 ! A62   A(28,31,33)           111.6159                                         !
 ! A63   A(28,31,37)           106.6358                                         !
 ! A64   A(32,31,33)           111.4665                                         !
 ! A65   A(32,31,37)           108.6042                                         !
 ! A66   A(33,31,37)           109.4209                                         !
 ! A67   A(31,32,34)           113.9781                                         !
 ! A68   A(31,32,38)           108.9584                                         !
 ! A69   A(31,32,39)           109.1841                                         !
 ! A70   A(34,32,38)           109.8411                                         !
 ! A71   A(34,32,39)           108.1529                                         !
 ! A72   A(38,32,39)           106.4534                                         !
 ! A73   A(31,33,40)           112.4355                                         !
 ! A74   A(31,33,41)           111.3852                                         !
 ! A75   A(31,33,42)           110.7003                                         !
 ! A76   A(40,33,41)           108.7218                                         !
 ! A77   A(40,33,42)           106.0199                                         !
 ! A78   A(41,33,42)           107.3077                                         !
 ! A79   A(32,34,43)           112.3497                                         !
 ! A80   A(32,34,44)           110.7139                                         !
 ! A81   A(32,34,45)           110.55                                           !
 ! A82   A(43,34,44)           107.9804                                         !
 ! A83   A(43,34,45)           107.3029                                         !
 ! A84   A(44,34,45)           107.7608                                         !
 ! A85   A(29,46,47)           134.2335                                         !
 ! A86   A(29,46,59)           109.9737                                         !
 ! A87   A(47,46,59)           114.4278                                         !
 ! A88   A(46,47,48)           112.3364                                         !
 ! A89   A(46,47,50)           114.4885                                         !
 ! A90   A(46,47,60)           102.2469                                         !
 ! A91   A(48,47,50)           111.9294                                         !
 ! A92   A(48,47,60)           107.728                                          !
 ! A93   A(50,47,60)           107.2987                                         !
 ! A94   A(47,48,49)           122.4594                                         !
 ! A95   A(47,48,57)           119.0627                                         !
 ! A96   A(49,48,57)           118.4743                                         !
 ! A97   A(47,50,51)           115.715                                          !
 ! A98   A(47,50,61)           106.6396                                         !
 ! A99   A(47,50,62)           109.5174                                         !
 ! A100  A(51,50,61)           110.1763                                         !
 ! A101  A(51,50,62)           107.8628                                         !
 ! A102  A(61,50,62)           106.5698                                         !
 ! A103  A(50,51,52)           117.2967                                         !
 ! A104  A(50,51,63)           109.5809                                         !
 ! A105  A(50,51,64)           107.5114                                         !
 ! A106  A(52,51,63)           109.0474                                         !
 ! A107  A(52,51,64)           107.1501                                         !
 ! A108  A(63,51,64)           105.5989                                         !
 ! A109  A(51,52,53)           114.0271                                         !
 ! A110  A(51,52,65)           110.4494                                         !
 ! A111  A(51,52,66)           109.1265                                         !
 ! A112  A(53,52,65)           108.3641                                         !
 ! A113  A(53,52,66)           108.3004                                         !
 ! A114  A(65,52,66)           106.2656                                         !
 ! A115  A(52,53,54)           124.3835                                         !
 ! A116  A(52,53,67)           114.6835                                         !
 ! A117  A(54,53,67)           116.0552                                         !
 ! A118  A(53,54,55)           130.856                                          !
 ! A119  A(53,54,56)           111.9962                                         !
 ! A120  A(55,54,56)           116.8739                                         !
 ! A121  A(54,55,68)           113.1638                                         !
 ! A122  A(54,56,69)           112.6649                                         !
 ! A123  A(54,56,70)           107.8526                                         !
 ! A124  A(69,56,70)           108.6396                                         !
 ! A125  A(48,57,58)           115.1149                                         !
 ! D1    D(15,1,2,3)           -58.2511                                         !
 ! D2    D(15,1,2,5)           174.4503                                         !
 ! D3    D(15,1,2,16)           55.7414                                         !
 ! D4    D(25,1,2,3)            56.2434                                         !
 ! D5    D(25,1,2,5)           -71.0551                                         !
 ! D6    D(25,1,2,16)          170.236                                          !
 ! D7    D(26,1,2,3)           177.9575                                         !
 ! D8    D(26,1,2,5)            50.6589                                         !
 ! D9    D(26,1,2,16)          -68.05                                           !
 ! D10   D(1,2,3,4)             47.1627                                         !
 ! D11   D(1,2,3,27)          -127.4533                                         !
 ! D12   D(5,2,3,4)            166.6484                                         !
 ! D13   D(5,2,3,27)            -7.9676                                         !
 ! D14   D(16,2,3,4)           -64.5983                                         !
 ! D15   D(16,2,3,27)          120.7857                                         !
 ! D16   D(1,2,5,6)            -56.475                                          !
 ! D17   D(1,2,5,17)            65.8203                                         !
 ! D18   D(1,2,5,18)          -177.7338                                         !
 ! D19   D(3,2,5,6)           -172.5812                                         !
 ! D20   D(3,2,5,17)           -50.2859                                         !
 ! D21   D(3,2,5,18)            66.16                                           !
 ! D22   D(16,2,5,6)            59.3518                                         !
 ! D23   D(16,2,5,17)         -178.3529                                         !
 ! D24   D(16,2,5,18)          -61.907                                          !
 ! D25   D(2,3,27,28)          150.5393                                         !
 ! D26   D(2,3,27,35)           -2.1556                                         !
 ! D27   D(4,3,27,28)          -23.4556                                         !
 ! D28   D(4,3,27,35)         -176.1505                                         !
 ! D29   D(2,5,6,7)            111.9576                                         !
 ! D30   D(2,5,6,8)            -65.6213                                         !
 ! D31   D(17,5,6,7)            -9.7457                                         !
 ! D32   D(17,5,6,8)           172.6754                                         !
 ! D33   D(18,5,6,7)          -128.5558                                         !
 ! D34   D(18,5,6,8)            53.8653                                         !
 ! D35   D(5,6,7,11)          -177.9852                                         !
 ! D36   D(5,6,7,19)             4.1863                                         !
 ! D37   D(8,6,7,11)            -0.0209                                         !
 ! D38   D(8,6,7,19)          -177.8494                                         !
 ! D39   D(5,6,8,9)            178.1314                                         !
 ! D40   D(5,6,8,10)            -2.4502                                         !
 ! D41   D(7,6,8,9)              0.1557                                         !
 ! D42   D(7,6,8,10)           179.5741                                         !
 ! D43   D(6,7,11,9)            -0.1276                                         !
 ! D44   D(6,7,11,20)         -175.8955                                         !
 ! D45   D(19,7,11,9)          177.9224                                         !
 ! D46   D(19,7,11,20)           2.1545                                         !
 ! D47   D(6,8,9,11)            -0.2313                                         !
 ! D48   D(6,8,9,12)           179.9063                                         !
 ! D49   D(10,8,9,11)         -179.7529                                         !
 ! D50   D(10,8,9,12)            0.3847                                         !
 ! D51   D(6,8,10,13)         -179.7285                                         !
 ! D52   D(6,8,10,21)           -0.9894                                         !
 ! D53   D(9,8,10,13)           -0.3655                                         !
 ! D54   D(9,8,10,21)          178.3735                                         !
 ! D55   D(8,9,11,7)             0.224                                          !
 ! D56   D(8,9,11,20)          175.9889                                         !
 ! D57   D(12,9,11,7)         -179.9287                                         !
 ! D58   D(12,9,11,20)          -4.1638                                         !
 ! D59   D(8,9,12,14)           -0.0948                                         !
 ! D60   D(8,9,12,22)         -179.8249                                         !
 ! D61   D(11,9,12,14)        -179.9223                                         !
 ! D62   D(11,9,12,22)           0.3476                                         !
 ! D63   D(8,10,13,14)           0.0763                                         !
 ! D64   D(8,10,13,23)         179.6563                                         !
 ! D65   D(21,10,13,14)       -178.6715                                         !
 ! D66   D(21,10,13,23)          0.9085                                         !
 ! D67   D(9,12,14,13)          -0.207                                          !
 ! D68   D(9,12,14,24)        -179.8375                                         !
 ! D69   D(22,12,14,13)        179.5234                                         !
 ! D70   D(22,12,14,24)         -0.1071                                         !
 ! D71   D(10,13,14,12)          0.2205                                         !
 ! D72   D(10,13,14,24)        179.8511                                         !
 ! D73   D(23,13,14,12)       -179.3613                                         !
 ! D74   D(23,13,14,24)          0.2693                                         !
 ! D75   D(3,27,28,29)          30.0971                                         !
 ! D76   D(3,27,28,31)         152.6057                                         !
 ! D77   D(3,27,28,36)         -89.1654                                         !
 ! D78   D(35,27,28,29)       -176.3744                                         !
 ! D79   D(35,27,28,31)        -53.8659                                         !
 ! D80   D(35,27,28,36)         64.363                                          !
 ! D81   D(27,28,29,30)         79.3624                                         !
 ! D82   D(27,28,29,46)       -105.5921                                         !
 ! D83   D(31,28,29,30)        -44.6175                                         !
 ! D84   D(31,28,29,46)        130.428                                          !
 ! D85   D(36,28,29,30)       -164.4025                                         !
 ! D86   D(36,28,29,46)         10.643                                          !
 ! D87   D(27,28,31,32)        171.7715                                         !
 ! D88   D(27,28,31,33)         48.2581                                         !
 ! D89   D(27,28,31,37)        -71.1929                                         !
 ! D90   D(29,28,31,32)        -64.9717                                         !
 ! D91   D(29,28,31,33)        171.5149                                         !
 ! D92   D(29,28,31,37)         52.064                                          !
 ! D93   D(36,28,31,32)         55.6723                                         !
 ! D94   D(36,28,31,33)        -67.8412                                         !
 ! D95   D(36,28,31,37)        172.7079                                         !
 ! D96   D(28,29,46,47)         13.2992                                         !
 ! D97   D(28,29,46,59)        178.7582                                         !
 ! D98   D(30,29,46,47)       -171.6425                                         !
 ! D99   D(30,29,46,59)         -6.1836                                         !
 ! D100  D(28,31,32,34)        168.0161                                         !
 ! D101  D(28,31,32,38)        -68.9208                                         !
 ! D102  D(28,31,32,39)         46.9668                                         !
 ! D103  D(33,31,32,34)        -68.3815                                         !
 ! D104  D(33,31,32,38)         54.6815                                         !
 ! D105  D(33,31,32,39)        170.5691                                         !
 ! D106  D(37,31,32,34)         52.2396                                         !
 ! D107  D(37,31,32,38)        175.3027                                         !
 ! D108  D(37,31,32,39)        -68.8097                                         !
 ! D109  D(28,31,33,40)        -66.7966                                         !
 ! D110  D(28,31,33,41)         55.5217                                         !
 ! D111  D(28,31,33,42)        174.8312                                         !
 ! D112  D(32,31,33,40)        171.1342                                         !
 ! D113  D(32,31,33,41)        -66.5476                                         !
 ! D114  D(32,31,33,42)         52.7619                                         !
 ! D115  D(37,31,33,40)         50.993                                          !
 ! D116  D(37,31,33,41)        173.3113                                         !
 ! D117  D(37,31,33,42)        -67.3793                                         !
 ! D118  D(31,32,34,43)         63.6022                                         !
 ! D119  D(31,32,34,44)        -57.2151                                         !
 ! D120  D(31,32,34,45)       -176.5589                                         !
 ! D121  D(38,32,34,43)        -58.9789                                         !
 ! D122  D(38,32,34,44)       -179.7962                                         !
 ! D123  D(38,32,34,45)         60.86                                           !
 ! D124  D(39,32,34,43)       -174.7762                                         !
 ! D125  D(39,32,34,44)         64.4065                                         !
 ! D126  D(39,32,34,45)        -54.9373                                         !
 ! D127  D(29,46,47,48)         54.2198                                         !
 ! D128  D(29,46,47,50)        -74.8905                                         !
 ! D129  D(29,46,47,60)        169.437                                          !
 ! D130  D(59,46,47,48)       -110.7593                                         !
 ! D131  D(59,46,47,50)        120.1304                                         !
 ! D132  D(59,46,47,60)          4.4579                                         !
 ! D133  D(46,47,48,49)        -84.2839                                         !
 ! D134  D(46,47,48,57)         95.0088                                         !
 ! D135  D(50,47,48,49)         46.145                                          !
 ! D136  D(50,47,48,57)       -134.5622                                         !
 ! D137  D(60,47,48,49)        163.8701                                         !
 ! D138  D(60,47,48,57)        -16.8372                                         !
 ! D139  D(46,47,50,51)       -177.3292                                         !
 ! D140  D(46,47,50,61)        -54.408                                          !
 ! D141  D(46,47,50,62)         60.5358                                         !
 ! D142  D(48,47,50,51)         53.3576                                         !
 ! D143  D(48,47,50,61)        176.2788                                         !
 ! D144  D(48,47,50,62)        -68.7773                                         !
 ! D145  D(60,47,50,51)        -64.6238                                         !
 ! D146  D(60,47,50,61)         58.2974                                         !
 ! D147  D(60,47,50,62)        173.2412                                         !
 ! D148  D(47,48,57,58)         12.7975                                         !
 ! D149  D(49,48,57,58)       -167.8813                                         !
 ! D150  D(47,50,51,52)         63.8463                                         !
 ! D151  D(47,50,51,63)        -61.1383                                         !
 ! D152  D(47,50,51,64)       -175.438                                          !
 ! D153  D(61,50,51,52)        -57.1892                                         !
 ! D154  D(61,50,51,63)        177.8261                                         !
 ! D155  D(61,50,51,64)         63.5265                                         !
 ! D156  D(62,50,51,52)       -173.1425                                         !
 ! D157  D(62,50,51,63)         61.8728                                         !
 ! D158  D(62,50,51,64)        -52.4268                                         !
 ! D159  D(50,51,52,53)        -71.5818                                         !
 ! D160  D(50,51,52,65)         50.7195                                         !
 ! D161  D(50,51,52,66)        167.1881                                         !
 ! D162  D(63,51,52,53)         53.6687                                         !
 ! D163  D(63,51,52,65)        175.9699                                         !
 ! D164  D(63,51,52,66)        -67.5614                                         !
 ! D165  D(64,51,52,53)        167.5134                                         !
 ! D166  D(64,51,52,65)        -70.1853                                         !
 ! D167  D(64,51,52,66)         46.2833                                         !
 ! D168  D(51,52,53,54)        100.5995                                         !
 ! D169  D(51,52,53,67)        -53.5913                                         !
 ! D170  D(65,52,53,54)        -22.8386                                         !
 ! D171  D(65,52,53,67)       -177.0295                                         !
 ! D172  D(66,52,53,54)       -137.713                                          !
 ! D173  D(66,52,53,67)         68.0962                                         !
 ! D174  D(52,53,54,55)         16.9584                                         !
 ! D175  D(52,53,54,56)       -156.7239                                         !
 ! D176  D(67,53,54,55)        170.8324                                         !
 ! D177  D(67,53,54,56)         -2.8498                                         !
 ! D178  D(53,54,55,68)          1.8159                                         !
 ! D179  D(56,54,55,68)        175.2478                                         !
 ! D180  D(53,54,56,69)        -52.7354                                         !
 ! D181  D(53,54,56,70)       -172.6284                                         !
 ! D182  D(55,54,56,69)        132.6185                                         !
 ! D183  D(55,54,56,70)         12.7256                                         !
 --------------------------------------------------------------------------------
 Symmetry turned off by external request.
 Stoichiometry    C23H36N7O4(1+)
 Framework group  C1[X(C23H36N7O4)]
 Deg. of freedom   204
 Full point group                 C1      NOp   1
                          Input orientation:                          
 ---------------------------------------------------------------------
 Center     Atomic      Atomic             Coordinates (Angstroms)
 Number     Number       Type             X           Y           Z
 ---------------------------------------------------------------------
      1          7           0      -97.471632  -15.146744    4.195068
      2          6           0      -96.650647  -14.830194    2.960172
      3          6           0      -95.208554  -14.884272    3.516246
      4          8           0      -94.934984  -15.857816    4.214855
      5          6           0      -97.184759  -13.528204    2.343046
      6          6           0      -98.648519  -13.627946    2.029100
      7          6           0      -99.674347  -12.945053    2.647150
      8          6           0      -99.257134  -14.497552    1.050417
      9          6           0     -100.659527  -14.286305    1.127625
     10          6           0      -98.754652  -15.421002    0.115153
     11          7           0     -100.879160  -13.338348    2.110801
     12          6           0     -101.564800  -14.970992    0.310119
     13          6           0      -99.649364  -16.102614   -0.698200
     14          6           0     -101.039692  -15.880623   -0.599131
     15          1           0      -97.187365  -16.061484    4.565014
     16          1           0      -96.799953  -15.668592    2.275166
     17          1           0      -96.998474  -12.695857    3.033717
     18          1           0      -96.607490  -13.335295    1.428709
     19          1           0      -99.630790  -12.181042    3.412206
     20          1           0     -101.777267  -12.945250    2.349580
     21          1           0      -97.684795  -15.586744    0.012455
     22          1           0     -102.634373  -14.795734    0.379815
     23          1           0      -99.276948  -16.814272   -1.428692
     24          1           0     -101.712606  -16.428321   -1.251752
     25          1           0      -97.225820  -14.453190    4.942128
     26          1           0      -98.474059  -15.110656    3.972759
     27          7           0      -94.417252  -13.820606    3.286020
     28          6           0      -93.322183  -13.380533    4.172475
     29          6           0      -92.705862  -14.580966    4.917303
     30          8           0      -91.908522  -15.311558    4.358384
     31          6           0      -92.214421  -12.632258    3.396668
     32          6           0      -91.216114  -12.026353    4.407754
     33          6           0      -92.800540  -11.555235    2.471006
     34          6           0      -89.921561  -11.509264    3.771144
     35          1           0      -94.810530  -13.071125    2.734854
     36          1           0      -93.785129  -12.689729    4.883511
     37          1           0      -91.690364  -13.383531    2.795404
     38          1           0      -91.713303  -11.212396    4.957225
     39          1           0      -90.950799  -12.786832    5.152088
     40          1           0      -93.388806  -11.983528    1.650493
     41          1           0      -93.432986  -10.849468    3.027524
     42          1           0      -92.003182  -10.975342    1.999732
     43          1           0      -90.100191  -10.678990    3.079955
     44          1           0      -89.416193  -12.308184    3.216783
     45          1           0      -89.231674  -11.149144    4.541336
     46          7           0      -92.989887  -14.757115    6.256623
     47          6           0      -93.978031  -14.183251    7.177852
     48          6           0      -95.422053  -14.334533    6.657174
     49          8           0      -95.926090  -13.537236    5.867314
     50          6           0      -93.674321  -12.737950    7.621792
     51          6           0      -94.659381  -12.129962    8.639430
     52          6           0      -94.739449  -12.792595   10.027807
     53          7           0      -95.390379  -14.102569   10.025908
     54          6           0      -94.718375  -15.305794   10.054147
     55          7           0      -93.510642  -15.581561   10.367496
     56          7           0      -95.510798  -16.376691    9.520445
     57          8           0      -96.148377  -15.368944    7.062131
     58          1           0      -95.765897  -15.881649    7.847363
     59          1           0      -92.532635  -15.594271    6.600470
     60          1           0      -93.873613  -14.818616    8.052803
     61          1           0      -92.658909  -12.743325    8.035185
     62          1           0      -93.650902  -12.084004    6.745773
     63          1           0      -95.666388  -12.093577    8.200768
     64          1           0      -94.368074  -11.084084    8.796483
     65          1           0      -93.739183  -12.905460   10.455626
     66          1           0      -95.291703  -12.135060   10.708041
     67          1           0      -96.310332  -14.116882    9.603743
     68          1           0      -92.978018  -14.765962   10.667336
     69          1           0      -96.429700  -16.442619    9.959585
     70          1           0      -95.008550  -17.248314    9.683556
 ---------------------------------------------------------------------
 Rotational constants (GHZ):           0.1648676           0.0666146           0.0543764
 Standard basis: 6-31G(d) (6D, 7F)
   582 basis functions,  1096 primitive gaussians,   582 cartesian basis functions
   127 alpha electrons      127 beta electrons
       nuclear repulsion energy      3814.5912443075 Hartrees.
 NAtoms=   70 NActive=   70 NUniq=   70 SFac= 1.00D+00 NAtFMM=   60 NAOKFM=T Big=T
 Integral buffers will be    131072 words long.
 Raffenetti 2 integral format.
 Two-electron integral symmetry is turned off.
 Nuclear repulsion after empirical dispersion term =     3814.4967425568 Hartrees.
 One-electron integrals computed using PRISM.
 NBasis=   582 RedAO= T EigKep=  3.78D-04  NBF=   582
 NBsUse=   582 1.00D-06 EigRej= -1.00D+00 NBFU=   582
 Initial guess from the checkpoint file:  "conf-831.chk"
 B after Tr=     0.000000    0.000000    0.000000
         Rot=    1.000000    0.000000    0.000000    0.000000 Ang=   0.00 deg.
 Requested convergence on RMS density matrix=1.00D-08 within 128 cycles.
 Requested convergence on MAX density matrix=1.00D-06.
 Requested convergence on             energy=1.00D-06.
 No special actions if energy rises.
 SCF Done:  E(RB3LYP) =  -1582.21239556     A.U. after    1 cycles
            NFock=  1  Conv=0.48D-08     -V/T= 2.0095

 **********************************************************************

            Population analysis using the SCF Density.

 **********************************************************************

 Alpha  occ. eigenvalues --  -19.30512 -19.26600 -19.23745 -19.20176 -14.57129
 Alpha  occ. eigenvalues --  -14.48392 -14.48185 -14.47236 -14.46705 -14.45688
 Alpha  occ. eigenvalues --  -14.39806 -10.44522 -10.41487 -10.39630 -10.38433
 Alpha  occ. eigenvalues --  -10.38195 -10.35146 -10.33292 -10.33171 -10.33129
 Alpha  occ. eigenvalues --  -10.33084 -10.31769 -10.29762 -10.29754 -10.29696
 Alpha  occ. eigenvalues --  -10.28600 -10.28206 -10.28126 -10.27989 -10.27497
 Alpha  occ. eigenvalues --  -10.27237 -10.26691 -10.26265 -10.24426  -1.22093
 Alpha  occ. eigenvalues --   -1.16612  -1.13404  -1.12622  -1.11483  -1.09225
 Alpha  occ. eigenvalues --   -1.08318  -1.04651  -1.01881  -1.00495  -0.95688
 Alpha  occ. eigenvalues --   -0.93904  -0.92717  -0.90391  -0.90166  -0.87441
 Alpha  occ. eigenvalues --   -0.84752  -0.83158  -0.82878  -0.81848  -0.79975
 Alpha  occ. eigenvalues --   -0.78824  -0.78330  -0.73949  -0.72832  -0.72023
 Alpha  occ. eigenvalues --   -0.71969  -0.71765  -0.71020  -0.70313  -0.69471
 Alpha  occ. eigenvalues --   -0.69062  -0.67830  -0.66680  -0.66208  -0.65111
 Alpha  occ. eigenvalues --   -0.64113  -0.63470  -0.62585  -0.61984  -0.61825
 Alpha  occ. eigenvalues --   -0.61098  -0.58752  -0.58468  -0.58305  -0.57482
 Alpha  occ. eigenvalues --   -0.57194  -0.56640  -0.56578  -0.55414  -0.55312
 Alpha  occ. eigenvalues --   -0.54505  -0.53999  -0.53641  -0.53380  -0.52866
 Alpha  occ. eigenvalues --   -0.52523  -0.52231  -0.51844  -0.51326  -0.51187
 Alpha  occ. eigenvalues --   -0.50709  -0.50292  -0.49856  -0.49421  -0.49200
 Alpha  occ. eigenvalues --   -0.48801  -0.48271  -0.48009  -0.46220  -0.45897
 Alpha  occ. eigenvalues --   -0.45424  -0.45163  -0.44879  -0.44790  -0.43888
 Alpha  occ. eigenvalues --   -0.43416  -0.43146  -0.42874  -0.42178  -0.41046
 Alpha  occ. eigenvalues --   -0.40716  -0.40584  -0.39032  -0.38407  -0.37245
 Alpha  occ. eigenvalues --   -0.37158  -0.36609  -0.34622  -0.33951  -0.33850
 Alpha  occ. eigenvalues --   -0.32055  -0.30684
 Alpha virt. eigenvalues --   -0.12972  -0.11276  -0.10757  -0.07503  -0.07038
 Alpha virt. eigenvalues --   -0.06355  -0.05699  -0.04626  -0.04421  -0.02908
 Alpha virt. eigenvalues --   -0.01909  -0.01826  -0.01420  -0.01120  -0.00793
 Alpha virt. eigenvalues --   -0.00233   0.00478   0.00819   0.02414   0.02695
 Alpha virt. eigenvalues --    0.02987   0.03439   0.03565   0.03961   0.04497
 Alpha virt. eigenvalues --    0.04755   0.05054   0.05370   0.05550   0.05719
 Alpha virt. eigenvalues --    0.06274   0.06535   0.06808   0.07284   0.07841
 Alpha virt. eigenvalues --    0.08069   0.08313   0.08926   0.09137   0.09722
 Alpha virt. eigenvalues --    0.09818   0.09900   0.10530   0.11225   0.11732
 Alpha virt. eigenvalues --    0.11952   0.12077   0.12423   0.12664   0.13554
 Alpha virt. eigenvalues --    0.13865   0.13971   0.14249   0.14748   0.15417
 Alpha virt. eigenvalues --    0.16542   0.16658   0.17480   0.17692   0.17941
 Alpha virt. eigenvalues --    0.18942   0.19355   0.20652   0.21462   0.22077
 Alpha virt. eigenvalues --    0.22782   0.24096   0.24731   0.25795   0.25989
 Alpha virt. eigenvalues --    0.28060   0.28545   0.30231   0.31738   0.32678
 Alpha virt. eigenvalues --    0.33653   0.35498   0.37261   0.37746   0.39012
 Alpha virt. eigenvalues --    0.39463   0.40491   0.40650   0.40962   0.41640
 Alpha virt. eigenvalues --    0.42118   0.42769   0.43491   0.43876   0.44675
 Alpha virt. eigenvalues --    0.45342   0.45434   0.45798   0.45968   0.46741
 Alpha virt. eigenvalues --    0.47182   0.47709   0.48238   0.48569   0.48764
 Alpha virt. eigenvalues --    0.49102   0.49645   0.50432   0.50613   0.50687
 Alpha virt. eigenvalues --    0.51378   0.51704   0.51961   0.51990   0.52433
 Alpha virt. eigenvalues --    0.52736   0.53191   0.53587   0.54175   0.54706
 Alpha virt. eigenvalues --    0.54847   0.55158   0.55792   0.56518   0.56712
 Alpha virt. eigenvalues --    0.57234   0.57592   0.58341   0.58972   0.59388
 Alpha virt. eigenvalues --    0.60652   0.61069   0.61776   0.62342   0.63246
 Alpha virt. eigenvalues --    0.63677   0.63820   0.64946   0.65116   0.65777
 Alpha virt. eigenvalues --    0.66786   0.67344   0.68070   0.68350   0.69729
 Alpha virt. eigenvalues --    0.69965   0.70497   0.70780   0.71444   0.72045
 Alpha virt. eigenvalues --    0.72300   0.72636   0.73369   0.73757   0.74025
 Alpha virt. eigenvalues --    0.74311   0.75135   0.75589   0.75948   0.76408
 Alpha virt. eigenvalues --    0.76578   0.76657   0.77132   0.77320   0.77540
 Alpha virt. eigenvalues --    0.78234   0.78320   0.78435   0.78802   0.79348
 Alpha virt. eigenvalues --    0.80054   0.80494   0.80721   0.81753   0.82220
 Alpha virt. eigenvalues --    0.82589   0.82694   0.82938   0.83607   0.83806
 Alpha virt. eigenvalues --    0.84184   0.84531   0.84985   0.85561   0.86081
 Alpha virt. eigenvalues --    0.86151   0.86489   0.87305   0.87424   0.88036
 Alpha virt. eigenvalues --    0.88395   0.89197   0.89557   0.89981   0.90282
 Alpha virt. eigenvalues --    0.91013   0.91468   0.92561   0.92734   0.93100
 Alpha virt. eigenvalues --    0.93644   0.94488   0.95936   0.97001   0.97299
 Alpha virt. eigenvalues --    0.97711   0.98290   0.99436   1.00005   1.01700
 Alpha virt. eigenvalues --    1.02883   1.03120   1.04233   1.04813   1.05422
 Alpha virt. eigenvalues --    1.07193   1.08048   1.08794   1.09513   1.09841
 Alpha virt. eigenvalues --    1.11708   1.13347   1.14815   1.15574   1.15698
 Alpha virt. eigenvalues --    1.16072   1.18812   1.19815   1.19923   1.21042
 Alpha virt. eigenvalues --    1.22174   1.22975   1.23682   1.24337   1.25143
 Alpha virt. eigenvalues --    1.25713   1.26577   1.27528   1.28468   1.28745
 Alpha virt. eigenvalues --    1.29508   1.29845   1.30694   1.31991   1.32577
 Alpha virt. eigenvalues --    1.34663   1.35313   1.36005   1.36807   1.37574
 Alpha virt. eigenvalues --    1.37760   1.38974   1.40161   1.40548   1.41332
 Alpha virt. eigenvalues --    1.41532   1.42551   1.44801   1.45499   1.46326
 Alpha virt. eigenvalues --    1.48548   1.49944   1.50608   1.51540   1.51794
 Alpha virt. eigenvalues --    1.52879   1.53464   1.53866   1.55267   1.56438
 Alpha virt. eigenvalues --    1.58489   1.60098   1.60851   1.61494   1.62060
 Alpha virt. eigenvalues --    1.63019   1.63360   1.64039   1.64099   1.65360
 Alpha virt. eigenvalues --    1.65898   1.66566   1.68308   1.68821   1.68957
 Alpha virt. eigenvalues --    1.69740   1.70141   1.70691   1.70913   1.71896
 Alpha virt. eigenvalues --    1.72455   1.73317   1.74558   1.74868   1.75637
 Alpha virt. eigenvalues --    1.76079   1.77497   1.78245   1.79482   1.80268
 Alpha virt. eigenvalues --    1.80742   1.80919   1.81836   1.82264   1.82425
 Alpha virt. eigenvalues --    1.82963   1.84375   1.84870   1.86081   1.86652
 Alpha virt. eigenvalues --    1.86898   1.87320   1.87903   1.88792   1.89253
 Alpha virt. eigenvalues --    1.89862   1.90311   1.90732   1.91525   1.92385
 Alpha virt. eigenvalues --    1.93402   1.93597   1.93918   1.94949   1.95262
 Alpha virt. eigenvalues --    1.96352   1.97012   1.98104   1.98710   2.00047
 Alpha virt. eigenvalues --    2.00740   2.02317   2.02372   2.03232   2.04097
 Alpha virt. eigenvalues --    2.05222   2.05657   2.05708   2.07151   2.08097
 Alpha virt. eigenvalues --    2.08820   2.10324   2.12271   2.13314   2.14412
 Alpha virt. eigenvalues --    2.15274   2.15710   2.16443   2.17083   2.17365
 Alpha virt. eigenvalues --    2.18050   2.18606   2.19625   2.20604   2.21670
 Alpha virt. eigenvalues --    2.22408   2.22751   2.23440   2.24488   2.25422
 Alpha virt. eigenvalues --    2.26377   2.26841   2.27320   2.28082   2.29520
 Alpha virt. eigenvalues --    2.29731   2.31332   2.31409   2.32323   2.34128
 Alpha virt. eigenvalues --    2.34866   2.36542   2.36860   2.37943   2.39675
 Alpha virt. eigenvalues --    2.40258   2.40466   2.41635   2.42523   2.43905
 Alpha virt. eigenvalues --    2.45134   2.45626   2.46496   2.48560   2.48986
 Alpha virt. eigenvalues --    2.50113   2.50875   2.51297   2.53445   2.54680
 Alpha virt. eigenvalues --    2.55931   2.56771   2.57169   2.57329   2.58151
 Alpha virt. eigenvalues --    2.58929   2.59287   2.60872   2.62602   2.63392
 Alpha virt. eigenvalues --    2.64210   2.65034   2.65452   2.67968   2.68624
 Alpha virt. eigenvalues --    2.71283   2.72101   2.73326   2.75988   2.77504
 Alpha virt. eigenvalues --    2.81150   2.82562   2.84841   2.86222   2.88735
 Alpha virt. eigenvalues --    2.89960   2.90740   2.92642   2.94212   2.97336
 Alpha virt. eigenvalues --    2.97860   3.02819   3.06889   3.08730   3.14741
 Alpha virt. eigenvalues --    3.34642   3.71086   3.77391   3.80451   3.86698
 Alpha virt. eigenvalues --    3.87157   3.91582   3.92935   3.96535   4.00356
 Alpha virt. eigenvalues --    4.02815   4.05172   4.07941   4.08254   4.11734
 Alpha virt. eigenvalues --    4.14104   4.15895   4.16387   4.18592   4.23838
 Alpha virt. eigenvalues --    4.24129   4.26622   4.31046   4.32395   4.35064
 Alpha virt. eigenvalues --    4.35297   4.38741   4.42510   4.43647   4.45211
 Alpha virt. eigenvalues --    4.50396   4.59346   4.63341   4.68736   4.69596
          Condensed to atoms (all electrons):
 Mulliken charges:
               1
     1  N   -0.749129
     2  C   -0.113410
     3  C    0.658210
     4  O   -0.531010
     5  C   -0.397772
     6  C    0.001223
     7  C   -0.006488
     8  C    0.093873
     9  C    0.308999
    10  C   -0.217963
    11  N   -0.679849
    12  C   -0.154825
    13  C   -0.134991
    14  C   -0.147354
    15  H    0.419460
    16  H    0.227565
    17  H    0.178099
    18  H    0.195616
    19  H    0.169965
    20  H    0.347830
    21  H    0.129087
    22  H    0.149756
    23  H    0.150466
    24  H    0.155024
    25  H    0.424471
    26  H    0.399035
    27  N   -0.622035
    28  C   -0.021545
    29  C    0.610980
    30  O   -0.484805
    31  C   -0.080630
    32  C   -0.277275
    33  C   -0.492556
    34  C   -0.453215
    35  H    0.359551
    36  H    0.161917
    37  H    0.179021
    38  H    0.126718
    39  H    0.158436
    40  H    0.142966
    41  H    0.142112
    42  H    0.183046
    43  H    0.152395
    44  H    0.164301
    45  H    0.158629
    46  N   -0.619905
    47  C   -0.056788
    48  C    0.652270
    49  O   -0.532556
    50  C   -0.274662
    51  C   -0.296287
    52  C   -0.149536
    53  N   -0.573479
    54  C    0.534654
    55  N   -0.603268
    56  N   -0.803079
    57  O   -0.622353
    58  H    0.469445
    59  H    0.354144
    60  H    0.178930
    61  H    0.167439
    62  H    0.173195
    63  H    0.152439
    64  H    0.170874
    65  H    0.168029
    66  H    0.181757
    67  H    0.324199
    68  H    0.299828
    69  H    0.349767
    70  H    0.371047
 Sum of Mulliken charges =   1.00000
 Mulliken charges with hydrogens summed into heavy atoms:
               1
     1  N    0.493837
     2  C    0.114155
     3  C    0.658210
     4  O   -0.531010
     5  C   -0.024057
     6  C    0.001223
     7  C    0.163477
     8  C    0.093873
     9  C    0.308999
    10  C   -0.088877
    11  N   -0.332019
    12  C   -0.005069
    13  C    0.015475
    14  C    0.007670
    27  N   -0.262485
    28  C    0.140372
    29  C    0.610980
    30  O   -0.484805
    31  C    0.098391
    32  C    0.007880
    33  C   -0.024432
    34  C    0.022111
    46  N   -0.265761
    47  C    0.122142
    48  C    0.652270
    49  O   -0.532556
    50  C    0.065972
    51  C    0.027026
    52  C    0.200249
    53  N   -0.249280
    54  C    0.534654
    55  N   -0.303441
    56  N   -0.082265
    57  O   -0.152908
 Electronic spatial extent (au):  <R**2>=        8519695.0148
 Charge=              1.0000 electrons
 Dipole moment (field-independent basis, Debye):
    X=           -468.8517    Y=            -65.5563    Z=             26.3209  Tot=            474.1438
 Quadrupole moment (field-independent basis, Debye-Ang):
   XX=          45599.4110   YY=            710.2421   ZZ=              3.3155
   XY=           6422.8933   XZ=          -2543.1447   YZ=           -359.6681
 Traceless Quadrupole moment (field-independent basis, Debye-Ang):
   XX=          30161.7548   YY=         -14727.4141   ZZ=         -15434.3407
   XY=           6422.8933   XZ=          -2543.1447   YZ=           -359.6681
 Octapole moment (field-independent basis, Debye-Ang**2):
  XXX=       -4419824.3383  YYY=          -4426.4017  ZZZ=          -1037.5147  XYY=         -70378.0799
  XXY=        -626773.6858  XXZ=         244906.2184  XZZ=           -416.8880  YZZ=            -23.4035
  YYZ=           4088.9327  XYZ=          34855.0195
 Hexadecapole moment (field-independent basis, Debye-Ang**3):
 XXXX=      427019168.6977 YYYY=         -54771.2193 ZZZZ=         -22783.9944 XXXY=       60935992.6900
 XXXZ=      -23511342.9021 YYYX=         461265.4450 YYYZ=         -32499.3094 ZZZX=          95738.6009
 ZZZY=          14747.3199 XXYY=        6931744.0804 XXZZ=          41825.2307 YYZZ=          -5844.7390
 XXYZ=       -3365646.2328 YYXZ=        -399850.8383 ZZXY=           4182.0556
 N-N= 3.814496742557D+03 E-N=-1.128285675643D+04  KE= 1.567348862155D+03
 Unable to Open any file for archive entry.
 1\1\GINC-LAC-251\SP\RB3LYP\6-31G(d)\C23H36N7O4(1+)\KENGMITH\24-May-202
 2\0\\# B3LYP/6-31G* empiricaldispersion=gd3 guess=read geom=check nosy
 mm integral(ultrafinegrid)\\Candidate Structure: Conf:831 Charge calc 
 in gas phase\\1,1\N,0,-97.4716317417,-15.1467443205,4.1950684257\C,0,-
 96.6506465069,-14.8301939393,2.9601719149\C,0,-95.2085536271,-14.88427
 18726,3.516246376\O,0,-94.9349836192,-15.8578160041,4.2148549119\C,0,-
 97.1847594628,-13.5282044127,2.3430457259\C,0,-98.6485187532,-13.62794
 61321,2.0290999923\C,0,-99.674347413,-12.945052984,2.6471500264\C,0,-9
 9.2571339919,-14.4975515346,1.0504171094\C,0,-100.659526899,-14.286305
 4419,1.1276245547\C,0,-98.7546516074,-15.4210015911,0.1151533614\N,0,-
 100.8791596892,-13.3383481942,2.1108006328\C,0,-101.5647995293,-14.970
 9917942,0.310118926\C,0,-99.6493641103,-16.1026135441,-0.6981999398\C,
 0,-101.0396921137,-15.8806225041,-0.5991307636\H,0,-97.1873652484,-16.
 0614841429,4.5650136938\H,0,-96.7999531152,-15.6685921593,2.2751662576
 \H,0,-96.9984741839,-12.6958572477,3.0337169687\H,0,-96.6074897514,-13
 .3352947908,1.428708919\H,0,-99.6307895064,-12.1810421865,3.4122055679
 \H,0,-101.777266889,-12.945249638,2.3495798212\H,0,-97.6847948633,-15.
 5867443907,0.012455049\H,0,-102.6343730244,-14.7957338289,0.3798153315
 \H,0,-99.2769482634,-16.8142723556,-1.4286920506\H,0,-101.7126060805,-
 16.4283208861,-1.2517516173\H,0,-97.2258201921,-14.4531897245,4.942127
 8349\H,0,-98.4740591303,-15.1106563366,3.9727594825\N,0,-94.4172519663
 ,-13.8206058268,3.286020368\C,0,-93.3221829305,-13.3805330541,4.172475
 3966\C,0,-92.7058624126,-14.5809658817,4.9173031517\O,0,-91.9085223016
 ,-15.3115583139,4.3583836938\C,0,-92.2144211336,-12.6322580432,3.39666
 78338\C,0,-91.2161137994,-12.0263530742,4.4077539288\C,0,-92.800540210
 9,-11.5552346433,2.4710064976\C,0,-89.9215608662,-11.5092637109,3.7711
 440897\H,0,-94.8105296783,-13.0711251099,2.7348535688\H,0,-93.78512891
 18,-12.6897287205,4.8835110232\H,0,-91.6903644275,-13.3835310784,2.795
 4040522\H,0,-91.7133030502,-11.2123962429,4.9572249496\H,0,-90.9507991
 871,-12.7868317071,5.1520878039\H,0,-93.3888060031,-11.9835281073,1.65
 04925986\H,0,-93.4329858445,-10.8494684951,3.0275237687\H,0,-92.003182
 0838,-10.9753424539,1.9997317935\H,0,-90.1001912216,-10.6789898615,3.0
 799553635\H,0,-89.4161933768,-12.3081838026,3.2167829846\H,0,-89.23167
 35111,-11.1491439956,4.5413358534\N,0,-92.9898867979,-14.7571147594,6.
 2566228049\C,0,-93.9780307418,-14.1832511888,7.17785181\C,0,-95.422052
 9173,-14.334533405,6.657174209\O,0,-95.9260899809,-13.5372356919,5.867
 3142014\C,0,-93.6743206976,-12.7379495102,7.621792301\C,0,-94.65938149
 8,-12.1299621023,8.6394299649\C,0,-94.7394487722,-12.7925945044,10.027
 8072183\N,0,-95.3903792242,-14.1025686998,10.0259077058\C,0,-94.718374
 614,-15.3057943649,10.054146794\N,0,-93.5106419514,-15.581561207,10.36
 74962216\N,0,-95.5107976912,-16.37669106,9.5204453331\O,0,-96.14837663
 54,-15.3689442231,7.0621306819\H,0,-95.7658966119,-15.8816491471,7.847
 3632118\H,0,-92.5326352423,-15.5942705987,6.6004699249\H,0,-93.8736129
 848,-14.818616184,8.0528027601\H,0,-92.6589094082,-12.7433245828,8.035
 1845863\H,0,-93.6509016853,-12.0840037612,6.7457729783\H,0,-95.6663881
 583,-12.0935767565,8.200767839\H,0,-94.3680742003,-11.0840844603,8.796
 4831823\H,0,-93.7391827645,-12.9054597162,10.4556261037\H,0,-95.291703
 4793,-12.1350602066,10.7080409742\H,0,-96.310331952,-14.116882177,9.60
 37432624\H,0,-92.9780181899,-14.7659619949,10.6673356967\H,0,-96.42970
 02762,-16.4426186042,9.9595851061\H,0,-95.008550305,-17.248313544,9.68
 3556256\\Version=ES64L-G16RevC.01\HF=-1582.2123956\RMSD=4.753e-09\Dipo
 le=-3.6890767,0.8896775,1.4763695\Quadrupole=22424.5254536,-10949.4714
 283,-11475.0540254,4775.2637739,-1890.7657855,-267.4043843\PG=C01 [X(C
 23H36N7O4)]\\@
 The archive entry for this job was punched.


 IT'S WHAT A FELLER THINKS HE KNOWS THAT HURTS HIM...
                    ------
           KIN HUBBARD
 Job cpu time:       0 days  0 hours  1 minutes 46.5 seconds.
 Elapsed time:       0 days  0 hours  0 minutes 27.1 seconds.
 File lengths (MBytes):  RWF=    296 Int=      0 D2E=      0 Chk=     40 Scr=     16
 Normal termination of Gaussian 16 at Tue May 24 23:12:34 2022.
