 Entering Gaussian System, Link 0=/opt/software/Gaussian/g16-AVX-C.01/g16/g16
 Input=charge-conf-156.com
 Output=charge-conf-156.log
 Initial command:
 /opt/software/Gaussian/g16-AVX-C.01/g16/l1.exe "/mnt/gs18/scratch/users/kengmith/Gau-37574.inp" -scrdir="/mnt/gs18/scratch/users/kengmith/"
 Entering Link 1 = /opt/software/Gaussian/g16-AVX-C.01/g16/l1.exe PID=     37593.
  
 Copyright (c) 1988-2019, Gaussian, Inc.  All Rights Reserved.
  
 This is part of the Gaussian(R) 16 program.  It is based on
 the Gaussian(R) 09 system (copyright 2009, Gaussian, Inc.),
 the Gaussian(R) 03 system (copyright 2003, Gaussian, Inc.),
 the Gaussian(R) 98 system (copyright 1998, Gaussian, Inc.),
 the Gaussian(R) 94 system (copyright 1995, Gaussian, Inc.),
 the Gaussian 92(TM) system (copyright 1992, Gaussian, Inc.),
 the Gaussian 90(TM) system (copyright 1990, Gaussian, Inc.),
 the Gaussian 88(TM) system (copyright 1988, Gaussian, Inc.),
 the Gaussian 86(TM) system (copyright 1986, Carnegie Mellon
 University), and the Gaussian 82(TM) system (copyright 1983,
 Carnegie Mellon University). Gaussian is a federally registered
 trademark of Gaussian, Inc.
  
 This software contains proprietary and confidential information,
 including trade secrets, belonging to Gaussian, Inc.
  
 This software is provided under written license and may be
 used, copied, transmitted, or stored only in accord with that
 written license.
  
 The following legend is applicable only to US Government
 contracts under FAR:
  
                    RESTRICTED RIGHTS LEGEND
  
 Use, reproduction and disclosure by the US Government is
 subject to restrictions as set forth in subparagraphs (a)
 and (c) of the Commercial Computer Software - Restricted
 Rights clause in FAR 52.227-19.
  
 Gaussian, Inc.
 340 Quinnipiac St., Bldg. 40, Wallingford CT 06492
  
  
 ---------------------------------------------------------------
 Warning -- This program may not be used in any manner that
 competes with the business of Gaussian, Inc. or will provide
 assistance to any competitor of Gaussian, Inc.  The licensee
 of this program is prohibited from giving any competitor of
 Gaussian, Inc. access to this program.  By using this program,
 the user acknowledges that Gaussian, Inc. is engaged in the
 business of creating and licensing software in the field of
 computational chemistry and represents and warrants to the
 licensee that it is not a competitor of Gaussian, Inc. and that
 it will not use this program in any manner prohibited above.
 ---------------------------------------------------------------
  

 Cite this work as:
 Gaussian 16, Revision C.01,
 M. J. Frisch, G. W. Trucks, H. B. Schlegel, G. E. Scuseria, 
 M. A. Robb, J. R. Cheeseman, G. Scalmani, V. Barone, 
 G. A. Petersson, H. Nakatsuji, X. Li, M. Caricato, A. V. Marenich, 
 J. Bloino, B. G. Janesko, R. Gomperts, B. Mennucci, H. P. Hratchian, 
 J. V. Ortiz, A. F. Izmaylov, J. L. Sonnenberg, D. Williams-Young, 
 F. Ding, F. Lipparini, F. Egidi, J. Goings, B. Peng, A. Petrone, 
 T. Henderson, D. Ranasinghe, V. G. Zakrzewski, J. Gao, N. Rega, 
 G. Zheng, W. Liang, M. Hada, M. Ehara, K. Toyota, R. Fukuda, 
 J. Hasegawa, M. Ishida, T. Nakajima, Y. Honda, O. Kitao, H. Nakai, 
 T. Vreven, K. Throssell, J. A. Montgomery, Jr., J. E. Peralta, 
 F. Ogliaro, M. J. Bearpark, J. J. Heyd, E. N. Brothers, K. N. Kudin, 
 V. N. Staroverov, T. A. Keith, R. Kobayashi, J. Normand, 
 K. Raghavachari, A. P. Rendell, J. C. Burant, S. S. Iyengar, 
 J. Tomasi, M. Cossi, J. M. Millam, M. Klene, C. Adamo, R. Cammi, 
 J. W. Ochterski, R. L. Martin, K. Morokuma, O. Farkas, 
 J. B. Foresman, and D. J. Fox, Gaussian, Inc., Wallingford CT, 2019.
 
 ******************************************
 Gaussian 16:  ES64L-G16RevC.01  3-Jul-2019
                24-May-2022 
 ******************************************
 %mem=8gb
 %nproc=4
 Will use up to    4 processors via shared memory.
 %chk=conf-156.chk
 ----------------------------------------------------------------------
 # B3LYP/6-31G* empiricaldispersion=gd3 guess=read geom=check nosymm in
 tegral(ultrafinegrid)
 ----------------------------------------------------------------------
 1/29=2,38=1,172=1/1;
 2/12=2,15=1,40=1/2;
 3/5=1,6=6,7=1,11=2,14=-4,25=1,30=1,74=-5,75=-5,116=-2,124=31/1,2,3;
 4/5=1/1;
 5/5=2,38=6/2;
 6/7=2,8=2,9=2,10=2,28=1/1;
 99/5=1,9=1/99;
 ------------------------------------------------------
 Candidate Structure: Conf:156 Charge calc in gas phase
 ------------------------------------------------------
 Structure from the checkpoint file:  "conf-156.chk"
 Charge =  1 Multiplicity = 1
 Redundant internal coordinates found in file.  (old form).
 N,0,-94.4943674478,-12.088889008,5.5848971714
 C,0,-93.9060554456,-13.482573187,5.5517680883
 C,0,-94.2253698815,-14.0225442123,4.1387802797
 O,0,-93.9079895434,-13.3418916675,3.1693842566
 C,0,-94.3801037339,-14.257958793,6.7943814298
 C,0,-94.2134103134,-13.4396910577,8.0398823529
 C,0,-95.2294988993,-12.9645578539,8.8383075893
 C,0,-92.9802740645,-12.9063493944,8.5695932338
 C,0,-93.3278033862,-12.1175295745,9.7006907723
 C,0,-91.6238237141,-13.0210106571,8.2084372403
 N,0,-94.7029052656,-12.1748945966,9.8343575415
 C,0,-92.3694642713,-11.4449775417,10.4659255468
 C,0,-90.6705516343,-12.3515298297,8.9635159559
 C,0,-91.0409836476,-11.5705161975,10.0791114177
 H,0,-94.0998884142,-11.5586893601,6.3693015337
 H,0,-92.8229133629,-13.3393825257,5.5837328646
 H,0,-95.4356912516,-14.5246086754,6.6759463442
 H,0,-93.793724637,-15.1856763886,6.8424666989
 H,0,-96.2949075876,-13.1380370969,8.7675254244
 H,0,-95.2327901224,-11.7520239239,10.5818532641
 H,0,-91.3184209502,-13.6442627526,7.3711390238
 H,0,-92.6517942208,-10.8505398321,11.329904537
 H,0,-89.6205745354,-12.4355312777,8.7003197349
 H,0,-90.2705987932,-11.0625777396,10.6510396144
 H,0,-94.3100307265,-11.624453676,4.68576313
 H,0,-95.5282489076,-12.1643702291,5.70650576
 N,0,-94.9098119949,-15.184918123,4.0678996149
 C,0,-95.108720546,-15.9331986768,2.8178498973
 C,0,-95.8858093979,-15.1311131476,1.7403433156
 O,0,-95.55984521,-15.2008774931,0.5729196156
 C,0,-93.8041289645,-16.5460649605,2.235569376
 C,0,-94.1569332769,-17.7717502523,1.3601986182
 C,0,-92.8183822512,-16.9370340202,3.3464794262
 C,0,-93.036133604,-18.1764149221,0.3977415126
 H,0,-95.0221756003,-15.7129290102,4.9213853908
 H,0,-95.7725721855,-16.7592437389,3.1023236347
 H,0,-93.3440134196,-15.782532026,1.6002008906
 H,0,-94.4070028964,-18.614357793,2.0230387836
 H,0,-95.0512454816,-17.5520425079,0.7708201135
 H,0,-92.4285610415,-16.0685396853,3.888316717
 H,0,-93.2801591623,-17.6191196644,4.0736221877
 H,0,-91.9563875545,-17.45521024,2.9187113727
 H,0,-92.8102459013,-17.3567096744,-0.2934336132
 H,0,-93.335757396,-19.0440669326,-0.1990420771
 H,0,-92.1115777934,-18.4429899609,0.9215499899
 N,0,-97.0215836553,-14.3820828065,2.071906033
 C,0,-97.7636636439,-14.2674762974,3.3331068914
 C,0,-97.1070322412,-13.2014657686,4.2057962281
 O,0,-97.1094849605,-13.1671173493,5.4284970237
 C,0,-98.1486815064,-15.5590928704,4.0816129044
 C,0,-99.5582424753,-15.5250248102,4.7018675122
 C,0,-100.7395395007,-15.7049929785,3.7246763607
 N,0,-101.0858739696,-14.5318481883,2.9193245005
 C,0,-100.5856411298,-14.2981798662,1.6420406442
 N,0,-99.6760335827,-14.9681388092,1.0121045908
 N,0,-101.1456921153,-13.1838035889,1.0467717068
 O,0,-96.5193360175,-12.2123867456,3.5213507967
 H,0,-96.4306094586,-12.5194824851,2.5873217351
 H,0,-97.6520849167,-14.3231931147,1.2637505646
 H,0,-98.6955247402,-13.782496671,3.0292013767
 H,0,-98.088015178,-16.3936209462,3.3740823854
 H,0,-97.4192019669,-15.7545937348,4.8737316909
 H,0,-99.691912259,-14.5959448845,5.2692479055
 H,0,-99.6217646919,-16.3452703093,5.4276978763
 H,0,-100.5618940394,-16.5787643926,3.081111626
 H,0,-101.6280608105,-15.9451351151,4.3154769051
 H,0,-102.0312426107,-14.1949629871,3.0529502939
 H,0,-99.4938657963,-15.8659316342,1.4597305444
 H,0,-101.3364710554,-12.3799130357,1.6311557057
 H,0,-100.7461148527,-12.9634494029,0.143674955
 Recover connectivity data from disk.
                           ----------------------------
                           !    Current Parameters    !
                           ! (Angstroms and Degrees)  !
 --------------------------                            --------------------------
 ! Name  Definition              Value                                          !
 --------------------------------------------------------------------------------
 ! R1    R(1,2)                  1.5131                                         !
 ! R2    R(1,15)                 1.0257                                         !
 ! R3    R(1,25)                 1.0287                                         !
 ! R4    R(1,26)                 1.0437                                         !
 ! R5    R(2,3)                  1.546                                          !
 ! R6    R(2,5)                  1.5395                                         !
 ! R7    R(2,16)                 1.093                                          !
 ! R8    R(3,4)                  1.2263                                         !
 ! R9    R(3,27)                 1.3508                                         !
 ! R10   R(5,6)                  1.4995                                         !
 ! R11   R(5,17)                 1.0952                                         !
 ! R12   R(5,18)                 1.0986                                         !
 ! R13   R(6,7)                  1.3768                                         !
 ! R14   R(6,8)                  1.4442                                         !
 ! R15   R(7,11)                 1.3759                                         !
 ! R16   R(7,19)                 1.0818                                         !
 ! R17   R(8,9)                  1.4221                                         !
 ! R18   R(8,10)                 1.4084                                         !
 ! R19   R(9,11)                 1.3828                                         !
 ! R20   R(9,12)                 1.3987                                         !
 ! R21   R(10,13)                1.3882                                         !
 ! R22   R(10,21)                1.0876                                         !
 ! R23   R(11,20)                1.0091                                         !
 ! R24   R(12,14)                1.3893                                         !
 ! R25   R(12,22)                1.0861                                         !
 ! R26   R(13,14)                1.4113                                         !
 ! R27   R(13,23)                1.0857                                         !
 ! R28   R(14,24)                1.0856                                         !
 ! R29   R(27,28)                1.4704                                         !
 ! R30   R(27,35)                1.0099                                         !
 ! R31   R(28,29)                1.5518                                         !
 ! R32   R(28,31)                1.5545                                         !
 ! R33   R(28,36)                1.0973                                         !
 ! R34   R(29,30)                1.2141                                         !
 ! R35   R(29,46)                1.4003                                         !
 ! R36   R(31,32)                1.5469                                         !
 ! R37   R(31,33)                1.5358                                         !
 ! R38   R(31,37)                1.0947                                         !
 ! R39   R(32,34)                1.5318                                         !
 ! R40   R(32,38)                1.1009                                         !
 ! R41   R(32,39)                1.0934                                         !
 ! R42   R(33,40)                1.0954                                         !
 ! R43   R(33,41)                1.0987                                         !
 ! R44   R(33,42)                1.0929                                         !
 ! R45   R(34,43)                1.0957                                         !
 ! R46   R(34,44)                1.0949                                         !
 ! R47   R(34,45)                1.0956                                         !
 ! R48   R(46,47)                1.4678                                         !
 ! R49   R(46,59)                1.0267                                         !
 ! R50   R(47,48)                1.5261                                         !
 ! R51   R(47,50)                1.5417                                         !
 ! R52   R(47,60)                1.0936                                         !
 ! R53   R(48,49)                1.2232                                         !
 ! R54   R(48,57)                1.3387                                         !
 ! R55   R(50,51)                1.5404                                         !
 ! R56   R(50,61)                1.0958                                         !
 ! R57   R(50,62)                1.0944                                         !
 ! R58   R(51,52)                1.5436                                         !
 ! R59   R(51,63)                1.0968                                         !
 ! R60   R(51,64)                1.0971                                         !
 ! R61   R(52,53)                1.4645                                         !
 ! R62   R(52,65)                1.0996                                         !
 ! R63   R(52,66)                1.0937                                         !
 ! R64   R(53,54)                1.3915                                         !
 ! R65   R(53,67)                1.0125                                         !
 ! R66   R(54,55)                1.2935                                         !
 ! R67   R(54,56)                1.382                                          !
 ! R68   R(55,68)                1.0196                                         !
 ! R69   R(56,69)                1.012                                          !
 ! R70   R(56,70)                1.0118                                         !
 ! R71   R(57,58)                0.9872                                         !
 ! A1    A(2,1,15)             110.0798                                         !
 ! A2    A(2,1,25)             109.0896                                         !
 ! A3    A(2,1,26)             108.7278                                         !
 ! A4    A(15,1,25)            111.4791                                         !
 ! A5    A(15,1,26)            109.2231                                         !
 ! A6    A(25,1,26)            108.18                                           !
 ! A7    A(1,2,3)              105.1536                                         !
 ! A8    A(1,2,5)              109.057                                          !
 ! A9    A(1,2,16)             105.3066                                         !
 ! A10   A(3,2,5)              119.8813                                         !
 ! A11   A(3,2,16)             106.0908                                         !
 ! A12   A(5,2,16)             110.3354                                         !
 ! A13   A(2,3,4)              118.3718                                         !
 ! A14   A(2,3,27)             116.9475                                         !
 ! A15   A(4,3,27)             124.5622                                         !
 ! A16   A(2,5,6)              111.183                                          !
 ! A17   A(2,5,17)             109.3987                                         !
 ! A18   A(2,5,18)             107.236                                          !
 ! A19   A(6,5,17)             109.2584                                         !
 ! A20   A(6,5,18)             111.4156                                         !
 ! A21   A(17,5,18)            108.2764                                         !
 ! A22   A(5,6,7)              126.0102                                         !
 ! A23   A(5,6,8)              126.9479                                         !
 ! A24   A(7,6,8)              106.8578                                         !
 ! A25   A(6,7,11)             109.5983                                         !
 ! A26   A(6,7,19)             129.3125                                         !
 ! A27   A(11,7,19)            121.0888                                         !
 ! A28   A(6,8,9)              106.7331                                         !
 ! A29   A(6,8,10)             134.2872                                         !
 ! A30   A(9,8,10)             118.9786                                         !
 ! A31   A(8,9,11)             107.2711                                         !
 ! A32   A(8,9,12)             122.3053                                         !
 ! A33   A(11,9,12)            130.4234                                         !
 ! A34   A(8,10,13)            118.8576                                         !
 ! A35   A(8,10,21)            120.9668                                         !
 ! A36   A(13,10,21)           120.1526                                         !
 ! A37   A(7,11,9)             109.5387                                         !
 ! A38   A(7,11,20)            125.1547                                         !
 ! A39   A(9,11,20)            125.1974                                         !
 ! A40   A(9,12,14)            117.3476                                         !
 ! A41   A(9,12,22)            121.3525                                         !
 ! A42   A(14,12,22)           121.2997                                         !
 ! A43   A(10,13,14)           121.1051                                         !
 ! A44   A(10,13,23)           119.6648                                         !
 ! A45   A(14,13,23)           119.2274                                         !
 ! A46   A(12,14,13)           121.4039                                         !
 ! A47   A(12,14,24)           119.3134                                         !
 ! A48   A(13,14,24)           119.2814                                         !
 ! A49   A(3,27,28)            123.4402                                         !
 ! A50   A(3,27,35)            117.513                                          !
 ! A51   A(28,27,35)           115.9354                                         !
 ! A52   A(27,28,29)           113.2657                                         !
 ! A53   A(27,28,31)           113.9246                                         !
 ! A54   A(27,28,36)           104.1549                                         !
 ! A55   A(29,28,31)           111.3416                                         !
 ! A56   A(29,28,36)           105.4358                                         !
 ! A57   A(31,28,36)           107.9414                                         !
 ! A58   A(28,29,30)           120.2324                                         !
 ! A59   A(28,29,46)           121.212                                          !
 ! A60   A(30,29,46)           118.4355                                         !
 ! A61   A(28,31,32)           109.4466                                         !
 ! A62   A(28,31,33)           111.5964                                         !
 ! A63   A(28,31,37)           107.1667                                         !
 ! A64   A(32,31,33)           110.7321                                         !
 ! A65   A(32,31,37)           108.6663                                         !
 ! A66   A(33,31,37)           109.1239                                         !
 ! A67   A(31,32,34)           113.4531                                         !
 ! A68   A(31,32,38)           108.5145                                         !
 ! A69   A(31,32,39)           109.4123                                         !
 ! A70   A(34,32,38)           110.0193                                         !
 ! A71   A(34,32,39)           108.233                                          !
 ! A72   A(38,32,39)           107.0121                                         !
 ! A73   A(31,33,40)           112.6058                                         !
 ! A74   A(31,33,41)           111.5301                                         !
 ! A75   A(31,33,42)           110.1087                                         !
 ! A76   A(40,33,41)           108.3256                                         !
 ! A77   A(40,33,42)           106.7884                                         !
 ! A78   A(41,33,42)           107.2277                                         !
 ! A79   A(32,34,43)           110.46                                           !
 ! A80   A(32,34,44)           110.5855                                         !
 ! A81   A(32,34,45)           112.4181                                         !
 ! A82   A(43,34,44)           107.7837                                         !
 ! A83   A(43,34,45)           108.0377                                         !
 ! A84   A(44,34,45)           107.3814                                         !
 ! A85   A(29,46,47)           130.9396                                         !
 ! A86   A(29,46,59)           110.0224                                         !
 ! A87   A(47,46,59)           111.1857                                         !
 ! A88   A(46,47,48)           109.1687                                         !
 ! A89   A(46,47,50)           118.5562                                         !
 ! A90   A(46,47,60)           103.0999                                         !
 ! A91   A(48,47,50)           114.5208                                         !
 ! A92   A(48,47,60)           102.4606                                         !
 ! A93   A(50,47,60)           107.0773                                         !
 ! A94   A(47,48,49)           126.1818                                         !
 ! A95   A(47,48,57)           114.368                                          !
 ! A96   A(49,48,57)           119.4198                                         !
 ! A97   A(47,50,51)           113.9226                                         !
 ! A98   A(47,50,61)           108.1038                                         !
 ! A99   A(47,50,62)           109.5478                                         !
 ! A100  A(51,50,61)           109.1174                                         !
 ! A101  A(51,50,62)           108.8107                                         !
 ! A102  A(61,50,62)           107.1205                                         !
 ! A103  A(50,51,52)           116.2829                                         !
 ! A104  A(50,51,63)           109.789                                          !
 ! A105  A(50,51,64)           107.6284                                         !
 ! A106  A(52,51,63)           109.4494                                         !
 ! A107  A(52,51,64)           106.6988                                         !
 ! A108  A(63,51,64)           106.4999                                         !
 ! A109  A(51,52,53)           115.8302                                         !
 ! A110  A(51,52,65)           109.8467                                         !
 ! A111  A(51,52,66)           107.7789                                         !
 ! A112  A(53,52,65)           110.6634                                         !
 ! A113  A(53,52,66)           106.309                                          !
 ! A114  A(65,52,66)           105.8379                                         !
 ! A115  A(52,53,54)           123.6606                                         !
 ! A116  A(52,53,67)           114.5052                                         !
 ! A117  A(54,53,67)           113.6371                                         !
 ! A118  A(53,54,55)           127.797                                          !
 ! A119  A(53,54,56)           112.6503                                         !
 ! A120  A(55,54,56)           119.5299                                         !
 ! A121  A(54,55,68)           111.5869                                         !
 ! A122  A(54,56,69)           117.9182                                         !
 ! A123  A(54,56,70)           113.5796                                         !
 ! A124  A(69,56,70)           114.6361                                         !
 ! A125  A(48,57,58)           107.0589                                         !
 ! D1    D(15,1,2,3)          -163.4975                                         !
 ! D2    D(15,1,2,5)            66.7379                                         !
 ! D3    D(15,1,2,16)          -51.6691                                         !
 ! D4    D(25,1,2,3)           -40.8783                                         !
 ! D5    D(25,1,2,5)          -170.6428                                         !
 ! D6    D(25,1,2,16)           70.9501                                         !
 ! D7    D(26,1,2,3)            76.8931                                         !
 ! D8    D(26,1,2,5)           -52.8714                                         !
 ! D9    D(26,1,2,16)         -171.2785                                         !
 ! D10   D(1,2,3,4)             52.4567                                         !
 ! D11   D(1,2,3,27)          -123.7695                                         !
 ! D12   D(5,2,3,4)            175.5326                                         !
 ! D13   D(5,2,3,27)            -0.6936                                         !
 ! D14   D(16,2,3,4)           -58.8136                                         !
 ! D15   D(16,2,3,27)          124.9603                                         !
 ! D16   D(1,2,5,6)            -47.4881                                         !
 ! D17   D(1,2,5,17)            73.2744                                         !
 ! D18   D(1,2,5,18)          -169.5091                                         !
 ! D19   D(3,2,5,6)           -168.6499                                         !
 ! D20   D(3,2,5,17)           -47.8873                                         !
 ! D21   D(3,2,5,18)            69.3291                                         !
 ! D22   D(16,2,5,6)            67.7183                                         !
 ! D23   D(16,2,5,17)         -171.5191                                         !
 ! D24   D(16,2,5,18)          -54.3027                                         !
 ! D25   D(2,3,27,28)         -170.1782                                         !
 ! D26   D(2,3,27,35)          -10.9634                                         !
 ! D27   D(4,3,27,28)           13.8544                                         !
 ! D28   D(4,3,27,35)          173.0692                                         !
 ! D29   D(2,5,6,7)            114.1894                                         !
 ! D30   D(2,5,6,8)            -60.223                                          !
 ! D31   D(17,5,6,7)            -6.6557                                         !
 ! D32   D(17,5,6,8)           178.9319                                         !
 ! D33   D(18,5,6,7)          -126.2501                                         !
 ! D34   D(18,5,6,8)            59.3374                                         !
 ! D35   D(5,6,7,11)          -175.6285                                         !
 ! D36   D(5,6,7,19)             4.6207                                         !
 ! D37   D(8,6,7,11)            -0.2922                                         !
 ! D38   D(8,6,7,19)           179.9569                                         !
 ! D39   D(5,6,8,9)            175.5877                                         !
 ! D40   D(5,6,8,10)            -4.8255                                         !
 ! D41   D(7,6,8,9)              0.3083                                         !
 ! D42   D(7,6,8,10)           179.8951                                         !
 ! D43   D(6,7,11,9)             0.1641                                         !
 ! D44   D(6,7,11,20)         -176.1951                                         !
 ! D45   D(19,7,11,9)          179.9391                                         !
 ! D46   D(19,7,11,20)           3.5798                                         !
 ! D47   D(6,8,9,11)            -0.2117                                         !
 ! D48   D(6,8,9,12)           179.9506                                         !
 ! D49   D(10,8,9,11)         -179.8736                                         !
 ! D50   D(10,8,9,12)            0.2887                                         !
 ! D51   D(6,8,10,13)          179.9854                                         !
 ! D52   D(6,8,10,21)           -1.753                                          !
 ! D53   D(9,8,10,13)           -0.4669                                         !
 ! D54   D(9,8,10,21)          177.7947                                         !
 ! D55   D(8,9,11,7)             0.0369                                         !
 ! D56   D(8,9,11,20)          176.3942                                         !
 ! D57   D(12,9,11,7)          179.8567                                         !
 ! D58   D(12,9,11,20)          -3.7859                                         !
 ! D59   D(8,9,12,14)            0.1289                                         !
 ! D60   D(8,9,12,22)         -179.6958                                         !
 ! D61   D(11,9,12,14)        -179.6675                                         !
 ! D62   D(11,9,12,22)           0.5077                                         !
 ! D63   D(8,10,13,14)           0.2413                                         !
 ! D64   D(8,10,13,23)         179.6403                                         !
 ! D65   D(21,10,13,14)       -178.0348                                         !
 ! D66   D(21,10,13,23)          1.3642                                         !
 ! D67   D(9,12,14,13)          -0.3669                                         !
 ! D68   D(9,12,14,24)        -179.9454                                         !
 ! D69   D(22,12,14,13)        179.458                                          !
 ! D70   D(22,12,14,24)         -0.1205                                         !
 ! D71   D(10,13,14,12)          0.1883                                         !
 ! D72   D(10,13,14,24)        179.767                                          !
 ! D73   D(23,13,14,12)       -179.2133                                         !
 ! D74   D(23,13,14,24)          0.3654                                         !
 ! D75   D(3,27,28,29)         -60.9476                                         !
 ! D76   D(3,27,28,31)          67.6706                                         !
 ! D77   D(3,27,28,36)        -174.9783                                         !
 ! D78   D(35,27,28,29)        139.5384                                         !
 ! D79   D(35,27,28,31)        -91.8434                                         !
 ! D80   D(35,27,28,36)         25.5077                                         !
 ! D81   D(27,28,29,30)        140.391                                          !
 ! D82   D(27,28,29,46)        -43.6557                                         !
 ! D83   D(31,28,29,30)         10.4558                                         !
 ! D84   D(31,28,29,46)       -173.5909                                         !
 ! D85   D(36,28,29,30)       -106.3511                                         !
 ! D86   D(36,28,29,46)         69.6022                                         !
 ! D87   D(27,28,31,32)        154.8327                                         !
 ! D88   D(27,28,31,33)         31.9089                                         !
 ! D89   D(27,28,31,37)        -87.5015                                         !
 ! D90   D(29,28,31,32)        -75.5779                                         !
 ! D91   D(29,28,31,33)        161.4982                                         !
 ! D92   D(29,28,31,37)         42.0878                                         !
 ! D93   D(36,28,31,32)         39.6912                                         !
 ! D94   D(36,28,31,33)        -83.2326                                         !
 ! D95   D(36,28,31,37)        157.357                                          !
 ! D96   D(28,29,46,47)         -5.8949                                         !
 ! D97   D(28,29,46,59)       -151.513                                          !
 ! D98   D(30,29,46,47)        170.1292                                         !
 ! D99   D(30,29,46,59)         24.5111                                         !
 ! D100  D(28,31,32,34)        161.649                                          !
 ! D101  D(28,31,32,38)        -75.7479                                         !
 ! D102  D(28,31,32,39)         40.685                                          !
 ! D103  D(33,31,32,34)        -74.9153                                         !
 ! D104  D(33,31,32,38)         47.6877                                         !
 ! D105  D(33,31,32,39)        164.1207                                         !
 ! D106  D(37,31,32,34)         44.9269                                         !
 ! D107  D(37,31,32,38)        167.53                                           !
 ! D108  D(37,31,32,39)        -76.0371                                         !
 ! D109  D(28,31,33,40)        -66.6151                                         !
 ! D110  D(28,31,33,41)         55.4172                                         !
 ! D111  D(28,31,33,42)        174.3311                                         !
 ! D112  D(32,31,33,40)        171.1975                                         !
 ! D113  D(32,31,33,41)        -66.7702                                         !
 ! D114  D(32,31,33,42)         52.1437                                         !
 ! D115  D(37,31,33,40)         51.6298                                         !
 ! D116  D(37,31,33,41)        173.6621                                         !
 ! D117  D(37,31,33,42)        -67.424                                          !
 ! D118  D(31,32,34,43)        -60.6015                                         !
 ! D119  D(31,32,34,44)       -179.8337                                         !
 ! D120  D(31,32,34,45)         60.1571                                         !
 ! D121  D(38,32,34,43)        177.6312                                         !
 ! D122  D(38,32,34,44)         58.399                                          !
 ! D123  D(38,32,34,45)        -61.6101                                         !
 ! D124  D(39,32,34,43)         61.0238                                         !
 ! D125  D(39,32,34,44)        -58.2084                                         !
 ! D126  D(39,32,34,45)       -178.2176                                         !
 ! D127  D(29,46,47,48)         85.5702                                         !
 ! D128  D(29,46,47,50)        -48.0144                                         !
 ! D129  D(29,46,47,60)       -166.0429                                         !
 ! D130  D(59,46,47,48)       -129.1126                                         !
 ! D131  D(59,46,47,50)         97.3027                                         !
 ! D132  D(59,46,47,60)        -20.7258                                         !
 ! D133  D(46,47,48,49)       -151.2273                                         !
 ! D134  D(46,47,48,57)         30.8014                                         !
 ! D135  D(50,47,48,49)        -15.5988                                         !
 ! D136  D(50,47,48,57)        166.4299                                         !
 ! D137  D(60,47,48,49)         99.9549                                         !
 ! D138  D(60,47,48,57)        -78.0163                                         !
 ! D139  D(46,47,50,51)       -140.1628                                         !
 ! D140  D(46,47,50,61)        -18.6983                                         !
 ! D141  D(46,47,50,62)         97.7081                                         !
 ! D142  D(48,47,50,51)         88.6028                                         !
 ! D143  D(48,47,50,61)       -149.9327                                         !
 ! D144  D(48,47,50,62)        -33.5263                                         !
 ! D145  D(60,47,50,51)        -24.2417                                         !
 ! D146  D(60,47,50,61)         97.2228                                         !
 ! D147  D(60,47,50,62)       -146.3708                                         !
 ! D148  D(47,48,57,58)        -15.125                                          !
 ! D149  D(49,48,57,58)        166.7549                                         !
 ! D150  D(47,50,51,52)         76.0117                                         !
 ! D151  D(47,50,51,63)        -48.9038                                         !
 ! D152  D(47,50,51,64)       -164.4377                                         !
 ! D153  D(61,50,51,52)        -44.8889                                         !
 ! D154  D(61,50,51,63)       -169.8044                                         !
 ! D155  D(61,50,51,64)         74.6617                                         !
 ! D156  D(62,50,51,52)       -161.4541                                         !
 ! D157  D(62,50,51,63)         73.6304                                         !
 ! D158  D(62,50,51,64)        -41.9036                                         !
 ! D159  D(50,51,52,53)        -77.0947                                         !
 ! D160  D(50,51,52,65)         49.1706                                         !
 ! D161  D(50,51,52,66)        164.0331                                         !
 ! D162  D(63,51,52,53)         47.9937                                         !
 ! D163  D(63,51,52,65)        174.259                                          !
 ! D164  D(63,51,52,66)        -70.8785                                         !
 ! D165  D(64,51,52,53)        162.8533                                         !
 ! D166  D(64,51,52,65)        -70.8813                                         !
 ! D167  D(64,51,52,66)         43.9812                                         !
 ! D168  D(51,52,53,54)         93.436                                          !
 ! D169  D(51,52,53,67)       -120.1615                                         !
 ! D170  D(65,52,53,54)        -32.4154                                         !
 ! D171  D(65,52,53,67)        113.9871                                         !
 ! D172  D(66,52,53,54)       -146.8879                                         !
 ! D173  D(66,52,53,67)         -0.4854                                         !
 ! D174  D(52,53,54,55)         -6.7874                                         !
 ! D175  D(52,53,54,56)        174.977                                          !
 ! D176  D(67,53,54,55)       -153.4463                                         !
 ! D177  D(67,53,54,56)         28.3181                                         !
 ! D178  D(53,54,55,68)         14.2677                                         !
 ! D179  D(56,54,55,68)       -167.6038                                         !
 ! D180  D(53,54,56,69)         37.7542                                         !
 ! D181  D(53,54,56,70)        176.0001                                         !
 ! D182  D(55,54,56,69)       -140.6435                                         !
 ! D183  D(55,54,56,70)         -2.3976                                         !
 --------------------------------------------------------------------------------
 Symmetry turned off by external request.
 Stoichiometry    C23H36N7O4(1+)
 Framework group  C1[X(C23H36N7O4)]
 Deg. of freedom   204
 Full point group                 C1      NOp   1
                          Input orientation:                          
 ---------------------------------------------------------------------
 Center     Atomic      Atomic             Coordinates (Angstroms)
 Number     Number       Type             X           Y           Z
 ---------------------------------------------------------------------
      1          7           0      -94.494367  -12.088889    5.584897
      2          6           0      -93.906055  -13.482573    5.551768
      3          6           0      -94.225370  -14.022544    4.138780
      4          8           0      -93.907990  -13.341892    3.169384
      5          6           0      -94.380104  -14.257959    6.794381
      6          6           0      -94.213410  -13.439691    8.039882
      7          6           0      -95.229499  -12.964558    8.838308
      8          6           0      -92.980274  -12.906349    8.569593
      9          6           0      -93.327803  -12.117530    9.700691
     10          6           0      -91.623824  -13.021011    8.208437
     11          7           0      -94.702905  -12.174895    9.834358
     12          6           0      -92.369464  -11.444978   10.465926
     13          6           0      -90.670552  -12.351530    8.963516
     14          6           0      -91.040984  -11.570516   10.079111
     15          1           0      -94.099888  -11.558689    6.369302
     16          1           0      -92.822913  -13.339383    5.583733
     17          1           0      -95.435691  -14.524609    6.675946
     18          1           0      -93.793725  -15.185676    6.842467
     19          1           0      -96.294908  -13.138037    8.767525
     20          1           0      -95.232790  -11.752024   10.581853
     21          1           0      -91.318421  -13.644263    7.371139
     22          1           0      -92.651794  -10.850540   11.329905
     23          1           0      -89.620575  -12.435531    8.700320
     24          1           0      -90.270599  -11.062578   10.651040
     25          1           0      -94.310031  -11.624454    4.685763
     26          1           0      -95.528249  -12.164370    5.706506
     27          7           0      -94.909812  -15.184918    4.067900
     28          6           0      -95.108721  -15.933199    2.817850
     29          6           0      -95.885809  -15.131113    1.740343
     30          8           0      -95.559845  -15.200877    0.572920
     31          6           0      -93.804129  -16.546065    2.235569
     32          6           0      -94.156933  -17.771750    1.360199
     33          6           0      -92.818382  -16.937034    3.346479
     34          6           0      -93.036134  -18.176415    0.397742
     35          1           0      -95.022176  -15.712929    4.921385
     36          1           0      -95.772572  -16.759244    3.102324
     37          1           0      -93.344013  -15.782532    1.600201
     38          1           0      -94.407003  -18.614358    2.023039
     39          1           0      -95.051245  -17.552043    0.770820
     40          1           0      -92.428561  -16.068540    3.888317
     41          1           0      -93.280159  -17.619120    4.073622
     42          1           0      -91.956388  -17.455210    2.918711
     43          1           0      -92.810246  -17.356710   -0.293434
     44          1           0      -93.335757  -19.044067   -0.199042
     45          1           0      -92.111578  -18.442990    0.921550
     46          7           0      -97.021584  -14.382083    2.071906
     47          6           0      -97.763664  -14.267476    3.333107
     48          6           0      -97.107032  -13.201466    4.205796
     49          8           0      -97.109485  -13.167117    5.428497
     50          6           0      -98.148682  -15.559093    4.081613
     51          6           0      -99.558242  -15.525025    4.701868
     52          6           0     -100.739540  -15.704993    3.724676
     53          7           0     -101.085874  -14.531848    2.919325
     54          6           0     -100.585641  -14.298180    1.642041
     55          7           0      -99.676034  -14.968139    1.012105
     56          7           0     -101.145692  -13.183804    1.046772
     57          8           0      -96.519336  -12.212387    3.521351
     58          1           0      -96.430609  -12.519482    2.587322
     59          1           0      -97.652085  -14.323193    1.263751
     60          1           0      -98.695525  -13.782497    3.029201
     61          1           0      -98.088015  -16.393621    3.374082
     62          1           0      -97.419202  -15.754594    4.873732
     63          1           0      -99.691912  -14.595945    5.269248
     64          1           0      -99.621765  -16.345270    5.427698
     65          1           0     -100.561894  -16.578764    3.081112
     66          1           0     -101.628061  -15.945135    4.315477
     67          1           0     -102.031243  -14.194963    3.052950
     68          1           0      -99.493866  -15.865932    1.459731
     69          1           0     -101.336471  -12.379913    1.631156
     70          1           0     -100.746115  -12.963449    0.143675
 ---------------------------------------------------------------------
 Rotational constants (GHZ):           0.1715729           0.0693314           0.0549494
 Standard basis: 6-31G(d) (6D, 7F)
   582 basis functions,  1096 primitive gaussians,   582 cartesian basis functions
   127 alpha electrons      127 beta electrons
       nuclear repulsion energy      3839.6465085107 Hartrees.
 NAtoms=   70 NActive=   70 NUniq=   70 SFac= 1.00D+00 NAtFMM=   60 NAOKFM=T Big=T
 Integral buffers will be    131072 words long.
 Raffenetti 2 integral format.
 Two-electron integral symmetry is turned off.
 Nuclear repulsion after empirical dispersion term =     3839.5493817250 Hartrees.
 One-electron integrals computed using PRISM.
 NBasis=   582 RedAO= T EigKep=  3.78D-04  NBF=   582
 NBsUse=   582 1.00D-06 EigRej= -1.00D+00 NBFU=   582
 Initial guess from the checkpoint file:  "conf-156.chk"
 B after Tr=     0.000000    0.000000    0.000000
         Rot=    1.000000    0.000000    0.000000    0.000000 Ang=   0.00 deg.
 Requested convergence on RMS density matrix=1.00D-08 within 128 cycles.
 Requested convergence on MAX density matrix=1.00D-06.
 Requested convergence on             energy=1.00D-06.
 No special actions if energy rises.
 SCF Done:  E(RB3LYP) =  -1582.21176533     A.U. after    2 cycles
            NFock=  2  Conv=0.92D-08     -V/T= 2.0095

 **********************************************************************

            Population analysis using the SCF Density.

 **********************************************************************

 Alpha  occ. eigenvalues --  -19.32051 -19.27709 -19.25441 -19.22264 -14.58093
 Alpha  occ. eigenvalues --  -14.50099 -14.48617 -14.46387 -14.45034 -14.43303
 Alpha  occ. eigenvalues --  -14.38126 -10.45257 -10.42872 -10.39914 -10.39393
 Alpha  occ. eigenvalues --  -10.37935 -10.35799 -10.35010 -10.33322 -10.33131
 Alpha  occ. eigenvalues --  -10.32545 -10.32153 -10.30715 -10.29847 -10.29382
 Alpha  occ. eigenvalues --  -10.29062 -10.28713 -10.28511 -10.28210 -10.27880
 Alpha  occ. eigenvalues --  -10.27675 -10.26803 -10.25686 -10.23996  -1.23684
 Alpha  occ. eigenvalues --   -1.17912  -1.15085  -1.14405  -1.12723  -1.08560
 Alpha  occ. eigenvalues --   -1.07206  -1.06391  -1.02775  -0.98202  -0.94338
 Alpha  occ. eigenvalues --   -0.93486  -0.93218  -0.90639  -0.90393  -0.87955
 Alpha  occ. eigenvalues --   -0.84888  -0.83629  -0.83347  -0.82326  -0.79976
 Alpha  occ. eigenvalues --   -0.79291  -0.78623  -0.74028  -0.73473  -0.72761
 Alpha  occ. eigenvalues --   -0.72296  -0.72014  -0.71181  -0.70965  -0.69494
 Alpha  occ. eigenvalues --   -0.68725  -0.67374  -0.67215  -0.65448  -0.64987
 Alpha  occ. eigenvalues --   -0.64580  -0.64122  -0.63274  -0.62736  -0.62087
 Alpha  occ. eigenvalues --   -0.61150  -0.59511  -0.59161  -0.58429  -0.57398
 Alpha  occ. eigenvalues --   -0.56897  -0.56720  -0.56367  -0.56007  -0.55801
 Alpha  occ. eigenvalues --   -0.55503  -0.54322  -0.54169  -0.53470  -0.53349
 Alpha  occ. eigenvalues --   -0.52952  -0.52515  -0.52131  -0.51758  -0.51182
 Alpha  occ. eigenvalues --   -0.50984  -0.50767  -0.50214  -0.50004  -0.49450
 Alpha  occ. eigenvalues --   -0.48872  -0.48477  -0.47709  -0.46251  -0.46129
 Alpha  occ. eigenvalues --   -0.45870  -0.45377  -0.45185  -0.44897  -0.44590
 Alpha  occ. eigenvalues --   -0.43731  -0.43508  -0.43244  -0.42653  -0.41929
 Alpha  occ. eigenvalues --   -0.40699  -0.40343  -0.39389  -0.38804  -0.37746
 Alpha  occ. eigenvalues --   -0.36821  -0.35892  -0.35219  -0.34760  -0.32577
 Alpha  occ. eigenvalues --   -0.32427  -0.30963
 Alpha virt. eigenvalues --   -0.13136  -0.12682  -0.11329  -0.09936  -0.07445
 Alpha virt. eigenvalues --   -0.06734  -0.05370  -0.04748  -0.04530  -0.03480
 Alpha virt. eigenvalues --   -0.02650  -0.01809  -0.01536  -0.01259  -0.00721
 Alpha virt. eigenvalues --   -0.00555   0.01045   0.01165   0.01544   0.01909
 Alpha virt. eigenvalues --    0.02377   0.02700   0.02752   0.03564   0.04011
 Alpha virt. eigenvalues --    0.04351   0.05017   0.05263   0.05535   0.05670
 Alpha virt. eigenvalues --    0.06039   0.06507   0.06878   0.07311   0.07798
 Alpha virt. eigenvalues --    0.07954   0.08165   0.08962   0.09345   0.09513
 Alpha virt. eigenvalues --    0.09805   0.10185   0.10521   0.11090   0.11421
 Alpha virt. eigenvalues --    0.11815   0.12092   0.12446   0.12712   0.13248
 Alpha virt. eigenvalues --    0.13655   0.14138   0.14804   0.15133   0.15905
 Alpha virt. eigenvalues --    0.16168   0.16196   0.16883   0.17869   0.18477
 Alpha virt. eigenvalues --    0.19214   0.19549   0.20013   0.21307   0.21576
 Alpha virt. eigenvalues --    0.22401   0.24102   0.24569   0.25233   0.25606
 Alpha virt. eigenvalues --    0.26252   0.26405   0.28453   0.30207   0.32437
 Alpha virt. eigenvalues --    0.33164   0.34559   0.35400   0.36249   0.37519
 Alpha virt. eigenvalues --    0.39017   0.39553   0.40269   0.41221   0.41656
 Alpha virt. eigenvalues --    0.42549   0.42908   0.43354   0.43728   0.44029
 Alpha virt. eigenvalues --    0.44273   0.44738   0.45358   0.46138   0.46736
 Alpha virt. eigenvalues --    0.46892   0.47448   0.47598   0.48295   0.48585
 Alpha virt. eigenvalues --    0.49217   0.49633   0.49899   0.50541   0.50645
 Alpha virt. eigenvalues --    0.51086   0.51495   0.51979   0.52323   0.52674
 Alpha virt. eigenvalues --    0.53068   0.53125   0.53600   0.53937   0.54128
 Alpha virt. eigenvalues --    0.54939   0.55081   0.56183   0.56829   0.57042
 Alpha virt. eigenvalues --    0.57544   0.57949   0.58576   0.58665   0.59678
 Alpha virt. eigenvalues --    0.60123   0.60715   0.61440   0.61983   0.62967
 Alpha virt. eigenvalues --    0.63201   0.64017   0.64730   0.64903   0.66599
 Alpha virt. eigenvalues --    0.67111   0.67254   0.68093   0.68901   0.69085
 Alpha virt. eigenvalues --    0.70025   0.70140   0.70526   0.71112   0.71569
 Alpha virt. eigenvalues --    0.72265   0.72941   0.72991   0.73833   0.73892
 Alpha virt. eigenvalues --    0.74407   0.74705   0.74938   0.75176   0.75474
 Alpha virt. eigenvalues --    0.76256   0.76588   0.76897   0.77141   0.77571
 Alpha virt. eigenvalues --    0.77800   0.78550   0.78664   0.79243   0.79823
 Alpha virt. eigenvalues --    0.80602   0.80903   0.81057   0.81258   0.81859
 Alpha virt. eigenvalues --    0.82293   0.82651   0.83302   0.83595   0.84205
 Alpha virt. eigenvalues --    0.84398   0.84619   0.85238   0.85556   0.85925
 Alpha virt. eigenvalues --    0.85985   0.86405   0.86686   0.87750   0.88201
 Alpha virt. eigenvalues --    0.88484   0.88811   0.88925   0.89877   0.90446
 Alpha virt. eigenvalues --    0.91486   0.91855   0.92730   0.92951   0.93969
 Alpha virt. eigenvalues --    0.94422   0.94854   0.95206   0.95844   0.96938
 Alpha virt. eigenvalues --    0.97519   0.98056   0.98798   0.99953   1.00239
 Alpha virt. eigenvalues --    1.01444   1.02272   1.02882   1.03590   1.03771
 Alpha virt. eigenvalues --    1.05317   1.06596   1.08039   1.08739   1.09398
 Alpha virt. eigenvalues --    1.09762   1.10635   1.11348   1.13614   1.14675
 Alpha virt. eigenvalues --    1.15512   1.16598   1.17845   1.18068   1.19903
 Alpha virt. eigenvalues --    1.20389   1.21320   1.23189   1.23418   1.23695
 Alpha virt. eigenvalues --    1.25046   1.25156   1.26366   1.26985   1.28107
 Alpha virt. eigenvalues --    1.28391   1.29146   1.29698   1.30760   1.31638
 Alpha virt. eigenvalues --    1.31863   1.32886   1.34058   1.35476   1.36260
 Alpha virt. eigenvalues --    1.37136   1.38442   1.39475   1.39872   1.40108
 Alpha virt. eigenvalues --    1.41003   1.41620   1.44033   1.45656   1.46958
 Alpha virt. eigenvalues --    1.48295   1.49946   1.50374   1.50556   1.51236
 Alpha virt. eigenvalues --    1.52728   1.52949   1.54156   1.54816   1.56746
 Alpha virt. eigenvalues --    1.57811   1.58298   1.59343   1.61290   1.61800
 Alpha virt. eigenvalues --    1.62959   1.64501   1.65117   1.65441   1.66026
 Alpha virt. eigenvalues --    1.66511   1.67399   1.67616   1.68368   1.68490
 Alpha virt. eigenvalues --    1.69023   1.70318   1.70845   1.70914   1.71420
 Alpha virt. eigenvalues --    1.72278   1.73035   1.74002   1.74574   1.75344
 Alpha virt. eigenvalues --    1.75507   1.77118   1.77645   1.78748   1.79145
 Alpha virt. eigenvalues --    1.80141   1.80947   1.81609   1.82210   1.82276
 Alpha virt. eigenvalues --    1.84110   1.84585   1.84726   1.85462   1.86158
 Alpha virt. eigenvalues --    1.86843   1.87460   1.88080   1.88359   1.89188
 Alpha virt. eigenvalues --    1.89585   1.89903   1.90170   1.90738   1.91833
 Alpha virt. eigenvalues --    1.92408   1.93210   1.93667   1.93996   1.94241
 Alpha virt. eigenvalues --    1.95925   1.96691   1.97069   1.97764   1.99679
 Alpha virt. eigenvalues --    2.00430   2.02059   2.02475   2.03219   2.03745
 Alpha virt. eigenvalues --    2.04881   2.04990   2.06254   2.06734   2.07474
 Alpha virt. eigenvalues --    2.08376   2.09888   2.10574   2.10828   2.14112
 Alpha virt. eigenvalues --    2.15133   2.15292   2.15893   2.16896   2.17611
 Alpha virt. eigenvalues --    2.18010   2.18336   2.19217   2.21969   2.22374
 Alpha virt. eigenvalues --    2.22564   2.22691   2.23521   2.24069   2.24818
 Alpha virt. eigenvalues --    2.26456   2.28084   2.28867   2.29172   2.29503
 Alpha virt. eigenvalues --    2.30419   2.31186   2.33501   2.33920   2.35846
 Alpha virt. eigenvalues --    2.36532   2.38125   2.38560   2.39323   2.39931
 Alpha virt. eigenvalues --    2.40104   2.40222   2.42459   2.43546   2.44863
 Alpha virt. eigenvalues --    2.45230   2.45743   2.46619   2.47160   2.48637
 Alpha virt. eigenvalues --    2.48957   2.50464   2.50967   2.51543   2.52322
 Alpha virt. eigenvalues --    2.53362   2.55206   2.55719   2.56392   2.58139
 Alpha virt. eigenvalues --    2.58584   2.58842   2.59319   2.60292   2.62198
 Alpha virt. eigenvalues --    2.63380   2.63679   2.64618   2.67840   2.68255
 Alpha virt. eigenvalues --    2.69531   2.72163   2.72959   2.74760   2.77773
 Alpha virt. eigenvalues --    2.80419   2.82062   2.82642   2.86583   2.88179
 Alpha virt. eigenvalues --    2.89995   2.90775   2.91141   2.94003   2.97332
 Alpha virt. eigenvalues --    2.98135   3.02719   3.05491   3.07361   3.14584
 Alpha virt. eigenvalues --    3.34076   3.70919   3.71886   3.79844   3.85812
 Alpha virt. eigenvalues --    3.89472   3.92516   3.92962   3.95811   3.99871
 Alpha virt. eigenvalues --    4.00834   4.03109   4.06684   4.07562   4.09115
 Alpha virt. eigenvalues --    4.11494   4.13713   4.15485   4.19835   4.23344
 Alpha virt. eigenvalues --    4.24091   4.26903   4.28718   4.30805   4.33358
 Alpha virt. eigenvalues --    4.35226   4.38221   4.42149   4.44950   4.47253
 Alpha virt. eigenvalues --    4.48660   4.57606   4.62436   4.64073   4.69880
          Condensed to atoms (all electrons):
 Mulliken charges:
               1
     1  N   -0.749855
     2  C   -0.104611
     3  C    0.617416
     4  O   -0.513153
     5  C   -0.402885
     6  C   -0.001405
     7  C    0.005453
     8  C    0.072277
     9  C    0.310005
    10  C   -0.224407
    11  N   -0.679352
    12  C   -0.154387
    13  C   -0.134111
    14  C   -0.147898
    15  H    0.415062
    16  H    0.228911
    17  H    0.191506
    18  H    0.190033
    19  H    0.178865
    20  H    0.349102
    21  H    0.128037
    22  H    0.151940
    23  H    0.151033
    24  H    0.156630
    25  H    0.421162
    26  H    0.431924
    27  N   -0.623924
    28  C   -0.068832
    29  C    0.616964
    30  O   -0.447329
    31  C   -0.065313
    32  C   -0.269789
    33  C   -0.470999
    34  C   -0.455008
    35  H    0.362206
    36  H    0.174671
    37  H    0.178243
    38  H    0.125719
    39  H    0.164448
    40  H    0.129543
    41  H    0.132851
    42  H    0.182061
    43  H    0.165431
    44  H    0.160556
    45  H    0.147879
    46  N   -0.702215
    47  C   -0.051847
    48  C    0.637668
    49  O   -0.519984
    50  C   -0.286094
    51  C   -0.268060
    52  C   -0.154700
    53  N   -0.603399
    54  C    0.585774
    55  N   -0.672302
    56  N   -0.742500
    57  O   -0.588822
    58  H    0.456675
    59  H    0.387765
    60  H    0.224258
    61  H    0.159131
    62  H    0.144356
    63  H    0.162153
    64  H    0.158292
    65  H    0.161511
    66  H    0.172233
    67  H    0.341448
    68  H    0.286370
    69  H    0.331076
    70  H    0.354544
 Sum of Mulliken charges =   1.00000
 Mulliken charges with hydrogens summed into heavy atoms:
               1
     1  N    0.518293
     2  C    0.124300
     3  C    0.617416
     4  O   -0.513153
     5  C   -0.021346
     6  C   -0.001405
     7  C    0.184318
     8  C    0.072277
     9  C    0.310005
    10  C   -0.096369
    11  N   -0.330250
    12  C   -0.002447
    13  C    0.016922
    14  C    0.008732
    27  N   -0.261718
    28  C    0.105839
    29  C    0.616964
    30  O   -0.447329
    31  C    0.112930
    32  C    0.020378
    33  C   -0.026544
    34  C    0.018859
    46  N   -0.314451
    47  C    0.172410
    48  C    0.637668
    49  O   -0.519984
    50  C    0.017392
    51  C    0.052384
    52  C    0.179043
    53  N   -0.261950
    54  C    0.585774
    55  N   -0.385932
    56  N   -0.056880
    57  O   -0.132147
 Electronic spatial extent (au):  <R**2>=        8517192.4175
 Charge=              1.0000 electrons
 Dipole moment (field-independent basis, Debye):
    X=           -462.5841    Y=            -64.3490    Z=             30.0663  Tot=            468.0051
 Quadrupole moment (field-independent basis, Debye-Ang):
   XX=          44409.4558   YY=            693.7330   ZZ=              2.6253
   XY=           6203.3544   XZ=          -2871.4739   YZ=           -390.3744
 Traceless Quadrupole moment (field-independent basis, Debye-Ang):
   XX=          29374.1844   YY=         -14341.5383   ZZ=         -15032.6461
   XY=           6203.3544   XZ=          -2871.4739   YZ=           -390.3744
 Octapole moment (field-independent basis, Debye-Ang**2):
  XXX=       -4250322.5544  YYY=          -4334.6187  ZZZ=          -1154.5294  XYY=         -67105.1270
  XXY=        -595956.1104  XXZ=         273598.0415  XZZ=           -115.1521  YZZ=            395.3584
  YYZ=           4272.6781  XYZ=          37384.3625
 Hexadecapole moment (field-independent basis, Debye-Ang**3):
 XXXX=      405550309.0859 YYYY=         -55219.6403 ZZZZ=         -22025.8121 XXXY=       57061537.2603
 XXXZ=      -26010271.5173 YYYX=         425819.9511 YYYZ=         -33815.7331 ZZZX=         109205.0221
 ZZZY=          18894.0109 XXYY=        6458742.8157 XXZZ=          -8289.0782 YYZZ=         -17197.3394
 XXYZ=       -3571485.3454 YYXZ=        -411635.4919 ZZXY=         -38945.5813
 N-N= 3.839549381725D+03 E-N=-1.133222136819D+04  KE= 1.567336682239D+03
 Unable to Open any file for archive entry.
 1\1\GINC-QML-002\SP\RB3LYP\6-31G(d)\C23H36N7O4(1+)\KENGMITH\24-May-202
 2\0\\# B3LYP/6-31G* empiricaldispersion=gd3 guess=read geom=check nosy
 mm integral(ultrafinegrid)\\Candidate Structure: Conf:156 Charge calc 
 in gas phase\\1,1\N,0,-94.4943674478,-12.088889008,5.5848971714\C,0,-9
 3.9060554456,-13.482573187,5.5517680883\C,0,-94.2253698815,-14.0225442
 123,4.1387802797\O,0,-93.9079895434,-13.3418916675,3.1693842566\C,0,-9
 4.3801037339,-14.257958793,6.7943814298\C,0,-94.2134103134,-13.4396910
 577,8.0398823529\C,0,-95.2294988993,-12.9645578539,8.8383075893\C,0,-9
 2.9802740645,-12.9063493944,8.5695932338\C,0,-93.3278033862,-12.117529
 5745,9.7006907723\C,0,-91.6238237141,-13.0210106571,8.2084372403\N,0,-
 94.7029052656,-12.1748945966,9.8343575415\C,0,-92.3694642713,-11.44497
 75417,10.4659255468\C,0,-90.6705516343,-12.3515298297,8.9635159559\C,0
 ,-91.0409836476,-11.5705161975,10.0791114177\H,0,-94.0998884142,-11.55
 86893601,6.3693015337\H,0,-92.8229133629,-13.3393825257,5.5837328646\H
 ,0,-95.4356912516,-14.5246086754,6.6759463442\H,0,-93.793724637,-15.18
 56763886,6.8424666989\H,0,-96.2949075876,-13.1380370969,8.7675254244\H
 ,0,-95.2327901224,-11.7520239239,10.5818532641\H,0,-91.3184209502,-13.
 6442627526,7.3711390238\H,0,-92.6517942208,-10.8505398321,11.329904537
 \H,0,-89.6205745354,-12.4355312777,8.7003197349\H,0,-90.2705987932,-11
 .0625777396,10.6510396144\H,0,-94.3100307265,-11.624453676,4.68576313\
 H,0,-95.5282489076,-12.1643702291,5.70650576\N,0,-94.9098119949,-15.18
 4918123,4.0678996149\C,0,-95.108720546,-15.9331986768,2.8178498973\C,0
 ,-95.8858093979,-15.1311131476,1.7403433156\O,0,-95.55984521,-15.20087
 74931,0.5729196156\C,0,-93.8041289645,-16.5460649605,2.235569376\C,0,-
 94.1569332769,-17.7717502523,1.3601986182\C,0,-92.8183822512,-16.93703
 40202,3.3464794262\C,0,-93.036133604,-18.1764149221,0.3977415126\H,0,-
 95.0221756003,-15.7129290102,4.9213853908\H,0,-95.7725721855,-16.75924
 37389,3.1023236347\H,0,-93.3440134196,-15.782532026,1.6002008906\H,0,-
 94.4070028964,-18.614357793,2.0230387836\H,0,-95.0512454816,-17.552042
 5079,0.7708201135\H,0,-92.4285610415,-16.0685396853,3.888316717\H,0,-9
 3.2801591623,-17.6191196644,4.0736221877\H,0,-91.9563875545,-17.455210
 24,2.9187113727\H,0,-92.8102459013,-17.3567096744,-0.2934336132\H,0,-9
 3.335757396,-19.0440669326,-0.1990420771\H,0,-92.1115777934,-18.442989
 9609,0.9215499899\N,0,-97.0215836553,-14.3820828065,2.071906033\C,0,-9
 7.7636636439,-14.2674762974,3.3331068914\C,0,-97.1070322412,-13.201465
 7686,4.2057962281\O,0,-97.1094849605,-13.1671173493,5.4284970237\C,0,-
 98.1486815064,-15.5590928704,4.0816129044\C,0,-99.5582424753,-15.52502
 48102,4.7018675122\C,0,-100.7395395007,-15.7049929785,3.7246763607\N,0
 ,-101.0858739696,-14.5318481883,2.9193245005\C,0,-100.5856411298,-14.2
 981798662,1.6420406442\N,0,-99.6760335827,-14.9681388092,1.0121045908\
 N,0,-101.1456921153,-13.1838035889,1.0467717068\O,0,-96.5193360175,-12
 .2123867456,3.5213507967\H,0,-96.4306094586,-12.5194824851,2.587321735
 1\H,0,-97.6520849167,-14.3231931147,1.2637505646\H,0,-98.6955247402,-1
 3.782496671,3.0292013767\H,0,-98.088015178,-16.3936209462,3.3740823854
 \H,0,-97.4192019669,-15.7545937348,4.8737316909\H,0,-99.691912259,-14.
 5959448845,5.2692479055\H,0,-99.6217646919,-16.3452703093,5.4276978763
 \H,0,-100.5618940394,-16.5787643926,3.081111626\H,0,-101.6280608105,-1
 5.9451351151,4.3154769051\H,0,-102.0312426107,-14.1949629871,3.0529502
 939\H,0,-99.4938657963,-15.8659316342,1.4597305444\H,0,-101.3364710554
 ,-12.3799130357,1.6311557057\H,0,-100.7461148527,-12.9634494029,0.1436
 74955\\Version=ES64L-G16RevC.01\HF=-1582.2117653\RMSD=9.153e-09\Dipole
 =-1.2744743,1.5402113,3.0737939\Quadrupole=21838.9861511,-10662.582246
 7,-11176.4039044,4612.0419875,-2134.8704767,-290.233808\PG=C01 [X(C23H
 36N7O4)]\\@
 The archive entry for this job was punched.


 SOME THINGS ARE EASY, THEY ARE ONLY HARD TO DO.
            -- A. EINSTEIN TO J. O. HIRSCHFELDER
 THE ONLY TROUBLE WITH A SURE THING IS THE UNCERTAINTY.
     -- FROM A TEABAG (BELONGING TO W.H.?)
 Job cpu time:       0 days  0 hours  4 minutes 10.3 seconds.
 Elapsed time:       0 days  0 hours  1 minutes  3.1 seconds.
 File lengths (MBytes):  RWF=    296 Int=      0 D2E=      0 Chk=     40 Scr=     16
 Normal termination of Gaussian 16 at Tue May 24 23:13:10 2022.
