 Entering Gaussian System, Link 0=/opt/software/Gaussian/g16-AVX2-C.01/g16/g16
 Input=charge-conf-772.com
 Output=charge-conf-772.log
 Initial command:
 /opt/software/Gaussian/g16-AVX2-C.01/g16/l1.exe "/mnt/gs18/scratch/users/kengmith/Gau-490.inp" -scrdir="/mnt/gs18/scratch/users/kengmith/"
 Entering Link 1 = /opt/software/Gaussian/g16-AVX2-C.01/g16/l1.exe PID=       501.
  
 Copyright (c) 1988-2019, Gaussian, Inc.  All Rights Reserved.
  
 This is part of the Gaussian(R) 16 program.  It is based on
 the Gaussian(R) 09 system (copyright 2009, Gaussian, Inc.),
 the Gaussian(R) 03 system (copyright 2003, Gaussian, Inc.),
 the Gaussian(R) 98 system (copyright 1998, Gaussian, Inc.),
 the Gaussian(R) 94 system (copyright 1995, Gaussian, Inc.),
 the Gaussian 92(TM) system (copyright 1992, Gaussian, Inc.),
 the Gaussian 90(TM) system (copyright 1990, Gaussian, Inc.),
 the Gaussian 88(TM) system (copyright 1988, Gaussian, Inc.),
 the Gaussian 86(TM) system (copyright 1986, Carnegie Mellon
 University), and the Gaussian 82(TM) system (copyright 1983,
 Carnegie Mellon University). Gaussian is a federally registered
 trademark of Gaussian, Inc.
  
 This software contains proprietary and confidential information,
 including trade secrets, belonging to Gaussian, Inc.
  
 This software is provided under written license and may be
 used, copied, transmitted, or stored only in accord with that
 written license.
  
 The following legend is applicable only to US Government
 contracts under FAR:
  
                    RESTRICTED RIGHTS LEGEND
  
 Use, reproduction and disclosure by the US Government is
 subject to restrictions as set forth in subparagraphs (a)
 and (c) of the Commercial Computer Software - Restricted
 Rights clause in FAR 52.227-19.
  
 Gaussian, Inc.
 340 Quinnipiac St., Bldg. 40, Wallingford CT 06492
  
  
 ---------------------------------------------------------------
 Warning -- This program may not be used in any manner that
 competes with the business of Gaussian, Inc. or will provide
 assistance to any competitor of Gaussian, Inc.  The licensee
 of this program is prohibited from giving any competitor of
 Gaussian, Inc. access to this program.  By using this program,
 the user acknowledges that Gaussian, Inc. is engaged in the
 business of creating and licensing software in the field of
 computational chemistry and represents and warrants to the
 licensee that it is not a competitor of Gaussian, Inc. and that
 it will not use this program in any manner prohibited above.
 ---------------------------------------------------------------
  

 Cite this work as:
 Gaussian 16, Revision C.01,
 M. J. Frisch, G. W. Trucks, H. B. Schlegel, G. E. Scuseria, 
 M. A. Robb, J. R. Cheeseman, G. Scalmani, V. Barone, 
 G. A. Petersson, H. Nakatsuji, X. Li, M. Caricato, A. V. Marenich, 
 J. Bloino, B. G. Janesko, R. Gomperts, B. Mennucci, H. P. Hratchian, 
 J. V. Ortiz, A. F. Izmaylov, J. L. Sonnenberg, D. Williams-Young, 
 F. Ding, F. Lipparini, F. Egidi, J. Goings, B. Peng, A. Petrone, 
 T. Henderson, D. Ranasinghe, V. G. Zakrzewski, J. Gao, N. Rega, 
 G. Zheng, W. Liang, M. Hada, M. Ehara, K. Toyota, R. Fukuda, 
 J. Hasegawa, M. Ishida, T. Nakajima, Y. Honda, O. Kitao, H. Nakai, 
 T. Vreven, K. Throssell, J. A. Montgomery, Jr., J. E. Peralta, 
 F. Ogliaro, M. J. Bearpark, J. J. Heyd, E. N. Brothers, K. N. Kudin, 
 V. N. Staroverov, T. A. Keith, R. Kobayashi, J. Normand, 
 K. Raghavachari, A. P. Rendell, J. C. Burant, S. S. Iyengar, 
 J. Tomasi, M. Cossi, J. M. Millam, M. Klene, C. Adamo, R. Cammi, 
 J. W. Ochterski, R. L. Martin, K. Morokuma, O. Farkas, 
 J. B. Foresman, and D. J. Fox, Gaussian, Inc., Wallingford CT, 2019.
 
 ******************************************
 Gaussian 16:  ES64L-G16RevC.01  3-Jul-2019
                24-May-2022 
 ******************************************
 %mem=8gb
 %nproc=4
 Will use up to    4 processors via shared memory.
 %chk=conf-772.chk
 ----------------------------------------------------------------------
 # B3LYP/6-31G* empiricaldispersion=gd3 guess=read geom=check nosymm in
 tegral(ultrafinegrid)
 ----------------------------------------------------------------------
 1/29=2,38=1,172=1/1;
 2/12=2,15=1,40=1/2;
 3/5=1,6=6,7=1,11=2,14=-4,25=1,30=1,74=-5,75=-5,116=-2,124=31/1,2,3;
 4/5=1/1;
 5/5=2,38=6/2;
 6/7=2,8=2,9=2,10=2,28=1/1;
 99/5=1,9=1/99;
 ------------------------------------------------------
 Candidate Structure: Conf:772 Charge calc in gas phase
 ------------------------------------------------------
 Structure from the checkpoint file:  "conf-772.chk"
 Charge =  1 Multiplicity = 1
 Redundant internal coordinates found in file.  (old form).
 N,0,-95.9232646245,-14.0657441462,2.2802489127
 C,0,-96.4232325244,-15.1573902527,3.1965861078
 C,0,-97.1820674929,-14.3762330214,4.2907563096
 O,0,-97.8478945103,-13.4066753404,3.9342051958
 C,0,-95.2577724239,-16.0805279334,3.5935094543
 C,0,-94.4557836452,-16.4973093183,2.3967320432
 C,0,-93.1489068742,-16.1547815724,2.1321100024
 C,0,-94.9265919841,-17.2531833615,1.2595814347
 C,0,-93.8435313554,-17.3339994895,0.3422021121
 C,0,-96.1467748871,-17.8740529905,0.930758675
 N,0,-92.7784941977,-16.6541655955,0.9038663045
 C,0,-93.9482597064,-18.0034053233,-0.8814903514
 C,0,-96.2553881522,-18.5371642985,-0.2839083937
 C,0,-95.167393165,-18.5985979036,-1.1807741077
 H,0,-96.7112426318,-13.4273685022,2.1009844709
 H,0,-97.1643330444,-15.7133421181,2.6144628684
 H,0,-94.62066037,-15.559299629,4.3137402596
 H,0,-95.6928348658,-16.9571777493,4.0933449597
 H,0,-92.4497673686,-15.5955989823,2.7392478661
 H,0,-91.8547169001,-16.5881409156,0.5034484264
 H,0,-96.9855065213,-17.8598730623,1.6228516899
 H,0,-93.1094017104,-18.0587459142,-1.5691452716
 H,0,-97.1885528195,-19.0251049566,-0.548388171
 H,0,-95.2839220712,-19.1276383613,-2.1216241586
 H,0,-95.1977369795,-13.5274386121,2.8071040329
 H,0,-95.5327159379,-14.4585458227,1.4181679317
 N,0,-97.0300874833,-14.7877476839,5.5616447718
 C,0,-97.7368997782,-14.2091680836,6.7129371751
 C,0,-97.8592546735,-12.6694055721,6.5807729995
 O,0,-98.9513789641,-12.1311173289,6.6067146147
 C,0,-99.1186322575,-14.8616455354,6.9695938323
 C,0,-99.5895310779,-14.5332183506,8.4038129096
 C,0,-99.0629566713,-16.3791131061,6.7389005131
 C,0,-101.0816465797,-14.7936199131,8.6348162775
 H,0,-96.5025157313,-15.6313035151,5.7321152376
 H,0,-97.0973164405,-14.4169101795,7.5787900604
 H,0,-99.8214160597,-14.4128309452,6.2593091751
 H,0,-98.991570755,-15.124173584,9.1146148941
 H,0,-99.3897827557,-13.4791165606,8.61736169
 H,0,-98.8454725664,-16.6326711348,5.6957635129
 H,0,-98.301863577,-16.8534226215,7.3747939027
 H,0,-100.0230729074,-16.8389118812,6.9863355091
 H,0,-101.3497012952,-15.84539392,8.48681194
 H,0,-101.6874736131,-14.1895255012,7.9500243164
 H,0,-101.3656402911,-14.5249933753,9.6576290172
 N,0,-96.735232362,-11.8616620022,6.5154206417
 C,0,-95.2741748114,-11.9988696482,6.5287781671
 C,0,-94.7501090198,-12.0592195555,5.076930503
 O,0,-94.6797046847,-13.1238560826,4.4652275537
 C,0,-94.6894383503,-13.13076931,7.3827685095
 C,0,-93.1479628248,-13.1617842997,7.4453960794
 C,0,-92.4323998953,-11.9343511051,8.0421721564
 N,0,-92.433411745,-10.7657101858,7.1640088584
 C,0,-93.2468227761,-9.6634778805,7.3326762583
 N,0,-93.9021404797,-9.25922072,8.3517324631
 N,0,-93.4569234051,-8.9574451705,6.1027201825
 O,0,-94.4100726155,-10.9371158474,4.471060573
 H,0,-94.2818913777,-10.1432448139,5.0854579025
 H,0,-97.0450951174,-10.8971669981,6.4628796856
 H,0,-94.9513117838,-11.0591339511,6.971059677
 H,0,-95.1047124269,-13.0343189183,8.3928778426
 H,0,-95.0142414024,-14.0915055213,6.9772769736
 H,0,-92.7473332853,-13.3533140265,6.4399935885
 H,0,-92.8621071546,-14.0319625811,8.0490930927
 H,0,-92.8911633325,-11.6517458632,8.9939648749
 H,0,-91.3940807034,-12.201551555,8.267861116
 H,0,-92.1127013858,-10.9432775301,6.2204402397
 H,0,-93.7653768693,-9.8428646019,9.1758916606
 H,0,-92.5863722698,-8.7263410292,5.6229473245
 H,0,-93.9508889995,-8.0922357278,6.3168137732
 Recover connectivity data from disk.
                           ----------------------------
                           !    Current Parameters    !
                           ! (Angstroms and Degrees)  !
 --------------------------                            --------------------------
 ! Name  Definition              Value                                          !
 --------------------------------------------------------------------------------
 ! R1    R(1,2)                  1.5104                                         !
 ! R2    R(1,15)                 1.0298                                         !
 ! R3    R(1,25)                 1.0458                                         !
 ! R4    R(1,26)                 1.0247                                         !
 ! R5    R(2,3)                  1.5438                                         !
 ! R6    R(2,5)                  1.5388                                         !
 ! R7    R(2,16)                 1.0942                                         !
 ! R8    R(3,4)                  1.229                                          !
 ! R9    R(3,27)                 1.3445                                         !
 ! R10   R(5,6)                  1.4997                                         !
 ! R11   R(5,17)                 1.0938                                         !
 ! R12   R(5,18)                 1.0989                                         !
 ! R13   R(6,7)                  1.3767                                         !
 ! R14   R(6,8)                  1.4443                                         !
 ! R15   R(7,11)                 1.3767                                         !
 ! R16   R(7,19)                 1.0817                                         !
 ! R17   R(8,9)                  1.4217                                         !
 ! R18   R(8,10)                 1.408                                          !
 ! R19   R(9,11)                 1.3827                                         !
 ! R20   R(9,12)                 1.3987                                         !
 ! R21   R(10,13)                1.3881                                         !
 ! R22   R(10,21)                1.0875                                         !
 ! R23   R(11,20)                1.009                                          !
 ! R24   R(12,14)                1.3893                                         !
 ! R25   R(12,22)                1.0861                                         !
 ! R26   R(13,14)                1.4113                                         !
 ! R27   R(13,23)                1.0857                                         !
 ! R28   R(14,24)                1.0857                                         !
 ! R29   R(27,28)                1.4696                                         !
 ! R30   R(27,35)                1.0094                                         !
 ! R31   R(28,29)                1.5503                                         !
 ! R32   R(28,31)                1.5494                                         !
 ! R33   R(28,36)                1.0963                                         !
 ! R34   R(29,30)                1.2179                                         !
 ! R35   R(29,46)                1.3857                                         !
 ! R36   R(31,32)                1.5449                                         !
 ! R37   R(31,33)                1.5359                                         !
 ! R38   R(31,37)                1.0954                                         !
 ! R39   R(32,34)                1.5322                                         !
 ! R40   R(32,38)                1.1009                                         !
 ! R41   R(32,39)                1.0939                                         !
 ! R42   R(33,40)                1.0953                                         !
 ! R43   R(33,41)                1.0994                                         !
 ! R44   R(33,42)                1.0929                                         !
 ! R45   R(34,43)                1.0954                                         !
 ! R46   R(34,44)                1.0959                                         !
 ! R47   R(34,45)                1.095                                          !
 ! R48   R(46,47)                1.4675                                         !
 ! R49   R(46,59)                1.0144                                         !
 ! R50   R(47,48)                1.5447                                         !
 ! R51   R(47,50)                1.5338                                         !
 ! R52   R(47,60)                1.0876                                         !
 ! R53   R(48,49)                1.2299                                         !
 ! R54   R(48,57)                1.3198                                         !
 ! R55   R(50,51)                1.5431                                         !
 ! R56   R(50,61)                1.0964                                         !
 ! R57   R(50,62)                1.0922                                         !
 ! R58   R(51,52)                1.541                                          !
 ! R59   R(51,63)                1.0991                                         !
 ! R60   R(51,64)                1.097                                          !
 ! R61   R(52,53)                1.4618                                         !
 ! R62   R(52,65)                1.0937                                         !
 ! R63   R(52,66)                1.0956                                         !
 ! R64   R(53,54)                1.3802                                         !
 ! R65   R(53,67)                1.0123                                         !
 ! R66   R(54,55)                1.2772                                         !
 ! R67   R(54,56)                1.4337                                         !
 ! R68   R(55,68)                1.0191                                         !
 ! R69   R(56,69)                1.0205                                         !
 ! R70   R(56,70)                1.019                                          !
 ! R71   R(57,58)                1.012                                          !
 ! A1    A(2,1,15)             107.4785                                         !
 ! A2    A(2,1,25)             107.2189                                         !
 ! A3    A(2,1,26)             111.0701                                         !
 ! A4    A(15,1,25)            107.424                                          !
 ! A5    A(15,1,26)            112.5072                                         !
 ! A6    A(25,1,26)            110.8993                                         !
 ! A7    A(1,2,3)              103.1198                                         !
 ! A8    A(1,2,5)              109.8378                                         !
 ! A9    A(1,2,16)             105.585                                          !
 ! A10   A(3,2,5)              119.5386                                         !
 ! A11   A(3,2,16)             107.5328                                         !
 ! A12   A(5,2,16)             110.2062                                         !
 ! A13   A(2,3,4)              117.3778                                         !
 ! A14   A(2,3,27)             117.3568                                         !
 ! A15   A(4,3,27)             125.2352                                         !
 ! A16   A(2,5,6)              111.4621                                         !
 ! A17   A(2,5,17)             108.9736                                         !
 ! A18   A(2,5,18)             107.2197                                         !
 ! A19   A(6,5,17)             110.2681                                         !
 ! A20   A(6,5,18)             110.6696                                         !
 ! A21   A(17,5,18)            108.1351                                         !
 ! A22   A(5,6,7)              126.2908                                         !
 ! A23   A(5,6,8)              126.827                                          !
 ! A24   A(7,6,8)              106.7569                                         !
 ! A25   A(6,7,11)             109.6737                                         !
 ! A26   A(6,7,19)             129.3669                                         !
 ! A27   A(11,7,19)            120.9563                                         !
 ! A28   A(6,8,9)              106.8257                                         !
 ! A29   A(6,8,10)             134.1969                                         !
 ! A30   A(9,8,10)             118.9757                                         !
 ! A31   A(8,9,11)             107.2611                                         !
 ! A32   A(8,9,12)             122.323                                          !
 ! A33   A(11,9,12)            130.4158                                         !
 ! A34   A(8,10,13)            118.8689                                         !
 ! A35   A(8,10,21)            120.9302                                         !
 ! A36   A(13,10,21)           120.1827                                         !
 ! A37   A(7,11,9)             109.4821                                         !
 ! A38   A(7,11,20)            125.2171                                         !
 ! A39   A(9,11,20)            125.1813                                         !
 ! A40   A(9,12,14)            117.3352                                         !
 ! A41   A(9,12,22)            121.363                                          !
 ! A42   A(14,12,22)           121.3015                                         !
 ! A43   A(10,13,14)           121.1001                                         !
 ! A44   A(10,13,23)           119.6752                                         !
 ! A45   A(14,13,23)           119.2227                                         !
 ! A46   A(12,14,13)           121.3952                                         !
 ! A47   A(12,14,24)           119.3172                                         !
 ! A48   A(13,14,24)           119.2865                                         !
 ! A49   A(3,27,28)            124.4473                                         !
 ! A50   A(3,27,35)            118.3263                                         !
 ! A51   A(28,27,35)           116.6191                                         !
 ! A52   A(27,28,29)           111.2352                                         !
 ! A53   A(27,28,31)           113.133                                          !
 ! A54   A(27,28,36)           105.2793                                         !
 ! A55   A(29,28,31)           111.2225                                         !
 ! A56   A(29,28,36)           107.5526                                         !
 ! A57   A(31,28,36)           108.0367                                         !
 ! A58   A(28,29,30)           120.5285                                         !
 ! A59   A(28,29,46)           121.2631                                         !
 ! A60   A(30,29,46)           118.0847                                         !
 ! A61   A(28,31,32)           109.6382                                         !
 ! A62   A(28,31,33)           111.0291                                         !
 ! A63   A(28,31,37)           106.9894                                         !
 ! A64   A(32,31,33)           111.1329                                         !
 ! A65   A(32,31,37)           108.6221                                         !
 ! A66   A(33,31,37)           109.3099                                         !
 ! A67   A(31,32,34)           113.6209                                         !
 ! A68   A(31,32,38)           108.6464                                         !
 ! A69   A(31,32,39)           109.2951                                         !
 ! A70   A(34,32,38)           109.8995                                         !
 ! A71   A(34,32,39)           108.1897                                         !
 ! A72   A(38,32,39)           106.9796                                         !
 ! A73   A(31,33,40)           112.2689                                         !
 ! A74   A(31,33,41)           111.3754                                         !
 ! A75   A(31,33,42)           110.4755                                         !
 ! A76   A(40,33,41)           108.2719                                         !
 ! A77   A(40,33,42)           107.0169                                         !
 ! A78   A(41,33,42)           107.2007                                         !
 ! A79   A(32,34,43)           112.4026                                         !
 ! A80   A(32,34,44)           110.5165                                         !
 ! A81   A(32,34,45)           110.5924                                         !
 ! A82   A(43,34,44)           108.0335                                         !
 ! A83   A(43,34,45)           107.3549                                         !
 ! A84   A(44,34,45)           107.7636                                         !
 ! A85   A(29,46,47)           138.8202                                         !
 ! A86   A(29,46,59)           107.9928                                         !
 ! A87   A(47,46,59)           113.171                                          !
 ! A88   A(46,47,48)           109.4425                                         !
 ! A89   A(46,47,50)           116.9765                                         !
 ! A90   A(46,47,60)           102.6183                                         !
 ! A91   A(48,47,50)           111.4166                                         !
 ! A92   A(48,47,60)           108.3755                                         !
 ! A93   A(50,47,60)           107.3403                                         !
 ! A94   A(47,48,49)           121.3799                                         !
 ! A95   A(47,48,57)           119.0559                                         !
 ! A96   A(49,48,57)           119.5323                                         !
 ! A97   A(47,50,51)           114.7264                                         !
 ! A98   A(47,50,61)           107.6772                                         !
 ! A99   A(47,50,62)           109.212                                          !
 ! A100  A(51,50,61)           110.0446                                         !
 ! A101  A(51,50,62)           107.1253                                         !
 ! A102  A(61,50,62)           107.8655                                         !
 ! A103  A(50,51,52)           117.6179                                         !
 ! A104  A(50,51,63)           109.2997                                         !
 ! A105  A(50,51,64)           107.3733                                         !
 ! A106  A(52,51,63)           108.8922                                         !
 ! A107  A(52,51,64)           107.3199                                         !
 ! A108  A(63,51,64)           105.6758                                         !
 ! A109  A(51,52,53)           113.816                                          !
 ! A110  A(51,52,65)           110.3676                                         !
 ! A111  A(51,52,66)           109.0001                                         !
 ! A112  A(53,52,65)           108.4164                                         !
 ! A113  A(53,52,66)           108.6245                                         !
 ! A114  A(65,52,66)           106.3355                                         !
 ! A115  A(52,53,54)           124.4321                                         !
 ! A116  A(52,53,67)           114.8035                                         !
 ! A117  A(54,53,67)           116.1489                                         !
 ! A118  A(53,54,55)           130.7405                                         !
 ! A119  A(53,54,56)           112.0123                                         !
 ! A120  A(55,54,56)           116.9639                                         !
 ! A121  A(54,55,68)           113.2731                                         !
 ! A122  A(54,56,69)           112.9443                                         !
 ! A123  A(54,56,70)           107.9943                                         !
 ! A124  A(69,56,70)           108.6632                                         !
 ! A125  A(48,57,58)           114.8907                                         !
 ! D1    D(15,1,2,3)           -46.9126                                         !
 ! D2    D(15,1,2,5)          -175.3928                                         !
 ! D3    D(15,1,2,16)           65.802                                          !
 ! D4    D(25,1,2,3)            68.3173                                         !
 ! D5    D(25,1,2,5)           -60.1628                                         !
 ! D6    D(25,1,2,16)         -178.968                                          !
 ! D7    D(26,1,2,3)          -170.3757                                         !
 ! D8    D(26,1,2,5)            61.1441                                         !
 ! D9    D(26,1,2,16)          -57.661                                          !
 ! D10   D(1,2,3,4)             39.0908                                         !
 ! D11   D(1,2,3,27)          -139.0165                                         !
 ! D12   D(5,2,3,4)            161.271                                          !
 ! D13   D(5,2,3,27)           -16.8363                                         !
 ! D14   D(16,2,3,4)           -72.1902                                         !
 ! D15   D(16,2,3,27)          109.7024                                         !
 ! D16   D(1,2,5,6)            -48.1164                                         !
 ! D17   D(1,2,5,17)            73.8064                                         !
 ! D18   D(1,2,5,18)          -169.3765                                         !
 ! D19   D(3,2,5,6)           -166.9189                                         !
 ! D20   D(3,2,5,17)           -44.996                                          !
 ! D21   D(3,2,5,18)            71.8211                                         !
 ! D22   D(16,2,5,6)            67.8045                                         !
 ! D23   D(16,2,5,17)         -170.2727                                         !
 ! D24   D(16,2,5,18)          -53.4556                                         !
 ! D25   D(2,3,27,28)         -176.332                                          !
 ! D26   D(2,3,27,35)           -5.5879                                         !
 ! D27   D(4,3,27,28)            5.7257                                         !
 ! D28   D(4,3,27,35)          176.4698                                         !
 ! D29   D(2,5,6,7)            113.8706                                         !
 ! D30   D(2,5,6,8)            -61.5119                                         !
 ! D31   D(17,5,6,7)            -7.3006                                         !
 ! D32   D(17,5,6,8)           177.3169                                         !
 ! D33   D(18,5,6,7)          -126.9008                                         !
 ! D34   D(18,5,6,8)            57.7167                                         !
 ! D35   D(5,6,7,11)          -176.3154                                         !
 ! D36   D(5,6,7,19)             4.3382                                         !
 ! D37   D(8,6,7,11)            -0.1741                                         !
 ! D38   D(8,6,7,19)          -179.5205                                         !
 ! D39   D(5,6,8,9)            176.3441                                         !
 ! D40   D(5,6,8,10)            -4.1512                                         !
 ! D41   D(7,6,8,9)              0.2297                                         !
 ! D42   D(7,6,8,10)           179.7344                                         !
 ! D43   D(6,7,11,9)             0.0499                                         !
 ! D44   D(6,7,11,20)         -176.1382                                         !
 ! D45   D(19,7,11,9)          179.4607                                         !
 ! D46   D(19,7,11,20)           3.2726                                         !
 ! D47   D(6,8,9,11)            -0.2006                                         !
 ! D48   D(6,8,9,12)           179.9452                                         !
 ! D49   D(10,8,9,11)         -179.7947                                         !
 ! D50   D(10,8,9,12)            0.3511                                         !
 ! D51   D(6,8,10,13)         -179.9189                                         !
 ! D52   D(6,8,10,21)           -1.4677                                         !
 ! D53   D(9,8,10,13)           -0.4608                                         !
 ! D54   D(9,8,10,21)          177.9903                                         !
 ! D55   D(8,9,11,7)             0.0981                                         !
 ! D56   D(8,9,11,20)          176.2879                                         !
 ! D57   D(12,9,11,7)          179.9363                                         !
 ! D58   D(12,9,11,20)          -3.8739                                         !
 ! D59   D(8,9,12,14)            0.0444                                         !
 ! D60   D(8,9,12,22)         -179.7621                                         !
 ! D61   D(11,9,12,14)        -179.7728                                         !
 ! D62   D(11,9,12,22)           0.4207                                         !
 ! D63   D(8,10,13,14)           0.1924                                         !
 ! D64   D(8,10,13,23)         179.6691                                         !
 ! D65   D(21,10,13,14)       -178.2706                                         !
 ! D66   D(21,10,13,23)          1.206                                          !
 ! D67   D(9,12,14,13)          -0.3264                                         !
 ! D68   D(9,12,14,24)        -179.9312                                         !
 ! D69   D(22,12,14,13)        179.4802                                         !
 ! D70   D(22,12,14,24)         -0.1246                                         !
 ! D71   D(10,13,14,12)          0.2141                                         !
 ! D72   D(10,13,14,24)        179.819                                          !
 ! D73   D(23,13,14,12)       -179.2649                                         !
 ! D74   D(23,13,14,24)          0.34                                           !
 ! D75   D(3,27,28,29)         -38.8772                                         !
 ! D76   D(3,27,28,31)          87.161                                          !
 ! D77   D(3,27,28,36)        -155.0806                                         !
 ! D78   D(35,27,28,29)        150.2352                                         !
 ! D79   D(35,27,28,31)        -83.7266                                         !
 ! D80   D(35,27,28,36)         34.0317                                         !
 ! D81   D(27,28,29,30)        123.0615                                         !
 ! D82   D(27,28,29,46)        -61.0594                                         !
 ! D83   D(31,28,29,30)         -4.0269                                         !
 ! D84   D(31,28,29,46)        171.8523                                         !
 ! D85   D(36,28,29,30)       -122.1393                                         !
 ! D86   D(36,28,29,46)         53.7399                                         !
 ! D87   D(27,28,31,32)        162.3959                                         !
 ! D88   D(27,28,31,33)         39.2142                                         !
 ! D89   D(27,28,31,37)        -79.9883                                         !
 ! D90   D(29,28,31,32)        -71.5591                                         !
 ! D91   D(29,28,31,33)        165.2592                                         !
 ! D92   D(29,28,31,37)         46.0567                                         !
 ! D93   D(36,28,31,32)         46.2608                                         !
 ! D94   D(36,28,31,33)        -76.921                                          !
 ! D95   D(36,28,31,37)        163.8765                                         !
 ! D96   D(28,29,46,47)          0.1936                                         !
 ! D97   D(28,29,46,59)       -178.1638                                         !
 ! D98   D(30,29,46,47)        176.1704                                         !
 ! D99   D(30,29,46,59)         -2.187                                          !
 ! D100  D(28,31,32,34)        164.2                                            !
 ! D101  D(28,31,32,38)        -73.1403                                         !
 ! D102  D(28,31,32,39)         43.2631                                         !
 ! D103  D(33,31,32,34)        -72.6796                                         !
 ! D104  D(33,31,32,38)         49.9801                                         !
 ! D105  D(33,31,32,39)        166.3836                                         !
 ! D106  D(37,31,32,34)         47.6088                                         !
 ! D107  D(37,31,32,38)        170.2685                                         !
 ! D108  D(37,31,32,39)        -73.328                                          !
 ! D109  D(28,31,33,40)        -64.3932                                         !
 ! D110  D(28,31,33,41)         57.2144                                         !
 ! D111  D(28,31,33,42)        176.2352                                         !
 ! D112  D(32,31,33,40)        173.2886                                         !
 ! D113  D(32,31,33,41)        -65.1038                                         !
 ! D114  D(32,31,33,42)         53.9171                                         !
 ! D115  D(37,31,33,40)         53.4083                                         !
 ! D116  D(37,31,33,41)        175.0158                                         !
 ! D117  D(37,31,33,42)        -65.9633                                         !
 ! D118  D(31,32,34,43)         61.2316                                         !
 ! D119  D(31,32,34,44)        -59.5509                                         !
 ! D120  D(31,32,34,45)       -178.7987                                         !
 ! D121  D(38,32,34,43)        -60.7353                                         !
 ! D122  D(38,32,34,44)        178.4822                                         !
 ! D123  D(38,32,34,45)         59.2344                                         !
 ! D124  D(39,32,34,43)       -177.2134                                         !
 ! D125  D(39,32,34,44)         62.0042                                         !
 ! D126  D(39,32,34,45)        -57.2436                                         !
 ! D127  D(29,46,47,48)         94.2696                                         !
 ! D128  D(29,46,47,50)        -33.6228                                         !
 ! D129  D(29,46,47,60)       -150.7947                                         !
 ! D130  D(59,46,47,48)        -87.4298                                         !
 ! D131  D(59,46,47,50)        144.6778                                         !
 ! D132  D(59,46,47,60)         27.506                                          !
 ! D133  D(46,47,48,49)        -87.1573                                         !
 ! D134  D(46,47,48,57)         90.7771                                         !
 ! D135  D(50,47,48,49)         43.7768                                         !
 ! D136  D(50,47,48,57)       -138.2888                                         !
 ! D137  D(60,47,48,49)        161.6583                                         !
 ! D138  D(60,47,48,57)        -20.4073                                         !
 ! D139  D(46,47,50,51)       -175.5651                                         !
 ! D140  D(46,47,50,61)        -52.6897                                         !
 ! D141  D(46,47,50,62)         64.1846                                         !
 ! D142  D(48,47,50,51)         57.504                                          !
 ! D143  D(48,47,50,61)       -179.6207                                         !
 ! D144  D(48,47,50,62)        -62.7463                                         !
 ! D145  D(60,47,50,51)        -60.9998                                         !
 ! D146  D(60,47,50,61)         61.8756                                         !
 ! D147  D(60,47,50,62)        178.7499                                         !
 ! D148  D(47,48,57,58)         15.8773                                         !
 ! D149  D(49,48,57,58)       -166.1495                                         !
 ! D150  D(47,50,51,52)         61.091                                          !
 ! D151  D(47,50,51,63)        -63.6869                                         !
 ! D152  D(47,50,51,64)       -177.8622                                         !
 ! D153  D(61,50,51,52)        -60.5017                                         !
 ! D154  D(61,50,51,63)        174.7204                                         !
 ! D155  D(61,50,51,64)         60.5451                                         !
 ! D156  D(62,50,51,52)       -177.5109                                         !
 ! D157  D(62,50,51,63)         57.7111                                         !
 ! D158  D(62,50,51,64)        -56.4642                                         !
 ! D159  D(50,51,52,53)        -73.6394                                         !
 ! D160  D(50,51,52,65)         48.5163                                         !
 ! D161  D(50,51,52,66)        164.9486                                         !
 ! D162  D(63,51,52,53)         51.3409                                         !
 ! D163  D(63,51,52,65)        173.4966                                         !
 ! D164  D(63,51,52,66)        -70.0711                                         !
 ! D165  D(64,51,52,53)        165.2861                                         !
 ! D166  D(64,51,52,65)        -72.5582                                         !
 ! D167  D(64,51,52,66)         43.8741                                         !
 ! D168  D(51,52,53,54)        103.913                                          !
 ! D169  D(51,52,53,67)        -50.9686                                         !
 ! D170  D(65,52,53,54)        -19.313                                          !
 ! D171  D(65,52,53,67)       -174.1946                                         !
 ! D172  D(66,52,53,54)       -134.4664                                         !
 ! D173  D(66,52,53,67)         70.652                                          !
 ! D174  D(52,53,54,55)         17.8231                                         !
 ! D175  D(52,53,54,56)       -155.7593                                         !
 ! D176  D(67,53,54,55)        172.4021                                         !
 ! D177  D(67,53,54,56)         -1.1803                                         !
 ! D178  D(53,54,55,68)          2.2599                                         !
 ! D179  D(56,54,55,68)        175.5833                                         !
 ! D180  D(53,54,56,69)        -52.0149                                         !
 ! D181  D(53,54,56,70)       -172.205                                          !
 ! D182  D(55,54,56,69)        133.4374                                         !
 ! D183  D(55,54,56,70)         13.2473                                         !
 --------------------------------------------------------------------------------
 Symmetry turned off by external request.
 Stoichiometry    C23H36N7O4(1+)
 Framework group  C1[X(C23H36N7O4)]
 Deg. of freedom   204
 Full point group                 C1      NOp   1
                          Input orientation:                          
 ---------------------------------------------------------------------
 Center     Atomic      Atomic             Coordinates (Angstroms)
 Number     Number       Type             X           Y           Z
 ---------------------------------------------------------------------
      1          7           0      -95.923265  -14.065744    2.280249
      2          6           0      -96.423233  -15.157390    3.196586
      3          6           0      -97.182067  -14.376233    4.290756
      4          8           0      -97.847895  -13.406675    3.934205
      5          6           0      -95.257772  -16.080528    3.593509
      6          6           0      -94.455784  -16.497309    2.396732
      7          6           0      -93.148907  -16.154782    2.132110
      8          6           0      -94.926592  -17.253183    1.259581
      9          6           0      -93.843531  -17.333999    0.342202
     10          6           0      -96.146775  -17.874053    0.930759
     11          7           0      -92.778494  -16.654166    0.903866
     12          6           0      -93.948260  -18.003405   -0.881490
     13          6           0      -96.255388  -18.537164   -0.283908
     14          6           0      -95.167393  -18.598598   -1.180774
     15          1           0      -96.711243  -13.427369    2.100984
     16          1           0      -97.164333  -15.713342    2.614463
     17          1           0      -94.620660  -15.559300    4.313740
     18          1           0      -95.692835  -16.957178    4.093345
     19          1           0      -92.449767  -15.595599    2.739248
     20          1           0      -91.854717  -16.588141    0.503448
     21          1           0      -96.985507  -17.859873    1.622852
     22          1           0      -93.109402  -18.058746   -1.569145
     23          1           0      -97.188553  -19.025105   -0.548388
     24          1           0      -95.283922  -19.127638   -2.121624
     25          1           0      -95.197737  -13.527439    2.807104
     26          1           0      -95.532716  -14.458546    1.418168
     27          7           0      -97.030087  -14.787748    5.561645
     28          6           0      -97.736900  -14.209168    6.712937
     29          6           0      -97.859255  -12.669406    6.580773
     30          8           0      -98.951379  -12.131117    6.606715
     31          6           0      -99.118632  -14.861646    6.969594
     32          6           0      -99.589531  -14.533218    8.403813
     33          6           0      -99.062957  -16.379113    6.738901
     34          6           0     -101.081647  -14.793620    8.634816
     35          1           0      -96.502516  -15.631304    5.732115
     36          1           0      -97.097316  -14.416910    7.578790
     37          1           0      -99.821416  -14.412831    6.259309
     38          1           0      -98.991571  -15.124174    9.114615
     39          1           0      -99.389783  -13.479117    8.617362
     40          1           0      -98.845473  -16.632671    5.695764
     41          1           0      -98.301864  -16.853423    7.374794
     42          1           0     -100.023073  -16.838912    6.986336
     43          1           0     -101.349701  -15.845394    8.486812
     44          1           0     -101.687474  -14.189526    7.950024
     45          1           0     -101.365640  -14.524993    9.657629
     46          7           0      -96.735232  -11.861662    6.515421
     47          6           0      -95.274175  -11.998870    6.528778
     48          6           0      -94.750109  -12.059220    5.076931
     49          8           0      -94.679705  -13.123856    4.465228
     50          6           0      -94.689438  -13.130769    7.382769
     51          6           0      -93.147963  -13.161784    7.445396
     52          6           0      -92.432400  -11.934351    8.042172
     53          7           0      -92.433412  -10.765710    7.164009
     54          6           0      -93.246823   -9.663478    7.332676
     55          7           0      -93.902140   -9.259221    8.351732
     56          7           0      -93.456923   -8.957445    6.102720
     57          8           0      -94.410073  -10.937116    4.471061
     58          1           0      -94.281891  -10.143245    5.085458
     59          1           0      -97.045095  -10.897167    6.462880
     60          1           0      -94.951312  -11.059134    6.971060
     61          1           0      -95.104712  -13.034319    8.392878
     62          1           0      -95.014241  -14.091506    6.977277
     63          1           0      -92.747333  -13.353314    6.439994
     64          1           0      -92.862107  -14.031963    8.049093
     65          1           0      -92.891163  -11.651746    8.993965
     66          1           0      -91.394081  -12.201552    8.267861
     67          1           0      -92.112701  -10.943278    6.220440
     68          1           0      -93.765377   -9.842865    9.175892
     69          1           0      -92.586372   -8.726341    5.622947
     70          1           0      -93.950889   -8.092236    6.316814
 ---------------------------------------------------------------------
 Rotational constants (GHZ):           0.1466277           0.0748450           0.0554001
 Standard basis: 6-31G(d) (6D, 7F)
   582 basis functions,  1096 primitive gaussians,   582 cartesian basis functions
   127 alpha electrons      127 beta electrons
       nuclear repulsion energy      3821.5350171335 Hartrees.
 NAtoms=   70 NActive=   70 NUniq=   70 SFac= 1.00D+00 NAtFMM=   60 NAOKFM=T Big=T
 Integral buffers will be    131072 words long.
 Raffenetti 2 integral format.
 Two-electron integral symmetry is turned off.
 Nuclear repulsion after empirical dispersion term =     3821.4409770574 Hartrees.
 One-electron integrals computed using PRISM.
 NBasis=   582 RedAO= T EigKep=  3.78D-04  NBF=   582
 NBsUse=   582 1.00D-06 EigRej= -1.00D+00 NBFU=   582
 Initial guess from the checkpoint file:  "conf-772.chk"
 B after Tr=     0.000000    0.000000    0.000000
         Rot=    1.000000    0.000000    0.000000    0.000000 Ang=   0.00 deg.
 Requested convergence on RMS density matrix=1.00D-08 within 128 cycles.
 Requested convergence on MAX density matrix=1.00D-06.
 Requested convergence on             energy=1.00D-06.
 No special actions if energy rises.
 SCF Done:  E(RB3LYP) =  -1582.21255725     A.U. after    1 cycles
            NFock=  1  Conv=0.75D-08     -V/T= 2.0095

 **********************************************************************

            Population analysis using the SCF Density.

 **********************************************************************

 Alpha  occ. eigenvalues --  -19.30135 -19.26370 -19.24079 -19.20624 -14.56939
 Alpha  occ. eigenvalues --  -14.48802 -14.48383 -14.47136 -14.46809 -14.45995
 Alpha  occ. eigenvalues --  -14.39810 -10.44321 -10.41725 -10.39646 -10.38832
 Alpha  occ. eigenvalues --  -10.38459 -10.35456 -10.33978 -10.33565 -10.32929
 Alpha  occ. eigenvalues --  -10.32635 -10.31876 -10.30703 -10.30454 -10.29548
 Alpha  occ. eigenvalues --  -10.28731 -10.28410 -10.28259 -10.27629 -10.27414
 Alpha  occ. eigenvalues --  -10.27403 -10.26107 -10.25213 -10.23637  -1.21849
 Alpha  occ. eigenvalues --   -1.16880  -1.13400  -1.13089  -1.11467  -1.09247
 Alpha  occ. eigenvalues --   -1.08304  -1.05160  -1.01975  -1.00563  -0.95699
 Alpha  occ. eigenvalues --   -0.93882  -0.92694  -0.90886  -0.89886  -0.87380
 Alpha  occ. eigenvalues --   -0.85097  -0.83272  -0.82921  -0.81842  -0.79548
 Alpha  occ. eigenvalues --   -0.78895  -0.78444  -0.74185  -0.72841  -0.72330
 Alpha  occ. eigenvalues --   -0.72059  -0.71874  -0.70717  -0.70141  -0.69706
 Alpha  occ. eigenvalues --   -0.69112  -0.67669  -0.66733  -0.66235  -0.64621
 Alpha  occ. eigenvalues --   -0.64343  -0.63724  -0.62951  -0.62400  -0.61940
 Alpha  occ. eigenvalues --   -0.61201  -0.58902  -0.58619  -0.58113  -0.57839
 Alpha  occ. eigenvalues --   -0.56769  -0.56491  -0.56199  -0.55954  -0.55437
 Alpha  occ. eigenvalues --   -0.54934  -0.54587  -0.53702  -0.53455  -0.52772
 Alpha  occ. eigenvalues --   -0.52659  -0.52537  -0.51794  -0.51277  -0.51194
 Alpha  occ. eigenvalues --   -0.50765  -0.50570  -0.49638  -0.49306  -0.48975
 Alpha  occ. eigenvalues --   -0.48791  -0.47934  -0.47489  -0.46283  -0.45913
 Alpha  occ. eigenvalues --   -0.45677  -0.45542  -0.44905  -0.44795  -0.43430
 Alpha  occ. eigenvalues --   -0.43245  -0.43120  -0.42981  -0.41930  -0.41402
 Alpha  occ. eigenvalues --   -0.40053  -0.39806  -0.39131  -0.38527  -0.37353
 Alpha  occ. eigenvalues --   -0.37127  -0.36954  -0.34590  -0.34411  -0.33876
 Alpha  occ. eigenvalues --   -0.32154  -0.30683
 Alpha virt. eigenvalues --   -0.12718  -0.11205  -0.10512  -0.07919  -0.07089
 Alpha virt. eigenvalues --   -0.06330  -0.05862  -0.04726  -0.04624  -0.03575
 Alpha virt. eigenvalues --   -0.02631  -0.02026  -0.01382  -0.00933  -0.00758
 Alpha virt. eigenvalues --   -0.00368   0.00597   0.01236   0.02128   0.02500
 Alpha virt. eigenvalues --    0.02728   0.03304   0.03591   0.03892   0.04217
 Alpha virt. eigenvalues --    0.04473   0.04776   0.05408   0.05586   0.05905
 Alpha virt. eigenvalues --    0.06524   0.06776   0.06934   0.07338   0.07458
 Alpha virt. eigenvalues --    0.07926   0.08349   0.08831   0.09448   0.09567
 Alpha virt. eigenvalues --    0.09808   0.10186   0.10679   0.11395   0.11629
 Alpha virt. eigenvalues --    0.11937   0.12018   0.12213   0.12497   0.12612
 Alpha virt. eigenvalues --    0.13437   0.13731   0.14286   0.15066   0.15158
 Alpha virt. eigenvalues --    0.16353   0.16596   0.16810   0.17171   0.17578
 Alpha virt. eigenvalues --    0.18507   0.19306   0.20649   0.21468   0.21969
 Alpha virt. eigenvalues --    0.22538   0.23825   0.24715   0.25266   0.27031
 Alpha virt. eigenvalues --    0.27171   0.28279   0.29724   0.30298   0.32490
 Alpha virt. eigenvalues --    0.33466   0.35343   0.35991   0.37017   0.38419
 Alpha virt. eigenvalues --    0.39258   0.39834   0.40094   0.41198   0.41727
 Alpha virt. eigenvalues --    0.42079   0.42224   0.43449   0.44062   0.44288
 Alpha virt. eigenvalues --    0.44588   0.45333   0.45552   0.46051   0.46353
 Alpha virt. eigenvalues --    0.46626   0.47124   0.48012   0.48418   0.48631
 Alpha virt. eigenvalues --    0.49197   0.49957   0.50076   0.50257   0.50628
 Alpha virt. eigenvalues --    0.50853   0.51156   0.51526   0.51984   0.52332
 Alpha virt. eigenvalues --    0.52828   0.53097   0.53176   0.53456   0.54006
 Alpha virt. eigenvalues --    0.54174   0.54595   0.55271   0.56611   0.57190
 Alpha virt. eigenvalues --    0.57748   0.58061   0.58493   0.58858   0.59182
 Alpha virt. eigenvalues --    0.59545   0.60752   0.61045   0.61730   0.62745
 Alpha virt. eigenvalues --    0.63740   0.64138   0.64833   0.65211   0.65973
 Alpha virt. eigenvalues --    0.66515   0.67140   0.67911   0.68679   0.68979
 Alpha virt. eigenvalues --    0.69758   0.70239   0.71249   0.71618   0.72134
 Alpha virt. eigenvalues --    0.72541   0.73081   0.73418   0.73588   0.73897
 Alpha virt. eigenvalues --    0.74663   0.75381   0.75540   0.75699   0.75998
 Alpha virt. eigenvalues --    0.76167   0.76624   0.76836   0.76918   0.77778
 Alpha virt. eigenvalues --    0.77967   0.78169   0.78396   0.79059   0.79405
 Alpha virt. eigenvalues --    0.79849   0.80324   0.80718   0.81698   0.82272
 Alpha virt. eigenvalues --    0.82474   0.82858   0.83350   0.83582   0.83955
 Alpha virt. eigenvalues --    0.84183   0.84573   0.85243   0.85614   0.86092
 Alpha virt. eigenvalues --    0.86553   0.86856   0.87636   0.87848   0.88269
 Alpha virt. eigenvalues --    0.88663   0.88962   0.89180   0.89873   0.90158
 Alpha virt. eigenvalues --    0.90626   0.91366   0.92197   0.92800   0.93350
 Alpha virt. eigenvalues --    0.93638   0.94535   0.94774   0.95521   0.97181
 Alpha virt. eigenvalues --    0.97831   0.98249   0.99266   1.00850   1.01436
 Alpha virt. eigenvalues --    1.02769   1.02984   1.04213   1.04671   1.05309
 Alpha virt. eigenvalues --    1.05968   1.07962   1.08880   1.09496   1.12205
 Alpha virt. eigenvalues --    1.12709   1.12923   1.14372   1.14945   1.15527
 Alpha virt. eigenvalues --    1.16561   1.17168   1.18785   1.19885   1.21055
 Alpha virt. eigenvalues --    1.21740   1.22009   1.23388   1.23761   1.24393
 Alpha virt. eigenvalues --    1.24876   1.26062   1.26998   1.27614   1.28029
 Alpha virt. eigenvalues --    1.29061   1.30158   1.30578   1.31591   1.31884
 Alpha virt. eigenvalues --    1.32596   1.34142   1.34368   1.35826   1.37198
 Alpha virt. eigenvalues --    1.37549   1.38885   1.39359   1.40347   1.40957
 Alpha virt. eigenvalues --    1.41340   1.41988   1.44207   1.45593   1.47646
 Alpha virt. eigenvalues --    1.48314   1.49551   1.49873   1.50281   1.51333
 Alpha virt. eigenvalues --    1.51340   1.52114   1.54123   1.54828   1.56607
 Alpha virt. eigenvalues --    1.57564   1.59141   1.60255   1.60866   1.62523
 Alpha virt. eigenvalues --    1.63162   1.63758   1.64465   1.64745   1.65466
 Alpha virt. eigenvalues --    1.65838   1.67216   1.67525   1.68202   1.68902
 Alpha virt. eigenvalues --    1.69192   1.70332   1.70692   1.70947   1.71796
 Alpha virt. eigenvalues --    1.72387   1.73980   1.74431   1.74912   1.75935
 Alpha virt. eigenvalues --    1.76608   1.77350   1.77804   1.79540   1.79707
 Alpha virt. eigenvalues --    1.79978   1.81216   1.81690   1.81902   1.82333
 Alpha virt. eigenvalues --    1.84021   1.84205   1.84885   1.85438   1.85720
 Alpha virt. eigenvalues --    1.86218   1.87101   1.87526   1.88340   1.88713
 Alpha virt. eigenvalues --    1.89499   1.90149   1.90977   1.91105   1.92320
 Alpha virt. eigenvalues --    1.92846   1.93144   1.93957   1.94223   1.94642
 Alpha virt. eigenvalues --    1.95212   1.96958   1.97586   1.97867   1.98993
 Alpha virt. eigenvalues --    2.00337   2.02095   2.02593   2.02861   2.04014
 Alpha virt. eigenvalues --    2.04381   2.05326   2.05850   2.06603   2.08490
 Alpha virt. eigenvalues --    2.08674   2.10147   2.11323   2.13690   2.14089
 Alpha virt. eigenvalues --    2.15325   2.15695   2.16145   2.16499   2.17690
 Alpha virt. eigenvalues --    2.18239   2.18401   2.18959   2.20799   2.21442
 Alpha virt. eigenvalues --    2.22655   2.22877   2.23157   2.23762   2.24252
 Alpha virt. eigenvalues --    2.25526   2.26225   2.27825   2.28655   2.29343
 Alpha virt. eigenvalues --    2.30261   2.30716   2.32684   2.33706   2.34079
 Alpha virt. eigenvalues --    2.34801   2.36075   2.36774   2.37420   2.38801
 Alpha virt. eigenvalues --    2.39182   2.40281   2.41989   2.43655   2.44272
 Alpha virt. eigenvalues --    2.45415   2.45578   2.46270   2.47710   2.48669
 Alpha virt. eigenvalues --    2.48981   2.50002   2.51041   2.51740   2.52889
 Alpha virt. eigenvalues --    2.54127   2.56028   2.57110   2.57419   2.58345
 Alpha virt. eigenvalues --    2.58856   2.59193   2.60582   2.61317   2.62917
 Alpha virt. eigenvalues --    2.63771   2.64637   2.66043   2.67401   2.68157
 Alpha virt. eigenvalues --    2.69771   2.71725   2.72444   2.75349   2.77203
 Alpha virt. eigenvalues --    2.79514   2.82747   2.86119   2.86518   2.88333
 Alpha virt. eigenvalues --    2.90490   2.91625   2.93605   2.96541   2.97842
 Alpha virt. eigenvalues --    2.99856   3.02973   3.08077   3.08983   3.14772
 Alpha virt. eigenvalues --    3.34413   3.71297   3.77479   3.80956   3.86421
 Alpha virt. eigenvalues --    3.88189   3.91998   3.93100   3.94210   4.00130
 Alpha virt. eigenvalues --    4.01394   4.03003   4.06532   4.07600   4.10871
 Alpha virt. eigenvalues --    4.12158   4.14434   4.16732   4.20264   4.22367
 Alpha virt. eigenvalues --    4.25301   4.28363   4.29932   4.32023   4.32610
 Alpha virt. eigenvalues --    4.34078   4.35361   4.40244   4.43419   4.45081
 Alpha virt. eigenvalues --    4.49613   4.56892   4.61720   4.66172   4.70013
          Condensed to atoms (all electrons):
 Mulliken charges:
               1
     1  N   -0.743968
     2  C   -0.115547
     3  C    0.670006
     4  O   -0.526335
     5  C   -0.390693
     6  C    0.001308
     7  C    0.003070
     8  C    0.075767
     9  C    0.310338
    10  C   -0.221870
    11  N   -0.680260
    12  C   -0.155000
    13  C   -0.134503
    14  C   -0.147911
    15  H    0.416239
    16  H    0.223618
    17  H    0.193178
    18  H    0.180932
    19  H    0.167852
    20  H    0.347159
    21  H    0.126889
    22  H    0.150198
    23  H    0.149907
    24  H    0.155375
    25  H    0.427099
    26  H    0.408578
    27  N   -0.620392
    28  C   -0.060875
    29  C    0.631457
    30  O   -0.473444
    31  C   -0.061805
    32  C   -0.267574
    33  C   -0.471180
    34  C   -0.454046
    35  H    0.352269
    36  H    0.162807
    37  H    0.174195
    38  H    0.124072
    39  H    0.161712
    40  H    0.128157
    41  H    0.133376
    42  H    0.178989
    43  H    0.147755
    44  H    0.163692
    45  H    0.158269
    46  N   -0.630700
    47  C   -0.047191
    48  C    0.630256
    49  O   -0.532598
    50  C   -0.287746
    51  C   -0.296089
    52  C   -0.145769
    53  N   -0.575580
    54  C    0.534788
    55  N   -0.600568
    56  N   -0.801474
    57  O   -0.587731
    58  H    0.466885
    59  H    0.350727
    60  H    0.185118
    61  H    0.168387
    62  H    0.154940
    63  H    0.150404
    64  H    0.168006
    65  H    0.167590
    66  H    0.182285
    67  H    0.325489
    68  H    0.299156
    69  H    0.351179
    70  H    0.371376
 Sum of Mulliken charges =   1.00000
 Mulliken charges with hydrogens summed into heavy atoms:
               1
     1  N    0.507948
     2  C    0.108070
     3  C    0.670006
     4  O   -0.526335
     5  C   -0.016583
     6  C    0.001308
     7  C    0.170922
     8  C    0.075767
     9  C    0.310338
    10  C   -0.094981
    11  N   -0.333102
    12  C   -0.004802
    13  C    0.015404
    14  C    0.007464
    27  N   -0.268123
    28  C    0.101932
    29  C    0.631457
    30  O   -0.473444
    31  C    0.112390
    32  C    0.018210
    33  C   -0.030658
    34  C    0.015670
    46  N   -0.279974
    47  C    0.137927
    48  C    0.630256
    49  O   -0.532598
    50  C    0.035582
    51  C    0.022321
    52  C    0.204106
    53  N   -0.250091
    54  C    0.534788
    55  N   -0.301411
    56  N   -0.078919
    57  O   -0.120846
 Electronic spatial extent (au):  <R**2>=        8528940.0560
 Charge=              1.0000 electrons
 Dipole moment (field-independent basis, Debye):
    X=           -450.7538    Y=            -68.2150    Z=             19.0546  Tot=            456.2843
 Quadrupole moment (field-independent basis, Debye-Ang):
   XX=          42114.6742   YY=            803.4358   ZZ=            -70.8044
   XY=           6426.7238   XZ=          -1785.1742   YZ=           -254.9916
 Traceless Quadrupole moment (field-independent basis, Debye-Ang):
   XX=          27832.2390   YY=         -13478.9994   ZZ=         -14353.2396
   XY=           6426.7238   XZ=          -1785.1742   YZ=           -254.9916
 Octapole moment (field-independent basis, Debye-Ang**2):
  XXX=       -3916148.7738  YYY=          -6621.5148  ZZZ=          -1933.0945  XYY=         -75710.9813
  XXY=        -602947.8341  XXZ=         166330.2968  XZZ=           7023.8419  YZZ=           1022.1335
  YYZ=           2534.8677  XYZ=          24037.0596
 Hexadecapole moment (field-independent basis, Debye-Ang**3):
 XXXX=      362256026.9124 YYYY=         -17695.9514 ZZZZ=         -30465.9736 XXXY=       56314608.4887
 XXXZ=      -15404123.6777 YYYX=         619122.0632 YYYZ=         -11115.9413 ZZZX=         187673.8101
 ZZZY=          24025.3576 XXYY=        7097182.3389 XXZZ=        -702405.7119 YYZZ=         -22145.1159
 XXYZ=       -2254455.1220 YYXZ=        -239127.5945 ZZXY=        -100587.4599
 N-N= 3.821440977057D+03 E-N=-1.129662224741D+04  KE= 1.567332413589D+03
 Unable to Open any file for archive entry.
 1\1\GINC-LAC-250\SP\RB3LYP\6-31G(d)\C23H36N7O4(1+)\KENGMITH\24-May-202
 2\0\\# B3LYP/6-31G* empiricaldispersion=gd3 guess=read geom=check nosy
 mm integral(ultrafinegrid)\\Candidate Structure: Conf:772 Charge calc 
 in gas phase\\1,1\N,0,-95.9232646245,-14.0657441462,2.2802489127\C,0,-
 96.4232325244,-15.1573902527,3.1965861078\C,0,-97.1820674929,-14.37623
 30214,4.2907563096\O,0,-97.8478945103,-13.4066753404,3.9342051958\C,0,
 -95.2577724239,-16.0805279334,3.5935094543\C,0,-94.4557836452,-16.4973
 093183,2.3967320432\C,0,-93.1489068742,-16.1547815724,2.1321100024\C,0
 ,-94.9265919841,-17.2531833615,1.2595814347\C,0,-93.8435313554,-17.333
 9994895,0.3422021121\C,0,-96.1467748871,-17.8740529905,0.930758675\N,0
 ,-92.7784941977,-16.6541655955,0.9038663045\C,0,-93.9482597064,-18.003
 4053233,-0.8814903514\C,0,-96.2553881522,-18.5371642985,-0.2839083937\
 C,0,-95.167393165,-18.5985979036,-1.1807741077\H,0,-96.7112426318,-13.
 4273685022,2.1009844709\H,0,-97.1643330444,-15.7133421181,2.6144628684
 \H,0,-94.62066037,-15.559299629,4.3137402596\H,0,-95.6928348658,-16.95
 71777493,4.0933449597\H,0,-92.4497673686,-15.5955989823,2.7392478661\H
 ,0,-91.8547169001,-16.5881409156,0.5034484264\H,0,-96.9855065213,-17.8
 598730623,1.6228516899\H,0,-93.1094017104,-18.0587459142,-1.5691452716
 \H,0,-97.1885528195,-19.0251049566,-0.548388171\H,0,-95.2839220712,-19
 .1276383613,-2.1216241586\H,0,-95.1977369795,-13.5274386121,2.80710403
 29\H,0,-95.5327159379,-14.4585458227,1.4181679317\N,0,-97.0300874833,-
 14.7877476839,5.5616447718\C,0,-97.7368997782,-14.2091680836,6.7129371
 751\C,0,-97.8592546735,-12.6694055721,6.5807729995\O,0,-98.9513789641,
 -12.1311173289,6.6067146147\C,0,-99.1186322575,-14.8616455354,6.969593
 8323\C,0,-99.5895310779,-14.5332183506,8.4038129096\C,0,-99.0629566713
 ,-16.3791131061,6.7389005131\C,0,-101.0816465797,-14.7936199131,8.6348
 162775\H,0,-96.5025157313,-15.6313035151,5.7321152376\H,0,-97.09731644
 05,-14.4169101795,7.5787900604\H,0,-99.8214160597,-14.4128309452,6.259
 3091751\H,0,-98.991570755,-15.124173584,9.1146148941\H,0,-99.389782755
 7,-13.4791165606,8.61736169\H,0,-98.8454725664,-16.6326711348,5.695763
 5129\H,0,-98.301863577,-16.8534226215,7.3747939027\H,0,-100.0230729074
 ,-16.8389118812,6.9863355091\H,0,-101.3497012952,-15.84539392,8.486811
 94\H,0,-101.6874736131,-14.1895255012,7.9500243164\H,0,-101.3656402911
 ,-14.5249933753,9.6576290172\N,0,-96.735232362,-11.8616620022,6.515420
 6417\C,0,-95.2741748114,-11.9988696482,6.5287781671\C,0,-94.7501090198
 ,-12.0592195555,5.076930503\O,0,-94.6797046847,-13.1238560826,4.465227
 5537\C,0,-94.6894383503,-13.13076931,7.3827685095\C,0,-93.1479628248,-
 13.1617842997,7.4453960794\C,0,-92.4323998953,-11.9343511051,8.0421721
 564\N,0,-92.433411745,-10.7657101858,7.1640088584\C,0,-93.2468227761,-
 9.6634778805,7.3326762583\N,0,-93.9021404797,-9.25922072,8.3517324631\
 N,0,-93.4569234051,-8.9574451705,6.1027201825\O,0,-94.4100726155,-10.9
 371158474,4.471060573\H,0,-94.2818913777,-10.1432448139,5.0854579025\H
 ,0,-97.0450951174,-10.8971669981,6.4628796856\H,0,-94.9513117838,-11.0
 591339511,6.971059677\H,0,-95.1047124269,-13.0343189183,8.3928778426\H
 ,0,-95.0142414024,-14.0915055213,6.9772769736\H,0,-92.7473332853,-13.3
 533140265,6.4399935885\H,0,-92.8621071546,-14.0319625811,8.0490930927\
 H,0,-92.8911633325,-11.6517458632,8.9939648749\H,0,-91.3940807034,-12.
 201551555,8.267861116\H,0,-92.1127013858,-10.9432775301,6.2204402397\H
 ,0,-93.7653768693,-9.8428646019,9.1758916606\H,0,-92.5863722698,-8.726
 3410292,5.6229473245\H,0,-93.9508889995,-8.0922357278,6.3168137732\\Ve
 rsion=ES64L-G16RevC.01\HF=-1582.2125572\RMSD=7.534e-09\Dipole=3.519761
 3,-0.2724947,-1.5314274\Quadrupole=20692.5875695,-10021.3057046,-10671
 .2818649,4778.1116231,-1327.23325,-189.5800376\PG=C01 [X(C23H36N7O4)]\
 \@
 The archive entry for this job was punched.


 In the beginning the Universe was created.
 This has made a lot of people very angry
 and been widely regarded as a bad move.
                               -D.Adams
 Job cpu time:       0 days  0 hours  1 minutes 47.8 seconds.
 Elapsed time:       0 days  0 hours  0 minutes 27.4 seconds.
 File lengths (MBytes):  RWF=    296 Int=      0 D2E=      0 Chk=     40 Scr=     16
 Normal termination of Gaussian 16 at Tue May 24 23:12:35 2022.
