 Entering Gaussian System, Link 0=/opt/software/Gaussian/g16-AVX-C.01/g16/g16
 Input=charge-conf-344.com
 Output=charge-conf-344.log
 Initial command:
 /opt/software/Gaussian/g16-AVX-C.01/g16/l1.exe "/mnt/gs18/scratch/users/kengmith/Gau-16398.inp" -scrdir="/mnt/gs18/scratch/users/kengmith/"
 Entering Link 1 = /opt/software/Gaussian/g16-AVX-C.01/g16/l1.exe PID=     16414.
  
 Copyright (c) 1988-2019, Gaussian, Inc.  All Rights Reserved.
  
 This is part of the Gaussian(R) 16 program.  It is based on
 the Gaussian(R) 09 system (copyright 2009, Gaussian, Inc.),
 the Gaussian(R) 03 system (copyright 2003, Gaussian, Inc.),
 the Gaussian(R) 98 system (copyright 1998, Gaussian, Inc.),
 the Gaussian(R) 94 system (copyright 1995, Gaussian, Inc.),
 the Gaussian 92(TM) system (copyright 1992, Gaussian, Inc.),
 the Gaussian 90(TM) system (copyright 1990, Gaussian, Inc.),
 the Gaussian 88(TM) system (copyright 1988, Gaussian, Inc.),
 the Gaussian 86(TM) system (copyright 1986, Carnegie Mellon
 University), and the Gaussian 82(TM) system (copyright 1983,
 Carnegie Mellon University). Gaussian is a federally registered
 trademark of Gaussian, Inc.
  
 This software contains proprietary and confidential information,
 including trade secrets, belonging to Gaussian, Inc.
  
 This software is provided under written license and may be
 used, copied, transmitted, or stored only in accord with that
 written license.
  
 The following legend is applicable only to US Government
 contracts under FAR:
  
                    RESTRICTED RIGHTS LEGEND
  
 Use, reproduction and disclosure by the US Government is
 subject to restrictions as set forth in subparagraphs (a)
 and (c) of the Commercial Computer Software - Restricted
 Rights clause in FAR 52.227-19.
  
 Gaussian, Inc.
 340 Quinnipiac St., Bldg. 40, Wallingford CT 06492
  
  
 ---------------------------------------------------------------
 Warning -- This program may not be used in any manner that
 competes with the business of Gaussian, Inc. or will provide
 assistance to any competitor of Gaussian, Inc.  The licensee
 of this program is prohibited from giving any competitor of
 Gaussian, Inc. access to this program.  By using this program,
 the user acknowledges that Gaussian, Inc. is engaged in the
 business of creating and licensing software in the field of
 computational chemistry and represents and warrants to the
 licensee that it is not a competitor of Gaussian, Inc. and that
 it will not use this program in any manner prohibited above.
 ---------------------------------------------------------------
  

 Cite this work as:
 Gaussian 16, Revision C.01,
 M. J. Frisch, G. W. Trucks, H. B. Schlegel, G. E. Scuseria, 
 M. A. Robb, J. R. Cheeseman, G. Scalmani, V. Barone, 
 G. A. Petersson, H. Nakatsuji, X. Li, M. Caricato, A. V. Marenich, 
 J. Bloino, B. G. Janesko, R. Gomperts, B. Mennucci, H. P. Hratchian, 
 J. V. Ortiz, A. F. Izmaylov, J. L. Sonnenberg, D. Williams-Young, 
 F. Ding, F. Lipparini, F. Egidi, J. Goings, B. Peng, A. Petrone, 
 T. Henderson, D. Ranasinghe, V. G. Zakrzewski, J. Gao, N. Rega, 
 G. Zheng, W. Liang, M. Hada, M. Ehara, K. Toyota, R. Fukuda, 
 J. Hasegawa, M. Ishida, T. Nakajima, Y. Honda, O. Kitao, H. Nakai, 
 T. Vreven, K. Throssell, J. A. Montgomery, Jr., J. E. Peralta, 
 F. Ogliaro, M. J. Bearpark, J. J. Heyd, E. N. Brothers, K. N. Kudin, 
 V. N. Staroverov, T. A. Keith, R. Kobayashi, J. Normand, 
 K. Raghavachari, A. P. Rendell, J. C. Burant, S. S. Iyengar, 
 J. Tomasi, M. Cossi, J. M. Millam, M. Klene, C. Adamo, R. Cammi, 
 J. W. Ochterski, R. L. Martin, K. Morokuma, O. Farkas, 
 J. B. Foresman, and D. J. Fox, Gaussian, Inc., Wallingford CT, 2019.
 
 ******************************************
 Gaussian 16:  ES64L-G16RevC.01  3-Jul-2019
                24-May-2022 
 ******************************************
 %mem=8gb
 %nproc=4
 Will use up to    4 processors via shared memory.
 %chk=conf-344.chk
 ----------------------------------------------------------------------
 # B3LYP/6-31G* empiricaldispersion=gd3 guess=read geom=check nosymm in
 tegral(ultrafinegrid)
 ----------------------------------------------------------------------
 1/29=2,38=1,172=1/1;
 2/12=2,15=1,40=1/2;
 3/5=1,6=6,7=1,11=2,14=-4,25=1,30=1,74=-5,75=-5,116=-2,124=31/1,2,3;
 4/5=1/1;
 5/5=2,38=6/2;
 6/7=2,8=2,9=2,10=2,28=1/1;
 99/5=1,9=1/99;
 ------------------------------------------------------
 Candidate Structure: Conf:344 Charge calc in gas phase
 ------------------------------------------------------
 Structure from the checkpoint file:  "conf-344.chk"
 Charge =  1 Multiplicity = 1
 Redundant internal coordinates found in file.  (old form).
 N,0,-96.7174610989,-12.4518272715,3.3670773687
 C,0,-95.7713098489,-13.5096163044,2.8568964038
 C,0,-96.4160042855,-14.8288874142,3.338037534
 O,0,-97.633115656,-14.8498429393,3.5238171081
 C,0,-94.3292647946,-13.20365933,3.322290292
 C,0,-94.0301399487,-11.7346372407,3.2996747982
 C,0,-93.6685204899,-10.9711791887,4.3858485059
 C,0,-94.1711690816,-10.8286939086,2.1829745204
 C,0,-93.8717808495,-9.5258100841,2.6707840812
 C,0,-94.5252117521,-10.9828263122,0.827276611
 N,0,-93.5682199792,-9.6507217178,4.0133225078
 C,0,-93.9153661028,-8.3924798474,1.8528577035
 C,0,-94.5758577371,-9.8578624531,0.0143900495
 C,0,-94.2744085753,-8.5769476491,0.5231890597
 H,0,-96.5991935897,-12.3931563943,4.3960102662
 H,0,-95.8429787339,-13.4664370557,1.7660431554
 H,0,-94.2001360415,-13.585900208,4.3384543722
 H,0,-93.6493084042,-13.7584384239,2.6611152715
 H,0,-93.471909625,-11.2789352884,5.4039033823
 H,0,-93.2640507489,-8.8982603213,4.613226128
 H,0,-94.7196557467,-11.9668401228,0.4070063222
 H,0,-93.6763658804,-7.4066402135,2.2406861209
 H,0,-94.8384526673,-9.9640088967,-1.0336979618
 H,0,-94.3174712744,-7.7184765245,-0.139826673
 H,0,-96.5296781855,-11.5439833139,2.9271487831
 H,0,-97.6746355592,-12.7941369256,3.192324341
 N,0,-95.5766037454,-15.8513218326,3.5639430133
 C,0,-95.973296012,-17.2201593491,3.9388927551
 C,0,-97.1989595162,-17.2306222832,4.8907159808
 O,0,-98.2170976174,-17.8178853174,4.5729563736
 C,0,-96.2081854605,-18.1346117267,2.7108396009
 C,0,-96.1712152198,-19.6148349529,3.1527112368
 C,0,-95.1738951687,-17.8617167357,1.6080550757
 C,0,-96.7723278536,-20.5764194001,2.1223669698
 H,0,-94.6106098078,-15.7362604422,3.2893233612
 H,0,-95.1221283525,-17.6155329359,4.5066448208
 H,0,-97.2106066466,-17.9084504415,2.3311922
 H,0,-95.1274131963,-19.8935976228,3.3626146169
 H,0,-96.7256493558,-19.7277355772,4.0889111751
 H,0,-94.1469599905,-17.9819682282,1.9817233037
 H,0,-95.3006701763,-18.567666804,0.7836179618
 H,0,-95.2716647891,-16.8563843471,1.1832657019
 H,0,-96.7373909649,-21.6063329198,2.4920603373
 H,0,-96.236384645,-20.5540096591,1.1672337412
 H,0,-97.8214996088,-20.3259703262,1.9290468713
 N,0,-97.1029514628,-16.7191005208,6.1763173701
 C,0,-96.269171687,-15.7239807516,6.8653956072
 C,0,-96.7798364232,-14.3176899479,6.5336683623
 O,0,-96.1864054277,-13.4572947822,5.8925700888
 C,0,-94.7520029298,-15.8905929385,6.7129210793
 C,0,-93.8857798436,-14.8929925058,7.5109371543
 C,0,-94.2805706877,-14.7044747986,8.9794768897
 N,0,-95.5004889976,-13.9085099797,9.0771829297
 C,0,-96.2517797315,-13.9009453495,10.2734192196
 N,0,-96.0175495843,-14.519530957,11.3663372046
 N,0,-97.3825592657,-13.0886857444,10.1367317775
 O,0,-98.0288209696,-14.1384794659,6.986811685
 H,0,-98.3500212585,-13.2666255125,6.6899774212
 H,0,-97.9968890033,-16.8615813603,6.6362894765
 H,0,-96.5116072663,-15.8598935488,7.9210117808
 H,0,-94.5229763143,-16.9137888704,7.0326196716
 H,0,-94.4692546331,-15.8082401141,5.6628444995
 H,0,-93.8983674197,-13.9158379074,7.0119426276
 H,0,-92.8496668434,-15.2479781194,7.4682084929
 H,0,-94.4816286082,-15.6805744568,9.4370925368
 H,0,-93.4464473377,-14.2559598061,9.5403237916
 H,0,-95.4129441881,-12.9769921188,8.6820787915
 H,0,-95.0870284963,-14.9362772504,11.3907799749
 H,0,-97.9355233465,-13.3151290993,9.3156656643
 H,0,-97.9444248899,-13.1182623923,10.9815649139
 Recover connectivity data from disk.
                           ----------------------------
                           !    Current Parameters    !
                           ! (Angstroms and Degrees)  !
 --------------------------                            --------------------------
 ! Name  Definition              Value                                          !
 --------------------------------------------------------------------------------
 ! R1    R(1,2)                  1.5081                                         !
 ! R2    R(1,15)                 1.0374                                         !
 ! R3    R(1,25)                 1.0261                                         !
 ! R4    R(1,26)                 1.0315                                         !
 ! R5    R(2,3)                  1.5452                                         !
 ! R6    R(2,5)                  1.5459                                         !
 ! R7    R(2,16)                 1.0941                                         !
 ! R8    R(3,4)                  1.2314                                         !
 ! R9    R(3,27)                 1.342                                          !
 ! R10   R(5,6)                  1.4993                                         !
 ! R11   R(5,17)                 1.0933                                         !
 ! R12   R(5,18)                 1.0988                                         !
 ! R13   R(6,7)                  1.376                                          !
 ! R14   R(6,8)                  1.4449                                         !
 ! R15   R(7,11)                 1.3757                                         !
 ! R16   R(7,19)                 1.0816                                         !
 ! R17   R(8,9)                  1.4231                                         !
 ! R18   R(8,10)                 1.4096                                         !
 ! R19   R(9,11)                 1.3821                                         !
 ! R20   R(9,12)                 1.3983                                         !
 ! R21   R(10,13)                1.3888                                         !
 ! R22   R(10,21)                1.0875                                         !
 ! R23   R(11,20)                1.0093                                         !
 ! R24   R(12,14)                1.3896                                         !
 ! R25   R(12,22)                1.086                                          !
 ! R26   R(13,14)                1.4108                                         !
 ! R27   R(13,23)                1.0857                                         !
 ! R28   R(14,24)                1.0855                                         !
 ! R29   R(27,28)                1.4737                                         !
 ! R30   R(27,35)                1.0108                                         !
 ! R31   R(28,29)                1.5519                                         !
 ! R32   R(28,31)                1.549                                          !
 ! R33   R(28,36)                1.0969                                         !
 ! R34   R(29,30)                1.2176                                         !
 ! R35   R(29,46)                1.387                                          !
 ! R36   R(31,32)                1.5452                                         !
 ! R37   R(31,33)                1.5363                                         !
 ! R38   R(31,37)                1.0955                                         !
 ! R39   R(32,34)                1.5322                                         !
 ! R40   R(32,38)                1.1006                                         !
 ! R41   R(32,39)                1.0939                                         !
 ! R42   R(33,40)                1.0994                                         !
 ! R43   R(33,41)                1.0928                                         !
 ! R44   R(33,42)                1.0958                                         !
 ! R45   R(34,43)                1.0948                                         !
 ! R46   R(34,44)                1.0955                                         !
 ! R47   R(34,45)                1.0958                                         !
 ! R48   R(46,47)                1.4698                                         !
 ! R49   R(46,59)                1.0154                                         !
 ! R50   R(47,48)                1.5325                                         !
 ! R51   R(47,50)                1.5339                                         !
 ! R52   R(47,60)                1.0916                                         !
 ! R53   R(48,49)                1.2262                                         !
 ! R54   R(48,57)                1.3407                                         !
 ! R55   R(50,51)                1.5435                                         !
 ! R56   R(50,61)                1.0962                                         !
 ! R57   R(50,62)                1.0906                                         !
 ! R58   R(51,52)                1.5323                                         !
 ! R59   R(51,63)                1.0973                                         !
 ! R60   R(51,64)                1.0961                                         !
 ! R61   R(52,53)                1.4599                                         !
 ! R62   R(52,65)                1.0966                                         !
 ! R63   R(52,66)                1.1007                                         !
 ! R64   R(53,54)                1.4126                                         !
 ! R65   R(53,67)                1.0156                                         !
 ! R66   R(54,55)                1.2775                                         !
 ! R67   R(54,56)                1.399                                          !
 ! R68   R(55,68)                1.0199                                         !
 ! R69   R(56,69)                1.0155                                         !
 ! R70   R(56,70)                1.015                                          !
 ! R71   R(57,58)                0.9754                                         !
 ! A1    A(2,1,15)             107.679                                          !
 ! A2    A(2,1,25)             111.1429                                         !
 ! A3    A(2,1,26)             106.9841                                         !
 ! A4    A(15,1,25)            110.7525                                         !
 ! A5    A(15,1,26)            107.0145                                         !
 ! A6    A(25,1,26)            113.0039                                         !
 ! A7    A(1,2,3)              103.4004                                         !
 ! A8    A(1,2,5)              110.1558                                         !
 ! A9    A(1,2,16)             105.5762                                         !
 ! A10   A(3,2,5)              117.6744                                         !
 ! A11   A(3,2,16)             108.4716                                         !
 ! A12   A(5,2,16)             110.6999                                         !
 ! A13   A(2,3,4)              118.2876                                         !
 ! A14   A(2,3,27)             116.2268                                         !
 ! A15   A(4,3,27)             125.4411                                         !
 ! A16   A(2,5,6)              112.0542                                         !
 ! A17   A(2,5,17)             108.7106                                         !
 ! A18   A(2,5,18)             107.2287                                         !
 ! A19   A(6,5,17)             109.4509                                         !
 ! A20   A(6,5,18)             111.2333                                         !
 ! A21   A(17,5,18)            108.039                                          !
 ! A22   A(5,6,7)              125.7422                                         !
 ! A23   A(5,6,8)              127.3379                                         !
 ! A24   A(7,6,8)              106.729                                          !
 ! A25   A(6,7,11)             109.7534                                         !
 ! A26   A(6,7,19)             129.2646                                         !
 ! A27   A(11,7,19)            120.9818                                         !
 ! A28   A(6,8,9)              106.7736                                         !
 ! A29   A(6,8,10)             134.3682                                         !
 ! A30   A(9,8,10)             118.8571                                         !
 ! A31   A(8,9,11)             107.2441                                         !
 ! A32   A(8,9,12)             122.3423                                         !
 ! A33   A(11,9,12)            130.4127                                         !
 ! A34   A(8,10,13)            118.9142                                         !
 ! A35   A(8,10,21)            121.0313                                         !
 ! A36   A(13,10,21)           120.0129                                         !
 ! A37   A(7,11,9)             109.4988                                         !
 ! A38   A(7,11,20)            125.2154                                         !
 ! A39   A(9,11,20)            125.184                                          !
 ! A40   A(9,12,14)            117.3979                                         !
 ! A41   A(9,12,22)            121.3312                                         !
 ! A42   A(14,12,22)           121.2708                                         !
 ! A43   A(10,13,14)           121.1                                            !
 ! A44   A(10,13,23)           119.647                                          !
 ! A45   A(14,13,23)           119.2479                                         !
 ! A46   A(12,14,13)           121.3869                                         !
 ! A47   A(12,14,24)           119.3207                                         !
 ! A48   A(13,14,24)           119.2912                                         !
 ! A49   A(3,27,28)            125.6007                                         !
 ! A50   A(3,27,35)            117.7281                                         !
 ! A51   A(28,27,35)           115.6009                                         !
 ! A52   A(27,28,29)           112.0194                                         !
 ! A53   A(27,28,31)           112.7961                                         !
 ! A54   A(27,28,36)           104.9291                                         !
 ! A55   A(29,28,31)           111.254                                          !
 ! A56   A(29,28,36)           107.0361                                         !
 ! A57   A(31,28,36)           108.3747                                         !
 ! A58   A(28,29,30)           120.2396                                         !
 ! A59   A(28,29,46)           120.7543                                         !
 ! A60   A(30,29,46)           118.534                                          !
 ! A61   A(28,31,32)           109.5831                                         !
 ! A62   A(28,31,33)           111.2302                                         !
 ! A63   A(28,31,37)           106.955                                          !
 ! A64   A(32,31,33)           111.0579                                         !
 ! A65   A(32,31,37)           108.5877                                         !
 ! A66   A(33,31,37)           109.3046                                         !
 ! A67   A(31,32,34)           113.5475                                         !
 ! A68   A(31,32,38)           108.6546                                         !
 ! A69   A(31,32,39)           109.3586                                         !
 ! A70   A(34,32,38)           109.9607                                         !
 ! A71   A(34,32,39)           108.174                                          !
 ! A72   A(38,32,39)           106.9373                                         !
 ! A73   A(31,33,40)           111.4349                                         !
 ! A74   A(31,33,41)           110.4072                                         !
 ! A75   A(31,33,42)           112.4058                                         !
 ! A76   A(40,33,41)           107.1054                                         !
 ! A77   A(40,33,42)           108.3884                                         !
 ! A78   A(41,33,42)           106.8509                                         !
 ! A79   A(32,34,43)           110.5357                                         !
 ! A80   A(32,34,44)           112.4296                                         !
 ! A81   A(32,34,45)           110.5372                                         !
 ! A82   A(43,34,44)           107.3408                                         !
 ! A83   A(43,34,45)           107.7654                                         !
 ! A84   A(44,34,45)           108.0543                                         !
 ! A85   A(29,46,47)           136.3474                                         !
 ! A86   A(29,46,59)           107.8909                                         !
 ! A87   A(47,46,59)           112.461                                          !
 ! A88   A(46,47,48)           109.3163                                         !
 ! A89   A(46,47,50)           116.1645                                         !
 ! A90   A(46,47,60)           104.0689                                         !
 ! A91   A(48,47,50)           114.064                                          !
 ! A92   A(48,47,60)           104.4527                                         !
 ! A93   A(50,47,60)           107.5944                                         !
 ! A94   A(47,48,49)           126.5718                                         !
 ! A95   A(47,48,57)           111.0965                                         !
 ! A96   A(49,48,57)           122.2627                                         !
 ! A97   A(47,50,51)           115.6895                                         !
 ! A98   A(47,50,61)           106.2038                                         !
 ! A99   A(47,50,62)           110.1174                                         !
 ! A100  A(51,50,61)           109.588                                          !
 ! A101  A(51,50,62)           107.6683                                         !
 ! A102  A(61,50,62)           107.2855                                         !
 ! A103  A(50,51,52)           115.4944                                         !
 ! A104  A(50,51,63)           109.5129                                         !
 ! A105  A(50,51,64)           107.5194                                         !
 ! A106  A(52,51,63)           108.8637                                         !
 ! A107  A(52,51,64)           108.7086                                         !
 ! A108  A(63,51,64)           106.3519                                         !
 ! A109  A(51,52,53)           110.2739                                         !
 ! A110  A(51,52,65)           109.7339                                         !
 ! A111  A(51,52,66)           110.0734                                         !
 ! A112  A(53,52,65)           107.7077                                         !
 ! A113  A(53,52,66)           112.1469                                         !
 ! A114  A(65,52,66)           106.799                                          !
 ! A115  A(52,53,54)           120.2659                                         !
 ! A116  A(52,53,67)           113.7034                                         !
 ! A117  A(54,53,67)           111.7383                                         !
 ! A118  A(53,54,55)           128.6358                                         !
 ! A119  A(53,54,56)           110.503                                          !
 ! A120  A(55,54,56)           120.8596                                         !
 ! A121  A(54,55,68)           112.6845                                         !
 ! A122  A(54,56,69)           112.9342                                         !
 ! A123  A(54,56,70)           110.4374                                         !
 ! A124  A(69,56,70)           111.4106                                         !
 ! A125  A(48,57,58)           108.8687                                         !
 ! D1    D(15,1,2,3)            72.1971                                         !
 ! D2    D(15,1,2,5)           -54.3897                                         !
 ! D3    D(15,1,2,16)         -173.9412                                         !
 ! D4    D(25,1,2,3)          -166.3363                                         !
 ! D5    D(25,1,2,5)            67.077                                          !
 ! D6    D(25,1,2,16)          -52.4746                                         !
 ! D7    D(26,1,2,3)           -42.5412                                         !
 ! D8    D(26,1,2,5)          -169.1279                                         !
 ! D9    D(26,1,2,16)           71.3205                                         !
 ! D10   D(1,2,3,4)             26.134                                          !
 ! D11   D(1,2,3,27)          -151.5739                                         !
 ! D12   D(5,2,3,4)            147.7968                                         !
 ! D13   D(5,2,3,27)           -29.9111                                         !
 ! D14   D(16,2,3,4)           -85.6194                                         !
 ! D15   D(16,2,3,27)           96.6727                                         !
 ! D16   D(1,2,5,6)            -37.9241                                         !
 ! D17   D(1,2,5,17)            83.1768                                         !
 ! D18   D(1,2,5,18)          -160.2508                                         !
 ! D19   D(3,2,5,6)           -156.0404                                         !
 ! D20   D(3,2,5,17)           -34.9395                                         !
 ! D21   D(3,2,5,18)            81.6329                                         !
 ! D22   D(16,2,5,6)            78.4655                                         !
 ! D23   D(16,2,5,17)         -160.4335                                         !
 ! D24   D(16,2,5,18)          -43.8611                                         !
 ! D25   D(2,3,27,28)         -175.7098                                         !
 ! D26   D(2,3,27,35)           -8.1026                                         !
 ! D27   D(4,3,27,28)            6.7678                                         !
 ! D28   D(4,3,27,35)          174.375                                          !
 ! D29   D(2,5,6,7)            119.749                                          !
 ! D30   D(2,5,6,8)            -54.5523                                         !
 ! D31   D(17,5,6,7)            -0.9238                                         !
 ! D32   D(17,5,6,8)          -175.2251                                         !
 ! D33   D(18,5,6,7)          -120.2342                                         !
 ! D34   D(18,5,6,8)            65.4645                                         !
 ! D35   D(5,6,7,11)          -175.6293                                         !
 ! D36   D(5,6,7,19)             4.5522                                         !
 ! D37   D(8,6,7,11)            -0.358                                          !
 ! D38   D(8,6,7,19)           179.8235                                         !
 ! D39   D(5,6,8,9)            175.4146                                         !
 ! D40   D(5,6,8,10)            -4.1858                                         !
 ! D41   D(7,6,8,9)              0.2421                                         !
 ! D42   D(7,6,8,10)          -179.3583                                         !
 ! D43   D(6,7,11,9)             0.3429                                         !
 ! D44   D(6,7,11,20)         -176.1395                                         !
 ! D45   D(19,7,11,9)         -179.821                                          !
 ! D46   D(19,7,11,20)           3.6965                                         !
 ! D47   D(6,8,9,11)            -0.0406                                         !
 ! D48   D(6,8,9,12)          -179.7173                                         !
 ! D49   D(10,8,9,11)          179.6333                                         !
 ! D50   D(10,8,9,12)           -0.0435                                         !
 ! D51   D(6,8,10,13)          179.2813                                         !
 ! D52   D(6,8,10,21)           -3.0654                                         !
 ! D53   D(9,8,10,13)           -0.2819                                         !
 ! D54   D(9,8,10,21)          177.3714                                         !
 ! D55   D(8,9,11,7)            -0.179                                          !
 ! D56   D(8,9,11,20)          176.3048                                         !
 ! D57   D(12,9,11,7)          179.4623                                         !
 ! D58   D(12,9,11,20)          -4.0539                                         !
 ! D59   D(8,9,12,14)            0.3644                                         !
 ! D60   D(8,9,12,22)         -179.5312                                         !
 ! D61   D(11,9,12,14)        -179.2301                                         !
 ! D62   D(11,9,12,22)           0.8742                                         !
 ! D63   D(8,10,13,14)           0.2823                                         !
 ! D64   D(8,10,13,23)         179.451                                          !
 ! D65   D(21,10,13,14)       -177.3955                                         !
 ! D66   D(21,10,13,23)          1.7732                                         !
 ! D67   D(9,12,14,13)          -0.367                                          !
 ! D68   D(9,12,14,24)        -179.9518                                         !
 ! D69   D(22,12,14,13)        179.5288                                         !
 ! D70   D(22,12,14,24)         -0.056                                          !
 ! D71   D(10,13,14,12)          0.0499                                         !
 ! D72   D(10,13,14,24)        179.6348                                         !
 ! D73   D(23,13,14,12)       -179.1222                                         !
 ! D74   D(23,13,14,24)          0.4628                                         !
 ! D75   D(3,27,28,29)         -36.7629                                         !
 ! D76   D(3,27,28,31)          89.6875                                         !
 ! D77   D(3,27,28,36)        -152.5414                                         !
 ! D78   D(35,27,28,29)        155.3974                                         !
 ! D79   D(35,27,28,31)        -78.1522                                         !
 ! D80   D(35,27,28,36)         39.6189                                         !
 ! D81   D(27,28,29,30)        121.4518                                         !
 ! D82   D(27,28,29,46)        -66.5463                                         !
 ! D83   D(31,28,29,30)         -5.8305                                         !
 ! D84   D(31,28,29,46)        166.1714                                         !
 ! D85   D(36,28,29,30)       -124.056                                          !
 ! D86   D(36,28,29,46)         47.9459                                         !
 ! D87   D(27,28,31,32)        162.0438                                         !
 ! D88   D(27,28,31,33)         38.859                                          !
 ! D89   D(27,28,31,37)        -80.4298                                         !
 ! D90   D(29,28,31,32)        -71.0978                                         !
 ! D91   D(29,28,31,33)        165.7174                                         !
 ! D92   D(29,28,31,37)         46.4286                                         !
 ! D93   D(36,28,31,32)         46.3178                                         !
 ! D94   D(36,28,31,33)        -76.8669                                         !
 ! D95   D(36,28,31,37)        163.8443                                         !
 ! D96   D(28,29,46,47)         25.5864                                         !
 ! D97   D(28,29,46,59)       -177.4928                                         !
 ! D98   D(30,29,46,47)       -162.2779                                         !
 ! D99   D(30,29,46,59)         -5.3571                                         !
 ! D100  D(28,31,32,34)        163.7501                                         !
 ! D101  D(28,31,32,38)        -73.5556                                         !
 ! D102  D(28,31,32,39)         42.8369                                         !
 ! D103  D(33,31,32,34)        -72.9635                                         !
 ! D104  D(33,31,32,38)         49.7309                                         !
 ! D105  D(33,31,32,39)        166.1234                                         !
 ! D106  D(37,31,32,34)         47.2501                                         !
 ! D107  D(37,31,32,38)        169.9445                                         !
 ! D108  D(37,31,32,39)        -73.663                                          !
 ! D109  D(28,31,33,40)         56.5028                                         !
 ! D110  D(28,31,33,41)        175.398                                          !
 ! D111  D(28,31,33,42)        -65.3969                                         !
 ! D112  D(32,31,33,40)        -65.8332                                         !
 ! D113  D(32,31,33,41)         53.062                                          !
 ! D114  D(32,31,33,42)        172.2671                                         !
 ! D115  D(37,31,33,40)        174.3795                                         !
 ! D116  D(37,31,33,41)        -66.7254                                         !
 ! D117  D(37,31,33,42)         52.4797                                         !
 ! D118  D(31,32,34,43)       -178.9795                                         !
 ! D119  D(31,32,34,44)         61.0897                                         !
 ! D120  D(31,32,34,45)        -59.7524                                         !
 ! D121  D(38,32,34,43)         59.0491                                         !
 ! D122  D(38,32,34,44)        -60.8817                                         !
 ! D123  D(38,32,34,45)        178.2762                                         !
 ! D124  D(39,32,34,43)        -57.4029                                         !
 ! D125  D(39,32,34,44)       -177.3336                                         !
 ! D126  D(39,32,34,45)         61.8242                                         !
 ! D127  D(29,46,47,48)         78.9724                                         !
 ! D128  D(29,46,47,50)        -51.8422                                         !
 ! D129  D(29,46,47,60)       -169.8975                                         !
 ! D130  D(59,46,47,48)        -77.2198                                         !
 ! D131  D(59,46,47,50)        151.9655                                         !
 ! D132  D(59,46,47,60)         33.9103                                         !
 ! D133  D(46,47,48,49)       -113.93                                           !
 ! D134  D(46,47,48,57)         63.0833                                         !
 ! D135  D(50,47,48,49)         18.0026                                         !
 ! D136  D(50,47,48,57)       -164.9841                                         !
 ! D137  D(60,47,48,49)        135.1939                                         !
 ! D138  D(60,47,48,57)        -47.7928                                         !
 ! D139  D(46,47,50,51)       -176.3762                                         !
 ! D140  D(46,47,50,61)        -54.5593                                         !
 ! D141  D(46,47,50,62)         61.2879                                         !
 ! D142  D(48,47,50,51)         55.0867                                         !
 ! D143  D(48,47,50,61)        176.9036                                         !
 ! D144  D(48,47,50,62)        -67.2492                                         !
 ! D145  D(60,47,50,51)        -60.2769                                         !
 ! D146  D(60,47,50,61)         61.54                                           !
 ! D147  D(60,47,50,62)        177.3872                                         !
 ! D148  D(47,48,57,58)       -174.9737                                         !
 ! D149  D(49,48,57,58)          2.1897                                         !
 ! D150  D(47,50,51,52)         47.4504                                         !
 ! D151  D(47,50,51,63)        -75.8485                                         !
 ! D152  D(47,50,51,64)        168.9956                                         !
 ! D153  D(61,50,51,52)        -72.5405                                         !
 ! D154  D(61,50,51,63)        164.1607                                         !
 ! D155  D(61,50,51,64)         49.0047                                         !
 ! D156  D(62,50,51,52)        171.078                                          !
 ! D157  D(62,50,51,63)         47.7791                                         !
 ! D158  D(62,50,51,64)        -67.3768                                         !
 ! D159  D(50,51,52,53)        -74.16                                           !
 ! D160  D(50,51,52,65)         44.329                                          !
 ! D161  D(50,51,52,66)        161.5864                                         !
 ! D162  D(63,51,52,53)         49.4806                                         !
 ! D163  D(63,51,52,65)        167.9695                                         !
 ! D164  D(63,51,52,66)        -74.773                                          !
 ! D165  D(64,51,52,53)        164.9366                                         !
 ! D166  D(64,51,52,65)        -76.5745                                         !
 ! D167  D(64,51,52,66)         40.683                                          !
 ! D168  D(51,52,53,54)        162.9591                                         !
 ! D169  D(51,52,53,67)        -60.6111                                         !
 ! D170  D(65,52,53,54)         43.2366                                         !
 ! D171  D(65,52,53,67)        179.6665                                         !
 ! D172  D(66,52,53,54)        -73.9899                                         !
 ! D173  D(66,52,53,67)         62.4399                                         !
 ! D174  D(52,53,54,55)          0.2911                                         !
 ! D175  D(52,53,54,56)       -179.2485                                         !
 ! D176  D(67,53,54,55)       -136.911                                          !
 ! D177  D(67,53,54,56)         43.5494                                         !
 ! D178  D(53,54,55,68)         10.8028                                         !
 ! D179  D(56,54,55,68)       -169.6996                                         !
 ! D180  D(53,54,56,69)         51.857                                          !
 ! D181  D(53,54,56,70)        177.3553                                         !
 ! D182  D(55,54,56,69)       -127.7241                                         !
 ! D183  D(55,54,56,70)         -2.2258                                         !
 --------------------------------------------------------------------------------
 Symmetry turned off by external request.
 Stoichiometry    C23H36N7O4(1+)
 Framework group  C1[X(C23H36N7O4)]
 Deg. of freedom   204
 Full point group                 C1      NOp   1
                          Input orientation:                          
 ---------------------------------------------------------------------
 Center     Atomic      Atomic             Coordinates (Angstroms)
 Number     Number       Type             X           Y           Z
 ---------------------------------------------------------------------
      1          7           0      -96.717461  -12.451827    3.367077
      2          6           0      -95.771310  -13.509616    2.856896
      3          6           0      -96.416004  -14.828887    3.338038
      4          8           0      -97.633116  -14.849843    3.523817
      5          6           0      -94.329265  -13.203659    3.322290
      6          6           0      -94.030140  -11.734637    3.299675
      7          6           0      -93.668520  -10.971179    4.385849
      8          6           0      -94.171169  -10.828694    2.182975
      9          6           0      -93.871781   -9.525810    2.670784
     10          6           0      -94.525212  -10.982826    0.827277
     11          7           0      -93.568220   -9.650722    4.013323
     12          6           0      -93.915366   -8.392480    1.852858
     13          6           0      -94.575858   -9.857862    0.014390
     14          6           0      -94.274409   -8.576948    0.523189
     15          1           0      -96.599194  -12.393156    4.396010
     16          1           0      -95.842979  -13.466437    1.766043
     17          1           0      -94.200136  -13.585900    4.338454
     18          1           0      -93.649308  -13.758438    2.661115
     19          1           0      -93.471910  -11.278935    5.403903
     20          1           0      -93.264051   -8.898260    4.613226
     21          1           0      -94.719656  -11.966840    0.407006
     22          1           0      -93.676366   -7.406640    2.240686
     23          1           0      -94.838453   -9.964009   -1.033698
     24          1           0      -94.317471   -7.718477   -0.139827
     25          1           0      -96.529678  -11.543983    2.927149
     26          1           0      -97.674636  -12.794137    3.192324
     27          7           0      -95.576604  -15.851322    3.563943
     28          6           0      -95.973296  -17.220159    3.938893
     29          6           0      -97.198960  -17.230622    4.890716
     30          8           0      -98.217098  -17.817885    4.572956
     31          6           0      -96.208185  -18.134612    2.710840
     32          6           0      -96.171215  -19.614835    3.152711
     33          6           0      -95.173895  -17.861717    1.608055
     34          6           0      -96.772328  -20.576419    2.122367
     35          1           0      -94.610610  -15.736260    3.289323
     36          1           0      -95.122128  -17.615533    4.506645
     37          1           0      -97.210607  -17.908450    2.331192
     38          1           0      -95.127413  -19.893598    3.362615
     39          1           0      -96.725649  -19.727736    4.088911
     40          1           0      -94.146960  -17.981968    1.981723
     41          1           0      -95.300670  -18.567667    0.783618
     42          1           0      -95.271665  -16.856384    1.183266
     43          1           0      -96.737391  -21.606333    2.492060
     44          1           0      -96.236385  -20.554010    1.167234
     45          1           0      -97.821500  -20.325970    1.929047
     46          7           0      -97.102951  -16.719101    6.176317
     47          6           0      -96.269172  -15.723981    6.865396
     48          6           0      -96.779836  -14.317690    6.533668
     49          8           0      -96.186405  -13.457295    5.892570
     50          6           0      -94.752003  -15.890593    6.712921
     51          6           0      -93.885780  -14.892993    7.510937
     52          6           0      -94.280571  -14.704475    8.979477
     53          7           0      -95.500489  -13.908510    9.077183
     54          6           0      -96.251780  -13.900945   10.273419
     55          7           0      -96.017550  -14.519531   11.366337
     56          7           0      -97.382559  -13.088686   10.136732
     57          8           0      -98.028821  -14.138479    6.986812
     58          1           0      -98.350021  -13.266626    6.689977
     59          1           0      -97.996889  -16.861581    6.636289
     60          1           0      -96.511607  -15.859894    7.921012
     61          1           0      -94.522976  -16.913789    7.032620
     62          1           0      -94.469255  -15.808240    5.662844
     63          1           0      -93.898367  -13.915838    7.011943
     64          1           0      -92.849667  -15.247978    7.468208
     65          1           0      -94.481629  -15.680574    9.437093
     66          1           0      -93.446447  -14.255960    9.540324
     67          1           0      -95.412944  -12.976992    8.682079
     68          1           0      -95.087028  -14.936277   11.390780
     69          1           0      -97.935523  -13.315129    9.315666
     70          1           0      -97.944425  -13.118262   10.981565
 ---------------------------------------------------------------------
 Rotational constants (GHZ):           0.1258353           0.0868224           0.0578385
 Standard basis: 6-31G(d) (6D, 7F)
   582 basis functions,  1096 primitive gaussians,   582 cartesian basis functions
   127 alpha electrons      127 beta electrons
       nuclear repulsion energy      3845.6547357309 Hartrees.
 NAtoms=   70 NActive=   70 NUniq=   70 SFac= 1.00D+00 NAtFMM=   60 NAOKFM=T Big=T
 Integral buffers will be    131072 words long.
 Raffenetti 2 integral format.
 Two-electron integral symmetry is turned off.
 Nuclear repulsion after empirical dispersion term =     3845.5599304556 Hartrees.
 One-electron integrals computed using PRISM.
 NBasis=   582 RedAO= T EigKep=  3.77D-04  NBF=   582
 NBsUse=   582 1.00D-06 EigRej= -1.00D+00 NBFU=   582
 Initial guess from the checkpoint file:  "conf-344.chk"
 B after Tr=     0.000000    0.000000    0.000000
         Rot=    1.000000    0.000000    0.000000    0.000000 Ang=   0.00 deg.
 Requested convergence on RMS density matrix=1.00D-08 within 128 cycles.
 Requested convergence on MAX density matrix=1.00D-06.
 Requested convergence on             energy=1.00D-06.
 No special actions if energy rises.
 SCF Done:  E(RB3LYP) =  -1582.20063462     A.U. after    1 cycles
            NFock=  1  Conv=0.51D-08     -V/T= 2.0095

 **********************************************************************

            Population analysis using the SCF Density.

 **********************************************************************

 Alpha  occ. eigenvalues --  -19.33558 -19.28814 -19.26037 -19.21537 -14.58858
 Alpha  occ. eigenvalues --  -14.50458 -14.49496 -14.46472 -14.44207 -14.41621
 Alpha  occ. eigenvalues --  -14.36837 -10.46340 -10.43554 -10.40223 -10.39586
 Alpha  occ. eigenvalues --  -10.36062 -10.35991 -10.34956 -10.34026 -10.33998
 Alpha  occ. eigenvalues --  -10.33133 -10.31984 -10.30692 -10.30622 -10.30093
 Alpha  occ. eigenvalues --  -10.29884 -10.29813 -10.29461 -10.28822 -10.28686
 Alpha  occ. eigenvalues --  -10.28315 -10.27020 -10.25852 -10.24178  -1.24743
 Alpha  occ. eigenvalues --   -1.18747  -1.15694  -1.13981  -1.13318  -1.09468
 Alpha  occ. eigenvalues --   -1.06806  -1.05801  -1.02697  -0.97401  -0.95147
 Alpha  occ. eigenvalues --   -0.94026  -0.92213  -0.90993  -0.90510  -0.88679
 Alpha  occ. eigenvalues --   -0.85408  -0.84506  -0.83978  -0.82855  -0.80237
 Alpha  occ. eigenvalues --   -0.79916  -0.79418  -0.74752  -0.74442  -0.73894
 Alpha  occ. eigenvalues --   -0.73245  -0.72059  -0.71774  -0.70323  -0.69918
 Alpha  occ. eigenvalues --   -0.68330  -0.67376  -0.66786  -0.65641  -0.65037
 Alpha  occ. eigenvalues --   -0.64903  -0.63543  -0.63047  -0.62723  -0.62375
 Alpha  occ. eigenvalues --   -0.62132  -0.59816  -0.59426  -0.58885  -0.57961
 Alpha  occ. eigenvalues --   -0.57369  -0.57302  -0.56956  -0.56049  -0.55637
 Alpha  occ. eigenvalues --   -0.55374  -0.55124  -0.53961  -0.53893  -0.53849
 Alpha  occ. eigenvalues --   -0.53652  -0.53166  -0.53021  -0.52487  -0.52161
 Alpha  occ. eigenvalues --   -0.50695  -0.50579  -0.49840  -0.49762  -0.49408
 Alpha  occ. eigenvalues --   -0.49243  -0.48529  -0.47468  -0.46617  -0.46398
 Alpha  occ. eigenvalues --   -0.46219  -0.46128  -0.45502  -0.45068  -0.44489
 Alpha  occ. eigenvalues --   -0.44260  -0.44192  -0.43779  -0.42866  -0.42599
 Alpha  occ. eigenvalues --   -0.40863  -0.40641  -0.40023  -0.38765  -0.38363
 Alpha  occ. eigenvalues --   -0.35930  -0.35066  -0.34702  -0.33658  -0.33403
 Alpha  occ. eigenvalues --   -0.31900  -0.31657
 Alpha virt. eigenvalues --   -0.14079  -0.12598  -0.11804  -0.09398  -0.08614
 Alpha virt. eigenvalues --   -0.07870  -0.06522  -0.05324  -0.04816  -0.04344
 Alpha virt. eigenvalues --   -0.03547  -0.03015  -0.02083  -0.01914  -0.01534
 Alpha virt. eigenvalues --   -0.00571   0.00063   0.00320   0.00961   0.01463
 Alpha virt. eigenvalues --    0.01554   0.02159   0.02484   0.03147   0.03818
 Alpha virt. eigenvalues --    0.04382   0.04733   0.04992   0.05573   0.05916
 Alpha virt. eigenvalues --    0.05956   0.06704   0.06820   0.07301   0.07600
 Alpha virt. eigenvalues --    0.07936   0.08393   0.08711   0.09077   0.09258
 Alpha virt. eigenvalues --    0.09555   0.09780   0.09951   0.10524   0.10801
 Alpha virt. eigenvalues --    0.10960   0.11389   0.11677   0.11805   0.12990
 Alpha virt. eigenvalues --    0.13546   0.14054   0.14489   0.14767   0.15199
 Alpha virt. eigenvalues --    0.15693   0.16205   0.16546   0.16803   0.17238
 Alpha virt. eigenvalues --    0.18431   0.19371   0.20019   0.20266   0.20899
 Alpha virt. eigenvalues --    0.21601   0.22859   0.23509   0.24389   0.25535
 Alpha virt. eigenvalues --    0.25760   0.26717   0.29078   0.29385   0.31412
 Alpha virt. eigenvalues --    0.32361   0.34384   0.34988   0.35733   0.37698
 Alpha virt. eigenvalues --    0.38280   0.39355   0.40312   0.40919   0.41672
 Alpha virt. eigenvalues --    0.42167   0.42693   0.42873   0.43288   0.43881
 Alpha virt. eigenvalues --    0.44212   0.44941   0.45139   0.45862   0.45934
 Alpha virt. eigenvalues --    0.46606   0.47312   0.47439   0.47534   0.47984
 Alpha virt. eigenvalues --    0.48473   0.49154   0.49690   0.50038   0.50394
 Alpha virt. eigenvalues --    0.50493   0.50780   0.51072   0.51639   0.52061
 Alpha virt. eigenvalues --    0.52127   0.52319   0.52937   0.53572   0.53930
 Alpha virt. eigenvalues --    0.54245   0.54664   0.55412   0.56124   0.56452
 Alpha virt. eigenvalues --    0.57072   0.57224   0.57505   0.58230   0.59325
 Alpha virt. eigenvalues --    0.59870   0.60533   0.61811   0.62053   0.62176
 Alpha virt. eigenvalues --    0.63334   0.63427   0.65034   0.65279   0.66065
 Alpha virt. eigenvalues --    0.66252   0.66498   0.67121   0.67382   0.68534
 Alpha virt. eigenvalues --    0.68859   0.69307   0.69859   0.70406   0.70981
 Alpha virt. eigenvalues --    0.71747   0.71836   0.72615   0.72933   0.73230
 Alpha virt. eigenvalues --    0.73783   0.73945   0.74565   0.74819   0.75153
 Alpha virt. eigenvalues --    0.76079   0.76219   0.76533   0.76782   0.77266
 Alpha virt. eigenvalues --    0.77390   0.77904   0.78248   0.78772   0.79052
 Alpha virt. eigenvalues --    0.79862   0.80357   0.80729   0.81149   0.81710
 Alpha virt. eigenvalues --    0.82407   0.82600   0.82943   0.83227   0.83421
 Alpha virt. eigenvalues --    0.83958   0.84111   0.84530   0.84778   0.85202
 Alpha virt. eigenvalues --    0.85739   0.86337   0.86919   0.87193   0.87827
 Alpha virt. eigenvalues --    0.88120   0.88323   0.88639   0.88881   0.89933
 Alpha virt. eigenvalues --    0.90608   0.91913   0.92107   0.92869   0.93124
 Alpha virt. eigenvalues --    0.93697   0.94148   0.94587   0.95036   0.96851
 Alpha virt. eigenvalues --    0.97308   0.97537   0.98809   0.99502   1.01297
 Alpha virt. eigenvalues --    1.01711   1.02357   1.02979   1.03732   1.04270
 Alpha virt. eigenvalues --    1.06089   1.06707   1.07841   1.08282   1.09235
 Alpha virt. eigenvalues --    1.10324   1.12470   1.13393   1.13785   1.14521
 Alpha virt. eigenvalues --    1.15299   1.16333   1.17053   1.17790   1.18719
 Alpha virt. eigenvalues --    1.20494   1.21903   1.22639   1.23454   1.23783
 Alpha virt. eigenvalues --    1.24671   1.26342   1.27100   1.27567   1.28884
 Alpha virt. eigenvalues --    1.29343   1.29893   1.30361   1.30872   1.31137
 Alpha virt. eigenvalues --    1.31976   1.33248   1.33708   1.35086   1.36124
 Alpha virt. eigenvalues --    1.38259   1.38501   1.39044   1.39470   1.39876
 Alpha virt. eigenvalues --    1.40269   1.40988   1.42665   1.45609   1.46157
 Alpha virt. eigenvalues --    1.47230   1.47561   1.48213   1.49093   1.50175
 Alpha virt. eigenvalues --    1.50562   1.52342   1.53463   1.54701   1.55771
 Alpha virt. eigenvalues --    1.56792   1.57662   1.59925   1.60148   1.61551
 Alpha virt. eigenvalues --    1.62709   1.63583   1.63916   1.64369   1.65025
 Alpha virt. eigenvalues --    1.65774   1.66499   1.66833   1.67228   1.68243
 Alpha virt. eigenvalues --    1.69696   1.69819   1.71254   1.71521   1.71854
 Alpha virt. eigenvalues --    1.72426   1.73334   1.73760   1.75405   1.76117
 Alpha virt. eigenvalues --    1.76547   1.76768   1.76992   1.78201   1.78965
 Alpha virt. eigenvalues --    1.79995   1.80279   1.80838   1.82149   1.82564
 Alpha virt. eigenvalues --    1.82967   1.83719   1.84180   1.84633   1.85340
 Alpha virt. eigenvalues --    1.86090   1.86474   1.87108   1.88031   1.89011
 Alpha virt. eigenvalues --    1.89299   1.89780   1.89976   1.90870   1.91166
 Alpha virt. eigenvalues --    1.92125   1.92801   1.93191   1.93554   1.94651
 Alpha virt. eigenvalues --    1.96062   1.96310   1.97405   1.98389   1.99609
 Alpha virt. eigenvalues --    2.00184   2.01894   2.02235   2.02415   2.03399
 Alpha virt. eigenvalues --    2.04052   2.05135   2.05579   2.06361   2.07068
 Alpha virt. eigenvalues --    2.08345   2.10001   2.10651   2.12937   2.14076
 Alpha virt. eigenvalues --    2.14615   2.15045   2.15722   2.16001   2.16729
 Alpha virt. eigenvalues --    2.16784   2.18997   2.19821   2.20612   2.20820
 Alpha virt. eigenvalues --    2.21938   2.22768   2.23294   2.23439   2.23844
 Alpha virt. eigenvalues --    2.24960   2.26013   2.27035   2.28504   2.28621
 Alpha virt. eigenvalues --    2.30227   2.31216   2.32196   2.32884   2.34389
 Alpha virt. eigenvalues --    2.35449   2.35699   2.37365   2.37374   2.39197
 Alpha virt. eigenvalues --    2.39342   2.40456   2.42798   2.42889   2.43465
 Alpha virt. eigenvalues --    2.44366   2.45402   2.45935   2.47584   2.48309
 Alpha virt. eigenvalues --    2.49194   2.50074   2.50475   2.52246   2.53037
 Alpha virt. eigenvalues --    2.54668   2.55151   2.55901   2.56521   2.57378
 Alpha virt. eigenvalues --    2.57901   2.58318   2.60039   2.60144   2.62687
 Alpha virt. eigenvalues --    2.63183   2.63746   2.65379   2.66907   2.67627
 Alpha virt. eigenvalues --    2.70716   2.71365   2.72331   2.74335   2.76859
 Alpha virt. eigenvalues --    2.78483   2.81854   2.85437   2.86842   2.89566
 Alpha virt. eigenvalues --    2.90395   2.93354   2.93587   2.94476   2.97244
 Alpha virt. eigenvalues --    2.97610   3.01841   3.05532   3.07216   3.13671
 Alpha virt. eigenvalues --    3.33038   3.70155   3.75618   3.78456   3.82612
 Alpha virt. eigenvalues --    3.87180   3.90307   3.92280   3.96471   3.99039
 Alpha virt. eigenvalues --    3.99796   4.02213   4.04257   4.06916   4.09533
 Alpha virt. eigenvalues --    4.11359   4.13998   4.16110   4.20045   4.20778
 Alpha virt. eigenvalues --    4.22752   4.24843   4.28824   4.30258   4.34123
 Alpha virt. eigenvalues --    4.34688   4.37542   4.40993   4.43779   4.45777
 Alpha virt. eigenvalues --    4.49797   4.54328   4.58726   4.62133   4.69136
          Condensed to atoms (all electrons):
 Mulliken charges:
               1
     1  N   -0.747141
     2  C   -0.124896
     3  C    0.668384
     4  O   -0.536053
     5  C   -0.392952
     6  C    0.010008
     7  C    0.012538
     8  C    0.052785
     9  C    0.315271
    10  C   -0.236466
    11  N   -0.679710
    12  C   -0.153566
    13  C   -0.131856
    14  C   -0.148069
    15  H    0.424392
    16  H    0.227679
    17  H    0.200131
    18  H    0.183061
    19  H    0.172733
    20  H    0.350846
    21  H    0.129181
    22  H    0.155765
    23  H    0.154005
    24  H    0.160349
    25  H    0.414683
    26  H    0.415130
    27  N   -0.623491
    28  C   -0.058231
    29  C    0.618185
    30  O   -0.467584
    31  C   -0.062284
    32  C   -0.268722
    33  C   -0.475731
    34  C   -0.454916
    35  H    0.355173
    36  H    0.171958
    37  H    0.173348
    38  H    0.128388
    39  H    0.164218
    40  H    0.137159
    41  H    0.183348
    42  H    0.124913
    43  H    0.161573
    44  H    0.148232
    45  H    0.163921
    46  N   -0.617392
    47  C   -0.035651
    48  C    0.665121
    49  O   -0.543119
    50  C   -0.287769
    51  C   -0.293016
    52  C   -0.145494
    53  N   -0.630038
    54  C    0.559238
    55  N   -0.613508
    56  N   -0.755975
    57  O   -0.544134
    58  H    0.419991
    59  H    0.354792
    60  H    0.214280
    61  H    0.174702
    62  H    0.143616
    63  H    0.145722
    64  H    0.163340
    65  H    0.169019
    66  H    0.163838
    67  H    0.325884
    68  H    0.287835
    69  H    0.316526
    70  H    0.346500
 Sum of Mulliken charges =   1.00000
 Mulliken charges with hydrogens summed into heavy atoms:
               1
     1  N    0.507064
     2  C    0.102782
     3  C    0.668384
     4  O   -0.536053
     5  C   -0.009760
     6  C    0.010008
     7  C    0.185271
     8  C    0.052785
     9  C    0.315271
    10  C   -0.107285
    11  N   -0.328864
    12  C    0.002200
    13  C    0.022149
    14  C    0.012280
    27  N   -0.268318
    28  C    0.113727
    29  C    0.618185
    30  O   -0.467584
    31  C    0.111065
    32  C    0.023883
    33  C   -0.030311
    34  C    0.018810
    46  N   -0.262600
    47  C    0.178629
    48  C    0.665121
    49  O   -0.543119
    50  C    0.030549
    51  C    0.016046
    52  C    0.187364
    53  N   -0.304154
    54  C    0.559238
    55  N   -0.325672
    56  N   -0.092949
    57  O   -0.124143
 Electronic spatial extent (au):  <R**2>=        8524407.9557
 Charge=              1.0000 electrons
 Dipole moment (field-independent basis, Debye):
    X=           -456.5301    Y=            -60.6279    Z=             19.0051  Tot=            460.9302
 Quadrupole moment (field-independent basis, Debye-Ang):
   XX=          43201.8457   YY=            609.4276   ZZ=           -112.7576
   XY=           5750.5541   XZ=          -1802.0430   YZ=           -243.8943
 Traceless Quadrupole moment (field-independent basis, Debye-Ang):
   XX=          28635.6739   YY=         -13956.7443   ZZ=         -14678.9295
   XY=           5750.5541   XZ=          -1802.0430   YZ=           -243.8943
 Octapole moment (field-independent basis, Debye-Ang**2):
  XXX=       -4069785.5788  YYY=          -2835.6640  ZZZ=          -2584.9669  XYY=         -57407.5530
  XXY=        -542664.7385  XXZ=         170039.6629  XZZ=          10881.2441  YZZ=           1717.4519
  YYZ=           2336.7491  XYZ=          23065.7902
 Hexadecapole moment (field-independent basis, Debye-Ang**3):
 XXXX=      381581690.3887 YYYY=         -87003.8162 ZZZZ=         -39595.1295 XXXY=       50937629.0704
 XXXZ=      -15963470.8611 YYYX=         253684.8469 YYYZ=          -4921.7064 ZZZX=         248669.2918
 ZZZY=          38043.0257 XXYY=        5364427.4891 XXZZ=       -1055427.5620 YYZZ=         -33265.0722
 XXYZ=       -2168893.5146 YYXZ=        -218638.2525 ZZXY=        -166362.7487
 N-N= 3.845559930456D+03 E-N=-1.134352857182D+04  KE= 1.567316639790D+03
 Unable to Open any file for archive entry.
 1\1\GINC-QML-000\SP\RB3LYP\6-31G(d)\C23H36N7O4(1+)\KENGMITH\24-May-202
 2\0\\# B3LYP/6-31G* empiricaldispersion=gd3 guess=read geom=check nosy
 mm integral(ultrafinegrid)\\Candidate Structure: Conf:344 Charge calc 
 in gas phase\\1,1\N,0,-96.7174610989,-12.4518272715,3.3670773687\C,0,-
 95.7713098489,-13.5096163044,2.8568964038\C,0,-96.4160042855,-14.82888
 74142,3.338037534\O,0,-97.633115656,-14.8498429393,3.5238171081\C,0,-9
 4.3292647946,-13.20365933,3.322290292\C,0,-94.0301399487,-11.734637240
 7,3.2996747982\C,0,-93.6685204899,-10.9711791887,4.3858485059\C,0,-94.
 1711690816,-10.8286939086,2.1829745204\C,0,-93.8717808495,-9.525810084
 1,2.6707840812\C,0,-94.5252117521,-10.9828263122,0.827276611\N,0,-93.5
 682199792,-9.6507217178,4.0133225078\C,0,-93.9153661028,-8.3924798474,
 1.8528577035\C,0,-94.5758577371,-9.8578624531,0.0143900495\C,0,-94.274
 4085753,-8.5769476491,0.5231890597\H,0,-96.5991935897,-12.3931563943,4
 .3960102662\H,0,-95.8429787339,-13.4664370557,1.7660431554\H,0,-94.200
 1360415,-13.585900208,4.3384543722\H,0,-93.6493084042,-13.7584384239,2
 .6611152715\H,0,-93.471909625,-11.2789352884,5.4039033823\H,0,-93.2640
 507489,-8.8982603213,4.613226128\H,0,-94.7196557467,-11.9668401228,0.4
 070063222\H,0,-93.6763658804,-7.4066402135,2.2406861209\H,0,-94.838452
 6673,-9.9640088967,-1.0336979618\H,0,-94.3174712744,-7.7184765245,-0.1
 39826673\H,0,-96.5296781855,-11.5439833139,2.9271487831\H,0,-97.674635
 5592,-12.7941369256,3.192324341\N,0,-95.5766037454,-15.8513218326,3.56
 39430133\C,0,-95.973296012,-17.2201593491,3.9388927551\C,0,-97.1989595
 162,-17.2306222832,4.8907159808\O,0,-98.2170976174,-17.8178853174,4.57
 29563736\C,0,-96.2081854605,-18.1346117267,2.7108396009\C,0,-96.171215
 2198,-19.6148349529,3.1527112368\C,0,-95.1738951687,-17.8617167357,1.6
 080550757\C,0,-96.7723278536,-20.5764194001,2.1223669698\H,0,-94.61060
 98078,-15.7362604422,3.2893233612\H,0,-95.1221283525,-17.6155329359,4.
 5066448208\H,0,-97.2106066466,-17.9084504415,2.3311922\H,0,-95.1274131
 963,-19.8935976228,3.3626146169\H,0,-96.7256493558,-19.7277355772,4.08
 89111751\H,0,-94.1469599905,-17.9819682282,1.9817233037\H,0,-95.300670
 1763,-18.567666804,0.7836179618\H,0,-95.2716647891,-16.8563843471,1.18
 32657019\H,0,-96.7373909649,-21.6063329198,2.4920603373\H,0,-96.236384
 645,-20.5540096591,1.1672337412\H,0,-97.8214996088,-20.3259703262,1.92
 90468713\N,0,-97.1029514628,-16.7191005208,6.1763173701\C,0,-96.269171
 687,-15.7239807516,6.8653956072\C,0,-96.7798364232,-14.3176899479,6.53
 36683623\O,0,-96.1864054277,-13.4572947822,5.8925700888\C,0,-94.752002
 9298,-15.8905929385,6.7129210793\C,0,-93.8857798436,-14.8929925058,7.5
 109371543\C,0,-94.2805706877,-14.7044747986,8.9794768897\N,0,-95.50048
 89976,-13.9085099797,9.0771829297\C,0,-96.2517797315,-13.9009453495,10
 .2734192196\N,0,-96.0175495843,-14.519530957,11.3663372046\N,0,-97.382
 5592657,-13.0886857444,10.1367317775\O,0,-98.0288209696,-14.1384794659
 ,6.986811685\H,0,-98.3500212585,-13.2666255125,6.6899774212\H,0,-97.99
 68890033,-16.8615813603,6.6362894765\H,0,-96.5116072663,-15.8598935488
 ,7.9210117808\H,0,-94.5229763143,-16.9137888704,7.0326196716\H,0,-94.4
 692546331,-15.8082401141,5.6628444995\H,0,-93.8983674197,-13.915837907
 4,7.0119426276\H,0,-92.8496668434,-15.2479781194,7.4682084929\H,0,-94.
 4816286082,-15.6805744568,9.4370925368\H,0,-93.4464473377,-14.25595980
 61,9.5403237916\H,0,-95.4129441881,-12.9769921188,8.6820787915\H,0,-95
 .0870284963,-14.9362772504,11.3907799749\H,0,-97.9355233465,-13.315129
 0993,9.3156656643\H,0,-97.9444248899,-13.1182623923,10.9815649139\\Ver
 sion=ES64L-G16RevC.01\HF=-1582.2006346\RMSD=5.141e-09\Dipole=1.1723878
 ,3.0037098,-1.4958028\Quadrupole=21289.9216624,-10376.4973361,-10913.4
 243263,4275.3960225,-1339.7748272,-181.3294458\PG=C01 [X(C23H36N7O4)]\
 \@
 The archive entry for this job was punched.


 LIFE IS A CONTINUAL STRUGGLE AGAINST THE TENDENCY TO PRODUCE ENTROPY.
 Job cpu time:       0 days  0 hours  2 minutes 26.3 seconds.
 Elapsed time:       0 days  0 hours  0 minutes 37.1 seconds.
 File lengths (MBytes):  RWF=    296 Int=      0 D2E=      0 Chk=     40 Scr=     16
 Normal termination of Gaussian 16 at Tue May 24 23:12:44 2022.
