 Entering Gaussian System, Link 0=/opt/software/Gaussian/g16-AVX-C.01/g16/g16
 Input=charge-conf-472.com
 Output=charge-conf-472.log
 Initial command:
 /opt/software/Gaussian/g16-AVX-C.01/g16/l1.exe "/mnt/gs18/scratch/users/kengmith/Gau-16413.inp" -scrdir="/mnt/gs18/scratch/users/kengmith/"
 Entering Link 1 = /opt/software/Gaussian/g16-AVX-C.01/g16/l1.exe PID=     16427.
  
 Copyright (c) 1988-2019, Gaussian, Inc.  All Rights Reserved.
  
 This is part of the Gaussian(R) 16 program.  It is based on
 the Gaussian(R) 09 system (copyright 2009, Gaussian, Inc.),
 the Gaussian(R) 03 system (copyright 2003, Gaussian, Inc.),
 the Gaussian(R) 98 system (copyright 1998, Gaussian, Inc.),
 the Gaussian(R) 94 system (copyright 1995, Gaussian, Inc.),
 the Gaussian 92(TM) system (copyright 1992, Gaussian, Inc.),
 the Gaussian 90(TM) system (copyright 1990, Gaussian, Inc.),
 the Gaussian 88(TM) system (copyright 1988, Gaussian, Inc.),
 the Gaussian 86(TM) system (copyright 1986, Carnegie Mellon
 University), and the Gaussian 82(TM) system (copyright 1983,
 Carnegie Mellon University). Gaussian is a federally registered
 trademark of Gaussian, Inc.
  
 This software contains proprietary and confidential information,
 including trade secrets, belonging to Gaussian, Inc.
  
 This software is provided under written license and may be
 used, copied, transmitted, or stored only in accord with that
 written license.
  
 The following legend is applicable only to US Government
 contracts under FAR:
  
                    RESTRICTED RIGHTS LEGEND
  
 Use, reproduction and disclosure by the US Government is
 subject to restrictions as set forth in subparagraphs (a)
 and (c) of the Commercial Computer Software - Restricted
 Rights clause in FAR 52.227-19.
  
 Gaussian, Inc.
 340 Quinnipiac St., Bldg. 40, Wallingford CT 06492
  
  
 ---------------------------------------------------------------
 Warning -- This program may not be used in any manner that
 competes with the business of Gaussian, Inc. or will provide
 assistance to any competitor of Gaussian, Inc.  The licensee
 of this program is prohibited from giving any competitor of
 Gaussian, Inc. access to this program.  By using this program,
 the user acknowledges that Gaussian, Inc. is engaged in the
 business of creating and licensing software in the field of
 computational chemistry and represents and warrants to the
 licensee that it is not a competitor of Gaussian, Inc. and that
 it will not use this program in any manner prohibited above.
 ---------------------------------------------------------------
  

 Cite this work as:
 Gaussian 16, Revision C.01,
 M. J. Frisch, G. W. Trucks, H. B. Schlegel, G. E. Scuseria, 
 M. A. Robb, J. R. Cheeseman, G. Scalmani, V. Barone, 
 G. A. Petersson, H. Nakatsuji, X. Li, M. Caricato, A. V. Marenich, 
 J. Bloino, B. G. Janesko, R. Gomperts, B. Mennucci, H. P. Hratchian, 
 J. V. Ortiz, A. F. Izmaylov, J. L. Sonnenberg, D. Williams-Young, 
 F. Ding, F. Lipparini, F. Egidi, J. Goings, B. Peng, A. Petrone, 
 T. Henderson, D. Ranasinghe, V. G. Zakrzewski, J. Gao, N. Rega, 
 G. Zheng, W. Liang, M. Hada, M. Ehara, K. Toyota, R. Fukuda, 
 J. Hasegawa, M. Ishida, T. Nakajima, Y. Honda, O. Kitao, H. Nakai, 
 T. Vreven, K. Throssell, J. A. Montgomery, Jr., J. E. Peralta, 
 F. Ogliaro, M. J. Bearpark, J. J. Heyd, E. N. Brothers, K. N. Kudin, 
 V. N. Staroverov, T. A. Keith, R. Kobayashi, J. Normand, 
 K. Raghavachari, A. P. Rendell, J. C. Burant, S. S. Iyengar, 
 J. Tomasi, M. Cossi, J. M. Millam, M. Klene, C. Adamo, R. Cammi, 
 J. W. Ochterski, R. L. Martin, K. Morokuma, O. Farkas, 
 J. B. Foresman, and D. J. Fox, Gaussian, Inc., Wallingford CT, 2019.
 
 ******************************************
 Gaussian 16:  ES64L-G16RevC.01  3-Jul-2019
                24-May-2022 
 ******************************************
 %mem=8gb
 %nproc=4
 Will use up to    4 processors via shared memory.
 %chk=conf-472.chk
 ----------------------------------------------------------------------
 # B3LYP/6-31G* empiricaldispersion=gd3 guess=read geom=check nosymm in
 tegral(ultrafinegrid)
 ----------------------------------------------------------------------
 1/29=2,38=1,172=1/1;
 2/12=2,15=1,40=1/2;
 3/5=1,6=6,7=1,11=2,14=-4,25=1,30=1,74=-5,75=-5,116=-2,124=31/1,2,3;
 4/5=1/1;
 5/5=2,38=6/2;
 6/7=2,8=2,9=2,10=2,28=1/1;
 99/5=1,9=1/99;
 ------------------------------------------------------
 Candidate Structure: Conf:472 Charge calc in gas phase
 ------------------------------------------------------
 Structure from the checkpoint file:  "conf-472.chk"
 Charge =  1 Multiplicity = 1
 Redundant internal coordinates found in file.  (old form).
 N,0,-93.5103053381,-14.9213539152,5.3588070586
 C,0,-94.8448428178,-15.3312499765,5.929308998
 C,0,-95.6400520035,-15.7894573797,4.686242754
 O,0,-95.0118208679,-16.2067416263,3.7128458358
 C,0,-95.4369207282,-14.1828354561,6.7779222201
 C,0,-94.3814495001,-13.4577378698,7.5578315137
 C,0,-94.075608898,-12.1207962266,7.4464553358
 C,0,-93.4211979494,-14.0291393841,8.4738446542
 C,0,-92.563401404,-12.9699913995,8.8831141802
 C,0,-93.1940744638,-15.3238822486,8.9828916249
 N,0,-92.9923238557,-11.823914414,8.2407030206
 C,0,-91.5033135142,-13.1674485641,9.7733743539
 C,0,-92.1375784596,-15.5240205787,9.8619141858
 C,0,-91.3016634422,-14.4564269425,10.2517534403
 H,0,-93.6475774727,-14.0308977432,4.8447065781
 H,0,-94.6413072737,-16.2072685051,6.5522967256
 H,0,-95.9446435209,-13.4802493415,6.1116216476
 H,0,-96.1904126104,-14.6253807815,7.4439944717
 H,0,-94.5588182079,-11.3550200832,6.8549436968
 H,0,-92.6064681162,-10.9014399885,8.3776548951
 H,0,-93.8530369982,-16.1504125503,8.7272357315
 H,0,-90.8632741076,-12.3456016413,10.080505277
 H,0,-91.9572314397,-16.5145589426,10.2681405907
 H,0,-90.4879638987,-14.6448767165,10.9451485457
 H,0,-92.8096354227,-14.8088952997,6.1000638749
 H,0,-93.2487374205,-15.6353442361,4.6618490376
 N,0,-96.9732778379,-15.6498064146,4.750060814
 C,0,-97.9320754699,-16.1023341938,3.7266044156
 C,0,-97.3823484341,-15.9092629978,2.2882309571
 O,0,-97.2730296035,-16.8638723346,1.5404050464
 C,0,-98.4103789789,-17.5580892752,3.9542867992
 C,0,-99.7091054625,-17.8077083659,3.1551734559
 C,0,-98.6172508987,-17.8485200201,5.4486959055
 C,0,-100.0501498098,-19.2922228606,2.9892936937
 H,0,-97.3759577545,-15.3794268731,5.6369315409
 H,0,-98.7952706469,-15.4339598608,3.8328497535
 H,0,-97.6273812001,-18.2165528978,3.5625521941
 H,0,-100.5375015492,-17.2858399733,3.657873918
 H,0,-99.6121986941,-17.366421535,2.1589269792
 H,0,-97.6802623066,-17.8087174979,6.0154246396
 H,0,-99.3264505489,-17.1407387012,5.90120063
 H,0,-99.0298234885,-18.850684806,5.5885323134
 H,0,-100.9662366985,-19.4124915765,2.4019822344
 H,0,-100.2098005314,-19.7942913651,3.9497367392
 H,0,-99.2441387863,-19.8153502976,2.4624653586
 N,0,-97.1638452449,-14.638746938,1.7765508472
 C,0,-96.8780505536,-13.3056963276,2.3257403325
 C,0,-95.3948249883,-13.2193435981,2.70106839
 O,0,-94.9325765196,-13.1016293689,3.8306253671
 C,0,-97.830927139,-12.8065348201,3.4191880141
 C,0,-97.5743641887,-11.3716665147,3.9268977647
 C,0,-97.3720980676,-10.3128701409,2.8378679734
 N,0,-96.054534745,-10.4611037048,2.2268895356
 C,0,-95.7739412986,-9.8518102895,0.9836897833
 N,0,-96.5410682409,-9.135694653,0.2552375537
 N,0,-94.4646203472,-10.1376789301,0.5823448156
 O,0,-94.6147365501,-13.3544287306,1.6190864932
 H,0,-93.6819418432,-13.3753168396,1.9034138788
 H,0,-96.8465947618,-14.7393489604,0.8172704819
 H,0,-96.9813025469,-12.6378685965,1.4685056232
 H,0,-98.8408148157,-12.8722500829,2.9980187036
 H,0,-97.7952194201,-13.4738027527,4.2809918244
 H,0,-96.7010490685,-11.3686004164,4.5912273524
 H,0,-98.4324764662,-11.0817083691,4.5440897839
 H,0,-98.1223860851,-10.4448216906,2.0490160177
 H,0,-97.5244232649,-9.3064186121,3.2566095325
 H,0,-95.2861694532,-10.3505770016,2.8817993057
 H,0,-97.4001537578,-8.8667259279,0.7345886022
 H,0,-94.2531829116,-11.1307319171,0.6006629924
 H,0,-94.2781979799,-9.7359882387,-0.3310060759
 Recover connectivity data from disk.
                           ----------------------------
                           !    Current Parameters    !
                           ! (Angstroms and Degrees)  !
 --------------------------                            --------------------------
 ! Name  Definition              Value                                          !
 --------------------------------------------------------------------------------
 ! R1    R(1,2)                  1.5081                                         !
 ! R2    R(1,15)                 1.0373                                         !
 ! R3    R(1,25)                 1.0262                                         !
 ! R4    R(1,26)                 1.0315                                         !
 ! R5    R(2,3)                  1.5452                                         !
 ! R6    R(2,5)                  1.5458                                         !
 ! R7    R(2,16)                 1.0941                                         !
 ! R8    R(3,4)                  1.2314                                         !
 ! R9    R(3,27)                 1.342                                          !
 ! R10   R(5,6)                  1.4993                                         !
 ! R11   R(5,17)                 1.0933                                         !
 ! R12   R(5,18)                 1.0987                                         !
 ! R13   R(6,7)                  1.376                                          !
 ! R14   R(6,8)                  1.4449                                         !
 ! R15   R(7,11)                 1.3757                                         !
 ! R16   R(7,19)                 1.0816                                         !
 ! R17   R(8,9)                  1.4231                                         !
 ! R18   R(8,10)                 1.4096                                         !
 ! R19   R(9,11)                 1.3821                                         !
 ! R20   R(9,12)                 1.3983                                         !
 ! R21   R(10,13)                1.3889                                         !
 ! R22   R(10,21)                1.0875                                         !
 ! R23   R(11,20)                1.0093                                         !
 ! R24   R(12,14)                1.3896                                         !
 ! R25   R(12,22)                1.086                                          !
 ! R26   R(13,14)                1.4108                                         !
 ! R27   R(13,23)                1.0857                                         !
 ! R28   R(14,24)                1.0855                                         !
 ! R29   R(27,28)                1.4736                                         !
 ! R30   R(27,35)                1.0108                                         !
 ! R31   R(28,29)                1.5519                                         !
 ! R32   R(28,31)                1.5491                                         !
 ! R33   R(28,36)                1.0969                                         !
 ! R34   R(29,30)                1.2176                                         !
 ! R35   R(29,46)                1.387                                          !
 ! R36   R(31,32)                1.5452                                         !
 ! R37   R(31,33)                1.5364                                         !
 ! R38   R(31,37)                1.0955                                         !
 ! R39   R(32,34)                1.5322                                         !
 ! R40   R(32,38)                1.1006                                         !
 ! R41   R(32,39)                1.0939                                         !
 ! R42   R(33,40)                1.0958                                         !
 ! R43   R(33,41)                1.0994                                         !
 ! R44   R(33,42)                1.0928                                         !
 ! R45   R(34,43)                1.0948                                         !
 ! R46   R(34,44)                1.0955                                         !
 ! R47   R(34,45)                1.0958                                         !
 ! R48   R(46,47)                1.4698                                         !
 ! R49   R(46,59)                1.0154                                         !
 ! R50   R(47,48)                1.5324                                         !
 ! R51   R(47,50)                1.5339                                         !
 ! R52   R(47,60)                1.0916                                         !
 ! R53   R(48,49)                1.2261                                         !
 ! R54   R(48,57)                1.3407                                         !
 ! R55   R(50,51)                1.5435                                         !
 ! R56   R(50,61)                1.0962                                         !
 ! R57   R(50,62)                1.0905                                         !
 ! R58   R(51,52)                1.5323                                         !
 ! R59   R(51,63)                1.0973                                         !
 ! R60   R(51,64)                1.0961                                         !
 ! R61   R(52,53)                1.4599                                         !
 ! R62   R(52,65)                1.0966                                         !
 ! R63   R(52,66)                1.1007                                         !
 ! R64   R(53,54)                1.4126                                         !
 ! R65   R(53,67)                1.0156                                         !
 ! R66   R(54,55)                1.2775                                         !
 ! R67   R(54,56)                1.399                                          !
 ! R68   R(55,68)                1.0199                                         !
 ! R69   R(56,69)                1.0155                                         !
 ! R70   R(56,70)                1.015                                          !
 ! R71   R(57,58)                0.9754                                         !
 ! A1    A(2,1,15)             107.679                                          !
 ! A2    A(2,1,25)             111.1452                                         !
 ! A3    A(2,1,26)             106.9695                                         !
 ! A4    A(15,1,25)            110.7491                                         !
 ! A5    A(15,1,26)            107.0304                                         !
 ! A6    A(25,1,26)            113.0037                                         !
 ! A7    A(1,2,3)              103.3959                                         !
 ! A8    A(1,2,5)              110.1623                                         !
 ! A9    A(1,2,16)             105.5695                                         !
 ! A10   A(3,2,5)              117.6993                                         !
 ! A11   A(3,2,16)             108.4454                                         !
 ! A12   A(5,2,16)             110.7024                                         !
 ! A13   A(2,3,4)              118.2858                                         !
 ! A14   A(2,3,27)             116.2412                                         !
 ! A15   A(4,3,27)             125.4285                                         !
 ! A16   A(2,5,6)              112.0373                                         !
 ! A17   A(2,5,17)             108.7063                                         !
 ! A18   A(2,5,18)             107.2314                                         !
 ! A19   A(6,5,17)             109.459                                          !
 ! A20   A(6,5,18)             111.2358                                         !
 ! A21   A(17,5,18)            108.0474                                         !
 ! A22   A(5,6,7)              125.7498                                         !
 ! A23   A(5,6,8)              127.3269                                         !
 ! A24   A(7,6,8)              106.7288                                         !
 ! A25   A(6,7,11)             109.7538                                         !
 ! A26   A(6,7,19)             129.264                                          !
 ! A27   A(11,7,19)            120.982                                          !
 ! A28   A(6,8,9)              106.774                                          !
 ! A29   A(6,8,10)             134.3673                                         !
 ! A30   A(9,8,10)             118.8575                                         !
 ! A31   A(8,9,11)             107.2433                                         !
 ! A32   A(8,9,12)             122.3423                                         !
 ! A33   A(11,9,12)            130.4133                                         !
 ! A34   A(8,10,13)            118.9129                                         !
 ! A35   A(8,10,21)            121.0334                                         !
 ! A36   A(13,10,21)           120.0123                                         !
 ! A37   A(7,11,9)             109.4988                                         !
 ! A38   A(7,11,20)            125.2156                                         !
 ! A39   A(9,11,20)            125.1845                                         !
 ! A40   A(9,12,14)            117.3981                                         !
 ! A41   A(9,12,22)            121.331                                          !
 ! A42   A(14,12,22)           121.2708                                         !
 ! A43   A(10,13,14)           121.1009                                         !
 ! A44   A(10,13,23)           119.6467                                         !
 ! A45   A(14,13,23)           119.2473                                         !
 ! A46   A(12,14,13)           121.3867                                         !
 ! A47   A(12,14,24)           119.3207                                         !
 ! A48   A(13,14,24)           119.2914                                         !
 ! A49   A(3,27,28)            125.5483                                         !
 ! A50   A(3,27,35)            117.7297                                         !
 ! A51   A(28,27,35)           115.6132                                         !
 ! A52   A(27,28,29)           112.0264                                         !
 ! A53   A(27,28,31)           112.7921                                         !
 ! A54   A(27,28,36)           104.9299                                         !
 ! A55   A(29,28,31)           111.2539                                         !
 ! A56   A(29,28,36)           107.0216                                         !
 ! A57   A(31,28,36)           108.385                                          !
 ! A58   A(28,29,30)           120.2338                                         !
 ! A59   A(28,29,46)           120.7764                                         !
 ! A60   A(30,29,46)           118.5194                                         !
 ! A61   A(28,31,32)           109.5912                                         !
 ! A62   A(28,31,33)           111.2339                                         !
 ! A63   A(28,31,37)           106.9535                                         !
 ! A64   A(32,31,33)           111.0591                                         !
 ! A65   A(32,31,37)           108.585                                          !
 ! A66   A(33,31,37)           109.2954                                         !
 ! A67   A(31,32,34)           113.5528                                         !
 ! A68   A(31,32,38)           108.6516                                         !
 ! A69   A(31,32,39)           109.3518                                         !
 ! A70   A(34,32,38)           109.9579                                         !
 ! A71   A(34,32,39)           108.1781                                         !
 ! A72   A(38,32,39)           106.9402                                         !
 ! A73   A(31,33,40)           112.3999                                         !
 ! A74   A(31,33,41)           111.4392                                         !
 ! A75   A(31,33,42)           110.4065                                         !
 ! A76   A(40,33,41)           108.3817                                         !
 ! A77   A(40,33,42)           106.8564                                         !
 ! A78   A(41,33,42)           107.1095                                         !
 ! A79   A(32,34,43)           110.5339                                         !
 ! A80   A(32,34,44)           112.4315                                         !
 ! A81   A(32,34,45)           110.5395                                         !
 ! A82   A(43,34,44)           107.3399                                         !
 ! A83   A(43,34,45)           107.7646                                         !
 ! A84   A(44,34,45)           108.0536                                         !
 ! A85   A(29,46,47)           136.3508                                         !
 ! A86   A(29,46,59)           107.8782                                         !
 ! A87   A(47,46,59)           112.4647                                         !
 ! A88   A(46,47,48)           109.319                                          !
 ! A89   A(46,47,50)           116.1497                                         !
 ! A90   A(46,47,60)           104.067                                          !
 ! A91   A(48,47,50)           114.1009                                         !
 ! A92   A(48,47,60)           104.4436                                         !
 ! A93   A(50,47,60)           107.5762                                         !
 ! A94   A(47,48,49)           126.5794                                         !
 ! A95   A(47,48,57)           111.0901                                         !
 ! A96   A(49,48,57)           122.2609                                         !
 ! A97   A(47,50,51)           115.7054                                         !
 ! A98   A(47,50,61)           106.1958                                         !
 ! A99   A(47,50,62)           110.1144                                         !
 ! A100  A(51,50,61)           109.5877                                         !
 ! A101  A(51,50,62)           107.6634                                         !
 ! A102  A(61,50,62)           107.2849                                         !
 ! A103  A(50,51,52)           115.5                                            !
 ! A104  A(50,51,63)           109.5139                                         !
 ! A105  A(50,51,64)           107.5183                                         !
 ! A106  A(52,51,63)           108.8627                                         !
 ! A107  A(52,51,64)           108.7083                                         !
 ! A108  A(63,51,64)           106.3466                                         !
 ! A109  A(51,52,53)           110.2683                                         !
 ! A110  A(51,52,65)           109.7422                                         !
 ! A111  A(51,52,66)           110.0707                                         !
 ! A112  A(53,52,65)           107.7103                                         !
 ! A113  A(53,52,66)           112.1459                                         !
 ! A114  A(65,52,66)           106.7982                                         !
 ! A115  A(52,53,54)           120.2512                                         !
 ! A116  A(52,53,67)           113.6951                                         !
 ! A117  A(54,53,67)           111.7328                                         !
 ! A118  A(53,54,55)           128.6338                                         !
 ! A119  A(53,54,56)           110.5022                                         !
 ! A120  A(55,54,56)           120.8624                                         !
 ! A121  A(54,55,68)           112.6843                                         !
 ! A122  A(54,56,69)           112.925                                          !
 ! A123  A(54,56,70)           110.4364                                         !
 ! A124  A(69,56,70)           111.4069                                         !
 ! A125  A(48,57,58)           108.8657                                         !
 ! D1    D(15,1,2,3)            72.247                                          !
 ! D2    D(15,1,2,5)           -54.3706                                         !
 ! D3    D(15,1,2,16)         -173.9247                                         !
 ! D4    D(25,1,2,3)          -166.2891                                         !
 ! D5    D(25,1,2,5)            67.0933                                         !
 ! D6    D(25,1,2,16)          -52.4608                                         !
 ! D7    D(26,1,2,3)           -42.5025                                         !
 ! D8    D(26,1,2,5)          -169.1201                                         !
 ! D9    D(26,1,2,16)           71.3258                                         !
 ! D10   D(1,2,3,4)             26.2689                                         !
 ! D11   D(1,2,3,27)          -151.4382                                         !
 ! D12   D(5,2,3,4)            147.9515                                         !
 ! D13   D(5,2,3,27)           -29.7556                                         !
 ! D14   D(16,2,3,4)           -85.4646                                         !
 ! D15   D(16,2,3,27)           96.8283                                         !
 ! D16   D(1,2,5,6)            -37.8669                                         !
 ! D17   D(1,2,5,17)            83.2305                                         !
 ! D18   D(1,2,5,18)          -160.1879                                         !
 ! D19   D(3,2,5,6)           -155.9996                                         !
 ! D20   D(3,2,5,17)           -34.9021                                         !
 ! D21   D(3,2,5,18)            81.6794                                         !
 ! D22   D(16,2,5,6)            78.52                                           !
 ! D23   D(16,2,5,17)         -160.3826                                         !
 ! D24   D(16,2,5,18)          -43.801                                          !
 ! D25   D(2,3,27,28)         -175.5646                                         !
 ! D26   D(2,3,27,35)           -8.1729                                         !
 ! D27   D(4,3,27,28)            6.9135                                         !
 ! D28   D(4,3,27,35)          174.3052                                         !
 ! D29   D(2,5,6,7)            119.7284                                         !
 ! D30   D(2,5,6,8)            -54.5194                                         !
 ! D31   D(17,5,6,7)            -0.9336                                         !
 ! D32   D(17,5,6,8)          -175.1813                                         !
 ! D33   D(18,5,6,7)          -120.2613                                         !
 ! D34   D(18,5,6,8)            65.491                                          !
 ! D35   D(5,6,7,11)          -175.5904                                         !
 ! D36   D(5,6,7,19)             4.5831                                         !
 ! D37   D(8,6,7,11)            -0.3642                                         !
 ! D38   D(8,6,7,19)           179.8093                                         !
 ! D39   D(5,6,8,9)            175.3712                                         !
 ! D40   D(5,6,8,10)            -4.2029                                         !
 ! D41   D(7,6,8,9)              0.2436                                         !
 ! D42   D(7,6,8,10)          -179.3305                                         !
 ! D43   D(6,7,11,9)             0.3517                                         !
 ! D44   D(6,7,11,20)         -176.1432                                         !
 ! D45   D(19,7,11,9)         -179.805                                          !
 ! D46   D(19,7,11,20)           3.7001                                         !
 ! D47   D(6,8,9,11)            -0.0368                                         !
 ! D48   D(6,8,9,12)          -179.7005                                         !
 ! D49   D(10,8,9,11)          179.6155                                         !
 ! D50   D(10,8,9,12)           -0.0482                                         !
 ! D51   D(6,8,10,13)          179.2522                                         !
 ! D52   D(6,8,10,21)           -3.0894                                         !
 ! D53   D(9,8,10,13)           -0.2822                                         !
 ! D54   D(9,8,10,21)          177.3762                                         !
 ! D55   D(8,9,11,7)            -0.1866                                         !
 ! D56   D(8,9,11,20)          176.3096                                         !
 ! D57   D(12,9,11,7)          179.4402                                         !
 ! D58   D(12,9,11,20)          -4.0635                                         !
 ! D59   D(8,9,12,14)            0.37                                           !
 ! D60   D(8,9,12,22)         -179.5341                                         !
 ! D61   D(11,9,12,14)        -179.2081                                         !
 ! D62   D(11,9,12,22)           0.8878                                         !
 ! D63   D(8,10,13,14)           0.2866                                         !
 ! D64   D(8,10,13,23)         179.4555                                         !
 ! D65   D(21,10,13,14)       -177.3963                                         !
 ! D66   D(21,10,13,23)          1.7726                                         !
 ! D67   D(9,12,14,13)          -0.3685                                         !
 ! D68   D(9,12,14,24)        -179.9561                                         !
 ! D69   D(22,12,14,13)        179.5357                                         !
 ! D70   D(22,12,14,24)         -0.052                                          !
 ! D71   D(10,13,14,12)          0.0464                                         !
 ! D72   D(10,13,14,24)        179.6342                                         !
 ! D73   D(23,13,14,12)       -179.1258                                         !
 ! D74   D(23,13,14,24)          0.462                                          !
 ! D75   D(3,27,28,29)         -37.1626                                         !
 ! D76   D(3,27,28,31)          89.2901                                         !
 ! D77   D(3,27,28,36)        -152.928                                          !
 ! D78   D(35,27,28,29)        155.2101                                         !
 ! D79   D(35,27,28,31)        -78.3371                                         !
 ! D80   D(35,27,28,36)         39.4448                                         !
 ! D81   D(27,28,29,30)        121.6344                                         !
 ! D82   D(27,28,29,46)        -66.3514                                         !
 ! D83   D(31,28,29,30)         -5.648                                          !
 ! D84   D(31,28,29,46)        166.3662                                         !
 ! D85   D(36,28,29,30)       -123.8772                                         !
 ! D86   D(36,28,29,46)         48.137                                          !
 ! D87   D(27,28,31,32)        161.942                                          !
 ! D88   D(27,28,31,33)         38.7476                                         !
 ! D89   D(27,28,31,37)        -80.5313                                         !
 ! D90   D(29,28,31,32)        -71.1934                                         !
 ! D91   D(29,28,31,33)        165.6121                                         !
 ! D92   D(29,28,31,37)         46.3333                                         !
 ! D93   D(36,28,31,32)         46.2109                                         !
 ! D94   D(36,28,31,33)        -76.9836                                         !
 ! D95   D(36,28,31,37)        163.7376                                         !
 ! D96   D(28,29,46,47)         25.5925                                         !
 ! D97   D(28,29,46,59)       -177.5055                                         !
 ! D98   D(30,29,46,47)       -162.2591                                         !
 ! D99   D(30,29,46,59)         -5.3571                                         !
 ! D100  D(28,31,32,34)        163.7929                                         !
 ! D101  D(28,31,32,38)        -73.5149                                         !
 ! D102  D(28,31,32,39)         42.8757                                         !
 ! D103  D(33,31,32,34)        -72.9095                                         !
 ! D104  D(33,31,32,38)         49.7828                                         !
 ! D105  D(33,31,32,39)        166.1734                                         !
 ! D106  D(37,31,32,34)         47.2918                                         !
 ! D107  D(37,31,32,38)        169.984                                          !
 ! D108  D(37,31,32,39)        -73.6254                                         !
 ! D109  D(28,31,33,40)        -65.2971                                         !
 ! D110  D(28,31,33,41)         56.5927                                         !
 ! D111  D(28,31,33,42)        175.4952                                         !
 ! D112  D(32,31,33,40)        172.353                                          !
 ! D113  D(32,31,33,41)        -65.7572                                         !
 ! D114  D(32,31,33,42)         53.1453                                         !
 ! D115  D(37,31,33,40)         52.5742                                         !
 ! D116  D(37,31,33,41)        174.464                                          !
 ! D117  D(37,31,33,42)        -66.6335                                         !
 ! D118  D(31,32,34,43)       -178.9603                                         !
 ! D119  D(31,32,34,44)         61.1101                                         !
 ! D120  D(31,32,34,45)        -59.734                                          !
 ! D121  D(38,32,34,43)         59.0705                                         !
 ! D122  D(38,32,34,44)        -60.8591                                         !
 ! D123  D(38,32,34,45)        178.2968                                         !
 ! D124  D(39,32,34,43)        -57.3859                                         !
 ! D125  D(39,32,34,44)       -177.3155                                         !
 ! D126  D(39,32,34,45)         61.8404                                         !
 ! D127  D(29,46,47,48)         78.879                                          !
 ! D128  D(29,46,47,50)        -51.9777                                         !
 ! D129  D(29,46,47,60)       -170.001                                          !
 ! D130  D(59,46,47,48)        -77.2913                                         !
 ! D131  D(59,46,47,50)        151.8521                                         !
 ! D132  D(59,46,47,60)         33.8288                                         !
 ! D133  D(46,47,48,49)       -113.9345                                         !
 ! D134  D(46,47,48,57)         63.0653                                         !
 ! D135  D(50,47,48,49)         18.012                                          !
 ! D136  D(50,47,48,57)       -164.9882                                         !
 ! D137  D(60,47,48,49)        135.1947                                         !
 ! D138  D(60,47,48,57)        -47.8055                                         !
 ! D139  D(46,47,50,51)       -176.3678                                         !
 ! D140  D(46,47,50,61)        -54.5471                                         !
 ! D141  D(46,47,50,62)         61.2935                                         !
 ! D142  D(48,47,50,51)         55.069                                          !
 ! D143  D(48,47,50,61)        176.8897                                         !
 ! D144  D(48,47,50,62)        -67.2697                                         !
 ! D145  D(60,47,50,51)        -60.2925                                         !
 ! D146  D(60,47,50,61)         61.5282                                         !
 ! D147  D(60,47,50,62)        177.3688                                         !
 ! D148  D(47,48,57,58)       -174.9539                                         !
 ! D149  D(49,48,57,58)          2.1971                                         !
 ! D150  D(47,50,51,52)         47.3963                                         !
 ! D151  D(47,50,51,63)        -75.9062                                         !
 ! D152  D(47,50,51,64)        168.9441                                         !
 ! D153  D(61,50,51,52)        -72.5948                                         !
 ! D154  D(61,50,51,63)        164.1027                                         !
 ! D155  D(61,50,51,64)         48.953                                          !
 ! D156  D(62,50,51,52)        171.0272                                         !
 ! D157  D(62,50,51,63)         47.7247                                         !
 ! D158  D(62,50,51,64)        -67.425                                          !
 ! D159  D(50,51,52,53)        -74.1554                                         !
 ! D160  D(50,51,52,65)         44.3383                                         !
 ! D161  D(50,51,52,66)        161.5981                                         !
 ! D162  D(63,51,52,53)         49.4899                                         !
 ! D163  D(63,51,52,65)        167.9836                                         !
 ! D164  D(63,51,52,66)        -74.7566                                         !
 ! D165  D(64,51,52,53)        164.939                                          !
 ! D166  D(64,51,52,65)        -76.5673                                         !
 ! D167  D(64,51,52,66)         40.6925                                         !
 ! D168  D(51,52,53,54)        163.067                                          !
 ! D169  D(51,52,53,67)        -60.542                                          !
 ! D170  D(65,52,53,54)         43.3362                                         !
 ! D171  D(65,52,53,67)        179.7273                                         !
 ! D172  D(66,52,53,54)        -73.8904                                         !
 ! D173  D(66,52,53,67)         62.5007                                         !
 ! D174  D(52,53,54,55)          0.2641                                         !
 ! D175  D(52,53,54,56)       -179.2777                                         !
 ! D176  D(67,53,54,55)       -136.899                                          !
 ! D177  D(67,53,54,56)         43.5592                                         !
 ! D178  D(53,54,55,68)         10.7903                                         !
 ! D179  D(56,54,55,68)       -169.7097                                         !
 ! D180  D(53,54,56,69)         51.863                                          !
 ! D181  D(53,54,56,70)        177.3487                                         !
 ! D182  D(55,54,56,69)       -127.72                                           !
 ! D183  D(55,54,56,70)         -2.2343                                         !
 --------------------------------------------------------------------------------
 Symmetry turned off by external request.
 Stoichiometry    C23H36N7O4(1+)
 Framework group  C1[X(C23H36N7O4)]
 Deg. of freedom   204
 Full point group                 C1      NOp   1
                          Input orientation:                          
 ---------------------------------------------------------------------
 Center     Atomic      Atomic             Coordinates (Angstroms)
 Number     Number       Type             X           Y           Z
 ---------------------------------------------------------------------
      1          7           0      -93.510305  -14.921354    5.358807
      2          6           0      -94.844843  -15.331250    5.929309
      3          6           0      -95.640052  -15.789457    4.686243
      4          8           0      -95.011821  -16.206742    3.712846
      5          6           0      -95.436921  -14.182835    6.777922
      6          6           0      -94.381450  -13.457738    7.557832
      7          6           0      -94.075609  -12.120796    7.446455
      8          6           0      -93.421198  -14.029139    8.473845
      9          6           0      -92.563401  -12.969991    8.883114
     10          6           0      -93.194074  -15.323882    8.982892
     11          7           0      -92.992324  -11.823914    8.240703
     12          6           0      -91.503314  -13.167449    9.773374
     13          6           0      -92.137578  -15.524021    9.861914
     14          6           0      -91.301663  -14.456427   10.251753
     15          1           0      -93.647577  -14.030898    4.844707
     16          1           0      -94.641307  -16.207269    6.552297
     17          1           0      -95.944644  -13.480249    6.111622
     18          1           0      -96.190413  -14.625381    7.443994
     19          1           0      -94.558818  -11.355020    6.854944
     20          1           0      -92.606468  -10.901440    8.377655
     21          1           0      -93.853037  -16.150413    8.727236
     22          1           0      -90.863274  -12.345602   10.080505
     23          1           0      -91.957231  -16.514559   10.268141
     24          1           0      -90.487964  -14.644877   10.945149
     25          1           0      -92.809635  -14.808895    6.100064
     26          1           0      -93.248737  -15.635344    4.661849
     27          7           0      -96.973278  -15.649806    4.750061
     28          6           0      -97.932075  -16.102334    3.726604
     29          6           0      -97.382348  -15.909263    2.288231
     30          8           0      -97.273030  -16.863872    1.540405
     31          6           0      -98.410379  -17.558089    3.954287
     32          6           0      -99.709105  -17.807708    3.155173
     33          6           0      -98.617251  -17.848520    5.448696
     34          6           0     -100.050150  -19.292223    2.989294
     35          1           0      -97.375958  -15.379427    5.636932
     36          1           0      -98.795271  -15.433960    3.832850
     37          1           0      -97.627381  -18.216553    3.562552
     38          1           0     -100.537502  -17.285840    3.657874
     39          1           0      -99.612199  -17.366422    2.158927
     40          1           0      -97.680262  -17.808717    6.015425
     41          1           0      -99.326451  -17.140739    5.901201
     42          1           0      -99.029823  -18.850685    5.588532
     43          1           0     -100.966237  -19.412492    2.401982
     44          1           0     -100.209801  -19.794291    3.949737
     45          1           0      -99.244139  -19.815350    2.462465
     46          7           0      -97.163845  -14.638747    1.776551
     47          6           0      -96.878051  -13.305696    2.325740
     48          6           0      -95.394825  -13.219344    2.701068
     49          8           0      -94.932577  -13.101629    3.830625
     50          6           0      -97.830927  -12.806535    3.419188
     51          6           0      -97.574364  -11.371667    3.926898
     52          6           0      -97.372098  -10.312870    2.837868
     53          7           0      -96.054535  -10.461104    2.226890
     54          6           0      -95.773941   -9.851810    0.983690
     55          7           0      -96.541068   -9.135695    0.255238
     56          7           0      -94.464620  -10.137679    0.582345
     57          8           0      -94.614737  -13.354429    1.619086
     58          1           0      -93.681942  -13.375317    1.903414
     59          1           0      -96.846595  -14.739349    0.817270
     60          1           0      -96.981303  -12.637869    1.468506
     61          1           0      -98.840815  -12.872250    2.998019
     62          1           0      -97.795219  -13.473803    4.280992
     63          1           0      -96.701049  -11.368600    4.591227
     64          1           0      -98.432476  -11.081708    4.544090
     65          1           0      -98.122386  -10.444822    2.049016
     66          1           0      -97.524423   -9.306419    3.256610
     67          1           0      -95.286169  -10.350577    2.881799
     68          1           0      -97.400154   -8.866726    0.734589
     69          1           0      -94.253183  -11.130732    0.600663
     70          1           0      -94.278198   -9.735988   -0.331006
 ---------------------------------------------------------------------
 Rotational constants (GHZ):           0.1257526           0.0869251           0.0578583
 Standard basis: 6-31G(d) (6D, 7F)
   582 basis functions,  1096 primitive gaussians,   582 cartesian basis functions
   127 alpha electrons      127 beta electrons
       nuclear repulsion energy      3845.9346270035 Hartrees.
 NAtoms=   70 NActive=   70 NUniq=   70 SFac= 1.00D+00 NAtFMM=   60 NAOKFM=T Big=T
 Integral buffers will be    131072 words long.
 Raffenetti 2 integral format.
 Two-electron integral symmetry is turned off.
 Nuclear repulsion after empirical dispersion term =     3845.8398093361 Hartrees.
 One-electron integrals computed using PRISM.
 NBasis=   582 RedAO= T EigKep=  3.77D-04  NBF=   582
 NBsUse=   582 1.00D-06 EigRej= -1.00D+00 NBFU=   582
 Initial guess from the checkpoint file:  "conf-472.chk"
 B after Tr=     0.000000    0.000000    0.000000
         Rot=    1.000000    0.000000    0.000000    0.000000 Ang=   0.00 deg.
 Requested convergence on RMS density matrix=1.00D-08 within 128 cycles.
 Requested convergence on MAX density matrix=1.00D-06.
 Requested convergence on             energy=1.00D-06.
 No special actions if energy rises.
 SCF Done:  E(RB3LYP) =  -1582.20063110     A.U. after    1 cycles
            NFock=  1  Conv=0.63D-08     -V/T= 2.0095

 **********************************************************************

            Population analysis using the SCF Density.

 **********************************************************************

 Alpha  occ. eigenvalues --  -19.33561 -19.28817 -19.26040 -19.21541 -14.58854
 Alpha  occ. eigenvalues --  -14.50457 -14.49498 -14.46475 -14.44211 -14.41627
 Alpha  occ. eigenvalues --  -14.36842 -10.46343 -10.43553 -10.40221 -10.39588
 Alpha  occ. eigenvalues --  -10.36064 -10.35994 -10.34958 -10.34028 -10.33997
 Alpha  occ. eigenvalues --  -10.33137 -10.31987 -10.30694 -10.30622 -10.30097
 Alpha  occ. eigenvalues --  -10.29888 -10.29817 -10.29465 -10.28825 -10.28690
 Alpha  occ. eigenvalues --  -10.28314 -10.27020 -10.25851 -10.24177  -1.24747
 Alpha  occ. eigenvalues --   -1.18748  -1.15698  -1.13984  -1.13317  -1.09471
 Alpha  occ. eigenvalues --   -1.06807  -1.05806  -1.02699  -0.97406  -0.95149
 Alpha  occ. eigenvalues --   -0.94028  -0.92218  -0.90991  -0.90511  -0.88679
 Alpha  occ. eigenvalues --   -0.85411  -0.84510  -0.83979  -0.82857  -0.80237
 Alpha  occ. eigenvalues --   -0.79917  -0.79422  -0.74754  -0.74442  -0.73892
 Alpha  occ. eigenvalues --   -0.73247  -0.72059  -0.71772  -0.70324  -0.69920
 Alpha  occ. eigenvalues --   -0.68332  -0.67380  -0.66790  -0.65642  -0.65035
 Alpha  occ. eigenvalues --   -0.64905  -0.63545  -0.63043  -0.62729  -0.62379
 Alpha  occ. eigenvalues --   -0.62133  -0.59819  -0.59428  -0.58886  -0.57961
 Alpha  occ. eigenvalues --   -0.57366  -0.57299  -0.56957  -0.56057  -0.55642
 Alpha  occ. eigenvalues --   -0.55376  -0.55125  -0.53964  -0.53896  -0.53851
 Alpha  occ. eigenvalues --   -0.53653  -0.53165  -0.53025  -0.52490  -0.52162
 Alpha  occ. eigenvalues --   -0.50695  -0.50580  -0.49841  -0.49763  -0.49409
 Alpha  occ. eigenvalues --   -0.49244  -0.48529  -0.47471  -0.46618  -0.46399
 Alpha  occ. eigenvalues --   -0.46222  -0.46131  -0.45504  -0.45070  -0.44492
 Alpha  occ. eigenvalues --   -0.44263  -0.44194  -0.43780  -0.42869  -0.42600
 Alpha  occ. eigenvalues --   -0.40865  -0.40638  -0.40025  -0.38770  -0.38366
 Alpha  occ. eigenvalues --   -0.35933  -0.35069  -0.34707  -0.33663  -0.33406
 Alpha  occ. eigenvalues --   -0.31903  -0.31663
 Alpha virt. eigenvalues --   -0.14082  -0.12602  -0.11809  -0.09401  -0.08617
 Alpha virt. eigenvalues --   -0.07872  -0.06524  -0.05324  -0.04824  -0.04352
 Alpha virt. eigenvalues --   -0.03551  -0.03021  -0.02083  -0.01913  -0.01531
 Alpha virt. eigenvalues --   -0.00568   0.00059   0.00324   0.00957   0.01462
 Alpha virt. eigenvalues --    0.01547   0.02160   0.02487   0.03148   0.03815
 Alpha virt. eigenvalues --    0.04377   0.04734   0.04991   0.05569   0.05916
 Alpha virt. eigenvalues --    0.05960   0.06699   0.06820   0.07302   0.07600
 Alpha virt. eigenvalues --    0.07934   0.08394   0.08709   0.09075   0.09260
 Alpha virt. eigenvalues --    0.09550   0.09780   0.09947   0.10522   0.10804
 Alpha virt. eigenvalues --    0.10960   0.11393   0.11676   0.11809   0.12986
 Alpha virt. eigenvalues --    0.13544   0.14055   0.14488   0.14766   0.15197
 Alpha virt. eigenvalues --    0.15691   0.16203   0.16544   0.16799   0.17238
 Alpha virt. eigenvalues --    0.18429   0.19367   0.20015   0.20263   0.20897
 Alpha virt. eigenvalues --    0.21595   0.22860   0.23507   0.24384   0.25531
 Alpha virt. eigenvalues --    0.25755   0.26713   0.29068   0.29380   0.31407
 Alpha virt. eigenvalues --    0.32358   0.34375   0.34982   0.35734   0.37690
 Alpha virt. eigenvalues --    0.38276   0.39359   0.40309   0.40904   0.41670
 Alpha virt. eigenvalues --    0.42161   0.42688   0.42866   0.43285   0.43875
 Alpha virt. eigenvalues --    0.44212   0.44941   0.45133   0.45863   0.45930
 Alpha virt. eigenvalues --    0.46607   0.47308   0.47436   0.47534   0.47985
 Alpha virt. eigenvalues --    0.48473   0.49147   0.49691   0.50038   0.50393
 Alpha virt. eigenvalues --    0.50484   0.50774   0.51070   0.51646   0.52058
 Alpha virt. eigenvalues --    0.52125   0.52315   0.52930   0.53571   0.53935
 Alpha virt. eigenvalues --    0.54244   0.54660   0.55420   0.56119   0.56444
 Alpha virt. eigenvalues --    0.57063   0.57222   0.57514   0.58229   0.59325
 Alpha virt. eigenvalues --    0.59876   0.60530   0.61812   0.62062   0.62178
 Alpha virt. eigenvalues --    0.63333   0.63430   0.65042   0.65283   0.66056
 Alpha virt. eigenvalues --    0.66246   0.66494   0.67128   0.67377   0.68541
 Alpha virt. eigenvalues --    0.68862   0.69303   0.69869   0.70402   0.70973
 Alpha virt. eigenvalues --    0.71743   0.71823   0.72614   0.72933   0.73236
 Alpha virt. eigenvalues --    0.73778   0.73963   0.74568   0.74816   0.75150
 Alpha virt. eigenvalues --    0.76078   0.76226   0.76546   0.76786   0.77266
 Alpha virt. eigenvalues --    0.77384   0.77898   0.78238   0.78772   0.79043
 Alpha virt. eigenvalues --    0.79860   0.80357   0.80724   0.81145   0.81700
 Alpha virt. eigenvalues --    0.82405   0.82593   0.82928   0.83231   0.83418
 Alpha virt. eigenvalues --    0.83960   0.84123   0.84523   0.84785   0.85213
 Alpha virt. eigenvalues --    0.85747   0.86333   0.86922   0.87185   0.87817
 Alpha virt. eigenvalues --    0.88118   0.88325   0.88647   0.88851   0.89918
 Alpha virt. eigenvalues --    0.90605   0.91912   0.92104   0.92869   0.93120
 Alpha virt. eigenvalues --    0.93694   0.94155   0.94588   0.95031   0.96845
 Alpha virt. eigenvalues --    0.97304   0.97574   0.98794   0.99494   1.01307
 Alpha virt. eigenvalues --    1.01721   1.02352   1.02984   1.03743   1.04268
 Alpha virt. eigenvalues --    1.06086   1.06708   1.07835   1.08268   1.09231
 Alpha virt. eigenvalues --    1.10317   1.12484   1.13395   1.13778   1.14502
 Alpha virt. eigenvalues --    1.15297   1.16316   1.17049   1.17759   1.18712
 Alpha virt. eigenvalues --    1.20481   1.21903   1.22633   1.23444   1.23766
 Alpha virt. eigenvalues --    1.24661   1.26338   1.27099   1.27562   1.28885
 Alpha virt. eigenvalues --    1.29350   1.29878   1.30351   1.30855   1.31122
 Alpha virt. eigenvalues --    1.31976   1.33234   1.33709   1.35075   1.36124
 Alpha virt. eigenvalues --    1.38255   1.38492   1.39044   1.39478   1.39852
 Alpha virt. eigenvalues --    1.40263   1.40967   1.42683   1.45627   1.46154
 Alpha virt. eigenvalues --    1.47222   1.47572   1.48227   1.49110   1.50200
 Alpha virt. eigenvalues --    1.50557   1.52347   1.53452   1.54674   1.55770
 Alpha virt. eigenvalues --    1.56779   1.57664   1.59891   1.60151   1.61550
 Alpha virt. eigenvalues --    1.62712   1.63579   1.63913   1.64366   1.65032
 Alpha virt. eigenvalues --    1.65781   1.66499   1.66830   1.67212   1.68247
 Alpha virt. eigenvalues --    1.69695   1.69816   1.71251   1.71521   1.71866
 Alpha virt. eigenvalues --    1.72425   1.73322   1.73760   1.75399   1.76116
 Alpha virt. eigenvalues --    1.76543   1.76768   1.77007   1.78192   1.78961
 Alpha virt. eigenvalues --    1.79971   1.80279   1.80837   1.82176   1.82566
 Alpha virt. eigenvalues --    1.82981   1.83702   1.84183   1.84623   1.85331
 Alpha virt. eigenvalues --    1.86095   1.86466   1.87105   1.88023   1.89014
 Alpha virt. eigenvalues --    1.89297   1.89786   1.89960   1.90870   1.91143
 Alpha virt. eigenvalues --    1.92111   1.92810   1.93182   1.93556   1.94634
 Alpha virt. eigenvalues --    1.96068   1.96314   1.97400   1.98370   1.99586
 Alpha virt. eigenvalues --    2.00169   2.01916   2.02232   2.02408   2.03401
 Alpha virt. eigenvalues --    2.04047   2.05142   2.05573   2.06363   2.07045
 Alpha virt. eigenvalues --    2.08354   2.10003   2.10672   2.12941   2.14076
 Alpha virt. eigenvalues --    2.14613   2.15045   2.15717   2.16011   2.16734
 Alpha virt. eigenvalues --    2.16792   2.18996   2.19829   2.20613   2.20821
 Alpha virt. eigenvalues --    2.21933   2.22781   2.23300   2.23444   2.23854
 Alpha virt. eigenvalues --    2.24952   2.26005   2.27033   2.28503   2.28620
 Alpha virt. eigenvalues --    2.30233   2.31208   2.32198   2.32878   2.34398
 Alpha virt. eigenvalues --    2.35457   2.35689   2.37360   2.37382   2.39194
 Alpha virt. eigenvalues --    2.39337   2.40455   2.42787   2.42893   2.43449
 Alpha virt. eigenvalues --    2.44367   2.45399   2.45930   2.47570   2.48306
 Alpha virt. eigenvalues --    2.49167   2.50069   2.50483   2.52239   2.53020
 Alpha virt. eigenvalues --    2.54663   2.55153   2.55895   2.56507   2.57367
 Alpha virt. eigenvalues --    2.57896   2.58310   2.60040   2.60152   2.62681
 Alpha virt. eigenvalues --    2.63182   2.63738   2.65380   2.66905   2.67615
 Alpha virt. eigenvalues --    2.70715   2.71369   2.72336   2.74334   2.76874
 Alpha virt. eigenvalues --    2.78475   2.81853   2.85441   2.86840   2.89569
 Alpha virt. eigenvalues --    2.90362   2.93354   2.93592   2.94477   2.97241
 Alpha virt. eigenvalues --    2.97599   3.01839   3.05512   3.07200   3.13666
 Alpha virt. eigenvalues --    3.33033   3.70156   3.75616   3.78448   3.82605
 Alpha virt. eigenvalues --    3.87183   3.90304   3.92282   3.96461   3.99036
 Alpha virt. eigenvalues --    3.99742   4.02220   4.04265   4.06926   4.09530
 Alpha virt. eigenvalues --    4.11352   4.13986   4.16112   4.20040   4.20773
 Alpha virt. eigenvalues --    4.22746   4.24811   4.28823   4.30259   4.34071
 Alpha virt. eigenvalues --    4.34661   4.37531   4.41013   4.43780   4.45791
 Alpha virt. eigenvalues --    4.49816   4.54361   4.58713   4.62090   4.69133
          Condensed to atoms (all electrons):
 Mulliken charges:
               1
     1  N   -0.747215
     2  C   -0.124790
     3  C    0.668208
     4  O   -0.535957
     5  C   -0.392907
     6  C    0.010062
     7  C    0.012581
     8  C    0.052568
     9  C    0.315326
    10  C   -0.236530
    11  N   -0.679710
    12  C   -0.153578
    13  C   -0.131841
    14  C   -0.148070
    15  H    0.424310
    16  H    0.227688
    17  H    0.200107
    18  H    0.183100
    19  H    0.172719
    20  H    0.350852
    21  H    0.129249
    22  H    0.155784
    23  H    0.154025
    24  H    0.160367
    25  H    0.414690
    26  H    0.415117
    27  N   -0.623389
    28  C   -0.058432
    29  C    0.618231
    30  O   -0.467505
    31  C   -0.062418
    32  C   -0.268666
    33  C   -0.475567
    34  C   -0.454918
    35  H    0.355205
    36  H    0.172019
    37  H    0.173449
    38  H    0.128355
    39  H    0.164232
    40  H    0.124701
    41  H    0.137174
    42  H    0.183335
    43  H    0.161577
    44  H    0.148225
    45  H    0.163894
    46  N   -0.617460
    47  C   -0.035461
    48  C    0.664929
    49  O   -0.543136
    50  C   -0.287655
    51  C   -0.293047
    52  C   -0.145537
    53  N   -0.630014
    54  C    0.559291
    55  N   -0.613497
    56  N   -0.755979
    57  O   -0.544021
    58  H    0.419969
    59  H    0.354817
    60  H    0.214212
    61  H    0.174720
    62  H    0.143555
    63  H    0.145661
    64  H    0.163408
    65  H    0.169049
    66  H    0.163832
    67  H    0.325873
    68  H    0.287865
    69  H    0.316460
    70  H    0.346510
 Sum of Mulliken charges =   1.00000
 Mulliken charges with hydrogens summed into heavy atoms:
               1
     1  N    0.506901
     2  C    0.102897
     3  C    0.668208
     4  O   -0.535957
     5  C   -0.009699
     6  C    0.010062
     7  C    0.185299
     8  C    0.052568
     9  C    0.315326
    10  C   -0.107280
    11  N   -0.328859
    12  C    0.002206
    13  C    0.022184
    14  C    0.012297
    27  N   -0.268184
    28  C    0.113587
    29  C    0.618231
    30  O   -0.467505
    31  C    0.111031
    32  C    0.023921
    33  C   -0.030357
    34  C    0.018778
    46  N   -0.262643
    47  C    0.178751
    48  C    0.664929
    49  O   -0.543136
    50  C    0.030619
    51  C    0.016022
    52  C    0.187345
    53  N   -0.304141
    54  C    0.559291
    55  N   -0.325632
    56  N   -0.093009
    57  O   -0.124052
 Electronic spatial extent (au):  <R**2>=        8526173.8835
 Charge=              1.0000 electrons
 Dipole moment (field-independent basis, Debye):
    X=           -454.5628    Y=            -66.1290    Z=             29.3513  Tot=            460.2846
 Quadrupole moment (field-independent basis, Debye-Ang):
   XX=          42864.3238   YY=            723.5489   ZZ=            -13.1876
   XY=           6263.4083   XZ=          -2768.0412   YZ=           -404.2313
 Traceless Quadrupole moment (field-independent basis, Debye-Ang):
   XX=          28339.4288   YY=         -13801.3461   ZZ=         -14538.0826
   XY=           6263.4083   XZ=          -2768.0412   YZ=           -404.2313
 Octapole moment (field-independent basis, Debye-Ang**2):
  XXX=       -4026795.1128  YYY=          -4655.1836  ZZZ=          -1499.8543  XYY=         -68414.6443
  XXY=        -591066.4731  XXZ=         260361.6108  XZZ=           1689.4429  YZZ=            226.5654
  YYZ=           4846.9651  XYZ=          38158.0482
 Hexadecapole moment (field-independent basis, Debye-Ang**3):
 XXXX=      376771499.9101 YYYY=         -57007.5744 ZZZZ=         -26431.8306 XXXY=       55562816.1365
 XXXZ=      -24423754.2217 YYYX=         433903.2060 YYYZ=         -45107.4416 ZZZX=         145129.8452
 ZZZY=          22247.8842 XXYY=        6436008.2904 XXZZ=        -207285.3442 YYZZ=          -9678.3301
 XXYZ=       -3592089.9629 YYXZ=        -457790.5381 ZZXY=         -27603.0630
 N-N= 3.845839809336D+03 E-N=-1.134408394278D+04  KE= 1.567317025576D+03
 Unable to Open any file for archive entry.
 1\1\GINC-QML-000\SP\RB3LYP\6-31G(d)\C23H36N7O4(1+)\KENGMITH\24-May-202
 2\0\\# B3LYP/6-31G* empiricaldispersion=gd3 guess=read geom=check nosy
 mm integral(ultrafinegrid)\\Candidate Structure: Conf:472 Charge calc 
 in gas phase\\1,1\N,0,-93.5103053381,-14.9213539152,5.3588070586\C,0,-
 94.8448428178,-15.3312499765,5.929308998\C,0,-95.6400520035,-15.789457
 3797,4.686242754\O,0,-95.0118208679,-16.2067416263,3.7128458358\C,0,-9
 5.4369207282,-14.1828354561,6.7779222201\C,0,-94.3814495001,-13.457737
 8698,7.5578315137\C,0,-94.075608898,-12.1207962266,7.4464553358\C,0,-9
 3.4211979494,-14.0291393841,8.4738446542\C,0,-92.563401404,-12.9699913
 995,8.8831141802\C,0,-93.1940744638,-15.3238822486,8.9828916249\N,0,-9
 2.9923238557,-11.823914414,8.2407030206\C,0,-91.5033135142,-13.1674485
 641,9.7733743539\C,0,-92.1375784596,-15.5240205787,9.8619141858\C,0,-9
 1.3016634422,-14.4564269425,10.2517534403\H,0,-93.6475774727,-14.03089
 77432,4.8447065781\H,0,-94.6413072737,-16.2072685051,6.5522967256\H,0,
 -95.9446435209,-13.4802493415,6.1116216476\H,0,-96.1904126104,-14.6253
 807815,7.4439944717\H,0,-94.5588182079,-11.3550200832,6.8549436968\H,0
 ,-92.6064681162,-10.9014399885,8.3776548951\H,0,-93.8530369982,-16.150
 4125503,8.7272357315\H,0,-90.8632741076,-12.3456016413,10.080505277\H,
 0,-91.9572314397,-16.5145589426,10.2681405907\H,0,-90.4879638987,-14.6
 448767165,10.9451485457\H,0,-92.8096354227,-14.8088952997,6.1000638749
 \H,0,-93.2487374205,-15.6353442361,4.6618490376\N,0,-96.9732778379,-15
 .6498064146,4.750060814\C,0,-97.9320754699,-16.1023341938,3.7266044156
 \C,0,-97.3823484341,-15.9092629978,2.2882309571\O,0,-97.2730296035,-16
 .8638723346,1.5404050464\C,0,-98.4103789789,-17.5580892752,3.954286799
 2\C,0,-99.7091054625,-17.8077083659,3.1551734559\C,0,-98.6172508987,-1
 7.8485200201,5.4486959055\C,0,-100.0501498098,-19.2922228606,2.9892936
 937\H,0,-97.3759577545,-15.3794268731,5.6369315409\H,0,-98.7952706469,
 -15.4339598608,3.8328497535\H,0,-97.6273812001,-18.2165528978,3.562552
 1941\H,0,-100.5375015492,-17.2858399733,3.657873918\H,0,-99.6121986941
 ,-17.366421535,2.1589269792\H,0,-97.6802623066,-17.8087174979,6.015424
 6396\H,0,-99.3264505489,-17.1407387012,5.90120063\H,0,-99.0298234885,-
 18.850684806,5.5885323134\H,0,-100.9662366985,-19.4124915765,2.4019822
 344\H,0,-100.2098005314,-19.7942913651,3.9497367392\H,0,-99.2441387863
 ,-19.8153502976,2.4624653586\N,0,-97.1638452449,-14.638746938,1.776550
 8472\C,0,-96.8780505536,-13.3056963276,2.3257403325\C,0,-95.3948249883
 ,-13.2193435981,2.70106839\O,0,-94.9325765196,-13.1016293689,3.8306253
 671\C,0,-97.830927139,-12.8065348201,3.4191880141\C,0,-97.5743641887,-
 11.3716665147,3.9268977647\C,0,-97.3720980676,-10.3128701409,2.8378679
 734\N,0,-96.054534745,-10.4611037048,2.2268895356\C,0,-95.7739412986,-
 9.8518102895,0.9836897833\N,0,-96.5410682409,-9.135694653,0.2552375537
 \N,0,-94.4646203472,-10.1376789301,0.5823448156\O,0,-94.6147365501,-13
 .3544287306,1.6190864932\H,0,-93.6819418432,-13.3753168396,1.903413878
 8\H,0,-96.8465947618,-14.7393489604,0.8172704819\H,0,-96.9813025469,-1
 2.6378685965,1.4685056232\H,0,-98.8408148157,-12.8722500829,2.99801870
 36\H,0,-97.7952194201,-13.4738027527,4.2809918244\H,0,-96.7010490685,-
 11.3686004164,4.5912273524\H,0,-98.4324764662,-11.0817083691,4.5440897
 839\H,0,-98.1223860851,-10.4448216906,2.0490160177\H,0,-97.5244232649,
 -9.3064186121,3.2566095325\H,0,-95.2861694532,-10.3505770016,2.8817993
 057\H,0,-97.4001537578,-8.8667259279,0.7345886022\H,0,-94.2531829116,-
 11.1307319171,0.6006629924\H,0,-94.2781979799,-9.7359882387,-0.3310060
 759\\Version=ES64L-G16RevC.01\HF=-1582.2006311\RMSD=6.324e-09\Dipole=2
 .0151936,0.5917985,2.8610234\Quadrupole=21069.6707044,-10260.9625766,-
 10808.7081278,4656.6905353,-2057.9708153,-300.5360636\PG=C01 [X(C23H36
 N7O4)]\\@
 The archive entry for this job was punched.


 LIFE IS A CONTINUAL STRUGGLE AGAINST THE TENDENCY TO PRODUCE ENTROPY.
 Job cpu time:       0 days  0 hours  2 minutes 25.9 seconds.
 Elapsed time:       0 days  0 hours  0 minutes 37.0 seconds.
 File lengths (MBytes):  RWF=    296 Int=      0 D2E=      0 Chk=     40 Scr=     16
 Normal termination of Gaussian 16 at Tue May 24 23:12:44 2022.
