 Entering Gaussian System, Link 0=/opt/software/Gaussian/g16-AVX-C.01/g16/g16
 Input=charge-conf-474.com
 Output=charge-conf-474.log
 Initial command:
 /opt/software/Gaussian/g16-AVX-C.01/g16/l1.exe "/mnt/gs18/scratch/users/kengmith/Gau-16382.inp" -scrdir="/mnt/gs18/scratch/users/kengmith/"
 Entering Link 1 = /opt/software/Gaussian/g16-AVX-C.01/g16/l1.exe PID=     16399.
  
 Copyright (c) 1988-2019, Gaussian, Inc.  All Rights Reserved.
  
 This is part of the Gaussian(R) 16 program.  It is based on
 the Gaussian(R) 09 system (copyright 2009, Gaussian, Inc.),
 the Gaussian(R) 03 system (copyright 2003, Gaussian, Inc.),
 the Gaussian(R) 98 system (copyright 1998, Gaussian, Inc.),
 the Gaussian(R) 94 system (copyright 1995, Gaussian, Inc.),
 the Gaussian 92(TM) system (copyright 1992, Gaussian, Inc.),
 the Gaussian 90(TM) system (copyright 1990, Gaussian, Inc.),
 the Gaussian 88(TM) system (copyright 1988, Gaussian, Inc.),
 the Gaussian 86(TM) system (copyright 1986, Carnegie Mellon
 University), and the Gaussian 82(TM) system (copyright 1983,
 Carnegie Mellon University). Gaussian is a federally registered
 trademark of Gaussian, Inc.
  
 This software contains proprietary and confidential information,
 including trade secrets, belonging to Gaussian, Inc.
  
 This software is provided under written license and may be
 used, copied, transmitted, or stored only in accord with that
 written license.
  
 The following legend is applicable only to US Government
 contracts under FAR:
  
                    RESTRICTED RIGHTS LEGEND
  
 Use, reproduction and disclosure by the US Government is
 subject to restrictions as set forth in subparagraphs (a)
 and (c) of the Commercial Computer Software - Restricted
 Rights clause in FAR 52.227-19.
  
 Gaussian, Inc.
 340 Quinnipiac St., Bldg. 40, Wallingford CT 06492
  
  
 ---------------------------------------------------------------
 Warning -- This program may not be used in any manner that
 competes with the business of Gaussian, Inc. or will provide
 assistance to any competitor of Gaussian, Inc.  The licensee
 of this program is prohibited from giving any competitor of
 Gaussian, Inc. access to this program.  By using this program,
 the user acknowledges that Gaussian, Inc. is engaged in the
 business of creating and licensing software in the field of
 computational chemistry and represents and warrants to the
 licensee that it is not a competitor of Gaussian, Inc. and that
 it will not use this program in any manner prohibited above.
 ---------------------------------------------------------------
  

 Cite this work as:
 Gaussian 16, Revision C.01,
 M. J. Frisch, G. W. Trucks, H. B. Schlegel, G. E. Scuseria, 
 M. A. Robb, J. R. Cheeseman, G. Scalmani, V. Barone, 
 G. A. Petersson, H. Nakatsuji, X. Li, M. Caricato, A. V. Marenich, 
 J. Bloino, B. G. Janesko, R. Gomperts, B. Mennucci, H. P. Hratchian, 
 J. V. Ortiz, A. F. Izmaylov, J. L. Sonnenberg, D. Williams-Young, 
 F. Ding, F. Lipparini, F. Egidi, J. Goings, B. Peng, A. Petrone, 
 T. Henderson, D. Ranasinghe, V. G. Zakrzewski, J. Gao, N. Rega, 
 G. Zheng, W. Liang, M. Hada, M. Ehara, K. Toyota, R. Fukuda, 
 J. Hasegawa, M. Ishida, T. Nakajima, Y. Honda, O. Kitao, H. Nakai, 
 T. Vreven, K. Throssell, J. A. Montgomery, Jr., J. E. Peralta, 
 F. Ogliaro, M. J. Bearpark, J. J. Heyd, E. N. Brothers, K. N. Kudin, 
 V. N. Staroverov, T. A. Keith, R. Kobayashi, J. Normand, 
 K. Raghavachari, A. P. Rendell, J. C. Burant, S. S. Iyengar, 
 J. Tomasi, M. Cossi, J. M. Millam, M. Klene, C. Adamo, R. Cammi, 
 J. W. Ochterski, R. L. Martin, K. Morokuma, O. Farkas, 
 J. B. Foresman, and D. J. Fox, Gaussian, Inc., Wallingford CT, 2019.
 
 ******************************************
 Gaussian 16:  ES64L-G16RevC.01  3-Jul-2019
                24-May-2022 
 ******************************************
 %mem=8gb
 %nproc=4
 Will use up to    4 processors via shared memory.
 %chk=conf-474.chk
 ----------------------------------------------------------------------
 # B3LYP/6-31G* empiricaldispersion=gd3 guess=read geom=check nosymm in
 tegral(ultrafinegrid)
 ----------------------------------------------------------------------
 1/29=2,38=1,172=1/1;
 2/12=2,15=1,40=1/2;
 3/5=1,6=6,7=1,11=2,14=-4,25=1,30=1,74=-5,75=-5,116=-2,124=31/1,2,3;
 4/5=1/1;
 5/5=2,38=6/2;
 6/7=2,8=2,9=2,10=2,28=1/1;
 99/5=1,9=1/99;
 ------------------------------------------------------
 Candidate Structure: Conf:474 Charge calc in gas phase
 ------------------------------------------------------
 Structure from the checkpoint file:  "conf-474.chk"
 Charge =  1 Multiplicity = 1
 Redundant internal coordinates found in file.  (old form).
 N,0,-94.2285905275,-14.9769305909,6.0902394128
 C,0,-95.6938579897,-15.3490271128,6.0362172522
 C,0,-95.937726056,-15.7892078244,4.5753640363
 O,0,-95.144490538,-16.5717412953,4.0599067413
 C,0,-96.5344476144,-14.2054181238,6.6371921201
 C,0,-95.9224427169,-13.6895684432,7.9049910702
 C,0,-95.4153540547,-12.4246288761,8.0998965115
 C,0,-95.637343527,-14.4442149472,9.1030100775
 C,0,-94.9577076081,-13.5632220201,9.9893110806
 C,0,-95.8894995321,-15.7671034124,9.5168859297
 N,0,-94.8407541181,-12.3444848471,9.346951341
 C,0,-94.5263920982,-13.96480889,11.2576935353
 C,0,-95.4579596606,-16.1700485621,10.7733922687
 C,0,-94.7823203682,-15.2778005047,11.6330320161
 H,0,-94.1064150473,-14.0338435258,5.6646367665
 H,0,-95.7846814696,-16.2503819535,6.6482817647
 H,0,-96.6050797344,-13.3875936948,5.9130375613
 H,0,-97.5449166192,-14.6008282904,6.8096446968
 H,0,-95.4242642374,-11.5728032815,7.4334231884
 H,0,-94.4462401776,-11.5086946979,9.7524491576
 H,0,-96.4407354793,-16.4572264781,8.8822778387
 H,0,-94.0140512192,-13.2772155074,11.9241310215
 H,0,-95.6514722041,-17.1845510047,11.1081484399
 H,0,-94.4620347905,-15.6229951524,12.6111694307
 H,0,-93.9048386293,-14.9532702638,7.0635142947
 H,0,-93.6943148902,-15.6556549503,5.5303595591
 N,0,-96.9773754103,-15.2207936139,3.9283096242
 C,0,-97.4602408864,-15.6790254486,2.616257984
 C,0,-96.3618811607,-15.6327265881,1.5264590348
 O,0,-96.2506505611,-16.532430441,0.7181546782
 C,0,-98.1611237589,-17.0658439073,2.654324645
 C,0,-99.127884746,-17.1890951219,1.4532364723
 C,0,-98.9072220572,-17.2801200496,3.9795572426
 C,0,-99.5360442676,-18.6330905258,1.1451046482
 H,0,-97.6338417384,-14.6852506294,4.478915042
 H,0,-98.2046228238,-14.9297423652,2.3188527921
 H,0,-97.3795669416,-17.8261997768,2.5555018536
 H,0,-100.0216380516,-16.5809389522,1.6600325212
 H,0,-98.6554485963,-16.7688841737,0.5610997935
 H,0,-98.230220735,-17.3452457425,4.8383138208
 H,0,-99.6301395464,-16.4748850236,4.1697402466
 H,0,-99.4681770023,-18.2173790879,3.9476642457
 H,0,-100.0521677881,-19.1097136444,1.9855968543
 H,0,-98.6552275547,-19.237490996,0.9009384258
 H,0,-100.2127686922,-18.6657944501,0.285183614
 N,0,-95.5215333914,-14.5220261968,1.392593644
 C,0,-95.4273683606,-13.2222966951,2.073799759
 C,0,-94.6106167893,-13.3830731574,3.3601616804
 O,0,-94.7552140045,-12.7530098663,4.3984080412
 C,0,-96.730578323,-12.4185156437,2.2164748474
 C,0,-96.572343452,-10.9504657866,2.6650379004
 C,0,-95.5492744037,-10.1211993901,1.8795282204
 N,0,-94.1823609992,-10.4864652557,2.2496131782
 C,0,-93.0992926068,-9.8869902105,1.5715753332
 N,0,-93.1243906923,-9.1395788552,0.5351606323
 N,0,-91.8846641379,-10.2052338426,2.1852261653
 O,0,-93.6294145099,-14.2934843201,3.2971521013
 H,0,-93.8025327822,-14.8790490155,2.5276859768
 H,0,-95.0584731786,-14.5731954447,0.4906593145
 H,0,-94.7561630809,-12.6255201499,1.4465255991
 H,0,-97.2105285421,-12.4443744842,1.2309260648
 H,0,-97.4092629071,-12.9173605724,2.9136950984
 H,0,-96.3231705087,-10.9145766899,3.7306198891
 H,0,-97.5530296587,-10.4728404939,2.5585094154
 H,0,-95.6701842283,-10.3013178727,0.803449887
 H,0,-95.742623222,-9.0500556953,2.0454545362
 H,0,-94.0365688174,-10.4921150987,3.255247633
 H,0,-94.0680679312,-8.8531228394,0.2775175049
 H,0,-91.7722926872,-11.1869499371,2.4156623687
 H,0,-91.1021267287,-9.8513293076,1.6455883369
 Recover connectivity data from disk.
                           ----------------------------
                           !    Current Parameters    !
                           ! (Angstroms and Degrees)  !
 --------------------------                            --------------------------
 ! Name  Definition              Value                                          !
 --------------------------------------------------------------------------------
 ! R1    R(1,2)                  1.5127                                         !
 ! R2    R(1,15)                 1.0419                                         !
 ! R3    R(1,25)                 1.026                                          !
 ! R4    R(1,26)                 1.0294                                         !
 ! R5    R(2,3)                  1.5451                                         !
 ! R6    R(2,5)                  1.5413                                         !
 ! R7    R(2,16)                 1.0933                                         !
 ! R8    R(3,4)                  1.2277                                         !
 ! R9    R(3,27)                 1.3501                                         !
 ! R10   R(5,6)                  1.4993                                         !
 ! R11   R(5,17)                 1.0946                                         !
 ! R12   R(5,18)                 1.0987                                         !
 ! R13   R(6,7)                  1.3767                                         !
 ! R14   R(6,8)                  1.4443                                         !
 ! R15   R(7,11)                 1.3754                                         !
 ! R16   R(7,19)                 1.0816                                         !
 ! R17   R(8,9)                  1.4225                                         !
 ! R18   R(8,10)                 1.4089                                         !
 ! R19   R(9,11)                 1.3826                                         !
 ! R20   R(9,12)                 1.3986                                         !
 ! R21   R(10,13)                1.3883                                         !
 ! R22   R(10,21)                1.0876                                         !
 ! R23   R(11,20)                1.0093                                         !
 ! R24   R(12,14)                1.3894                                         !
 ! R25   R(12,22)                1.086                                          !
 ! R26   R(13,14)                1.4112                                         !
 ! R27   R(13,23)                1.0857                                         !
 ! R28   R(14,24)                1.0856                                         !
 ! R29   R(27,28)                1.4713                                         !
 ! R30   R(27,35)                1.0104                                         !
 ! R31   R(28,29)                1.548                                          !
 ! R32   R(28,31)                1.5543                                         !
 ! R33   R(28,36)                1.0973                                         !
 ! R34   R(29,30)                1.2146                                         !
 ! R35   R(29,46)                1.3992                                         !
 ! R36   R(31,32)                1.5467                                         !
 ! R37   R(31,33)                1.5358                                         !
 ! R38   R(31,37)                1.0949                                         !
 ! R39   R(32,34)                1.5319                                         !
 ! R40   R(32,38)                1.1006                                         !
 ! R41   R(32,39)                1.0935                                         !
 ! R42   R(33,40)                1.0955                                         !
 ! R43   R(33,41)                1.0987                                         !
 ! R44   R(33,42)                1.0928                                         !
 ! R45   R(34,43)                1.0954                                         !
 ! R46   R(34,44)                1.0958                                         !
 ! R47   R(34,45)                1.0948                                         !
 ! R48   R(46,47)                1.4704                                         !
 ! R49   R(46,59)                1.0151                                         !
 ! R50   R(47,48)                1.5322                                         !
 ! R51   R(47,50)                1.5378                                         !
 ! R52   R(47,60)                1.0955                                         !
 ! R53   R(48,49)                1.223                                          !
 ! R54   R(48,57)                1.34                                           !
 ! R55   R(50,51)                1.5432                                         !
 ! R56   R(50,61)                1.0965                                         !
 ! R57   R(50,62)                1.0934                                         !
 ! R58   R(51,52)                1.5334                                         !
 ! R59   R(51,63)                1.0949                                         !
 ! R60   R(51,64)                1.096                                          !
 ! R61   R(52,53)                1.4625                                         !
 ! R62   R(52,65)                1.0977                                         !
 ! R63   R(52,66)                1.101                                          !
 ! R64   R(53,54)                1.4114                                         !
 ! R65   R(53,67)                1.0162                                         !
 ! R66   R(54,55)                1.278                                          !
 ! R67   R(54,56)                1.3976                                         !
 ! R68   R(55,68)                1.0193                                         !
 ! R69   R(56,69)                1.0146                                         !
 ! R70   R(56,70)                1.0143                                         !
 ! R71   R(57,58)                0.9823                                         !
 ! A1    A(2,1,15)             108.7629                                         !
 ! A2    A(2,1,25)             110.194                                          !
 ! A3    A(2,1,26)             108.7317                                         !
 ! A4    A(15,1,25)            109.2468                                         !
 ! A5    A(15,1,26)            108.2883                                         !
 ! A6    A(25,1,26)            111.5548                                         !
 ! A7    A(1,2,3)              104.8755                                         !
 ! A8    A(1,2,5)              109.3799                                         !
 ! A9    A(1,2,16)             105.2638                                         !
 ! A10   A(3,2,5)              119.601                                          !
 ! A11   A(3,2,16)             106.3392                                         !
 ! A12   A(5,2,16)             110.3723                                         !
 ! A13   A(2,3,4)              118.4615                                         !
 ! A14   A(2,3,27)             117.0486                                         !
 ! A15   A(4,3,27)             124.3808                                         !
 ! A16   A(2,5,6)              111.2458                                         !
 ! A17   A(2,5,17)             109.3653                                         !
 ! A18   A(2,5,18)             107.2027                                         !
 ! A19   A(6,5,17)             109.1888                                         !
 ! A20   A(6,5,18)             111.5004                                         !
 ! A21   A(17,5,18)            108.2627                                         !
 ! A22   A(5,6,7)              125.8881                                         !
 ! A23   A(5,6,8)              127.0274                                         !
 ! A24   A(7,6,8)              106.8549                                         !
 ! A25   A(6,7,11)             109.6206                                         !
 ! A26   A(6,7,19)             129.2991                                         !
 ! A27   A(11,7,19)            121.0803                                         !
 ! A28   A(6,8,9)              106.7096                                         !
 ! A29   A(6,8,10)             134.343                                          !
 ! A30   A(9,8,10)             118.947                                          !
 ! A31   A(8,9,11)             107.2689                                         !
 ! A32   A(8,9,12)             122.3132                                         !
 ! A33   A(11,9,12)            130.4176                                         !
 ! A34   A(8,10,13)            118.8666                                         !
 ! A35   A(8,10,21)            121.0054                                         !
 ! A36   A(13,10,21)           120.0978                                         !
 ! A37   A(7,11,9)             109.5447                                         !
 ! A38   A(7,11,20)            125.1585                                         !
 ! A39   A(9,11,20)            125.1952                                         !
 ! A40   A(9,12,14)            117.3575                                         !
 ! A41   A(9,12,22)            121.3465                                         !
 ! A42   A(14,12,22)           121.2958                                         !
 ! A43   A(10,13,14)           121.106                                          !
 ! A44   A(10,13,23)           119.6612                                         !
 ! A45   A(14,13,23)           119.2293                                         !
 ! A46   A(12,14,13)           121.4077                                         !
 ! A47   A(12,14,24)           119.3122                                         !
 ! A48   A(13,14,24)           119.2787                                         !
 ! A49   A(3,27,28)            123.3                                            !
 ! A50   A(3,27,35)            117.536                                          !
 ! A51   A(28,27,35)           115.9644                                         !
 ! A52   A(27,28,29)           112.6839                                         !
 ! A53   A(27,28,31)           113.831                                          !
 ! A54   A(27,28,36)           104.577                                          !
 ! A55   A(29,28,31)           111.3387                                         !
 ! A56   A(29,28,36)           105.6711                                         !
 ! A57   A(31,28,36)           108.0595                                         !
 ! A58   A(28,29,30)           120.7539                                         !
 ! A59   A(28,29,46)           121.1478                                         !
 ! A60   A(30,29,46)           117.9919                                         !
 ! A61   A(28,31,32)           109.5067                                         !
 ! A62   A(28,31,33)           111.3871                                         !
 ! A63   A(28,31,37)           107.1894                                         !
 ! A64   A(32,31,33)           110.8112                                         !
 ! A65   A(32,31,37)           108.7077                                         !
 ! A66   A(33,31,37)           109.1333                                         !
 ! A67   A(31,32,34)           113.4433                                         !
 ! A68   A(31,32,38)           108.5186                                         !
 ! A69   A(31,32,39)           109.4437                                         !
 ! A70   A(34,32,38)           110.0158                                         !
 ! A71   A(34,32,39)           108.2552                                         !
 ! A72   A(38,32,39)           106.9653                                         !
 ! A73   A(31,33,40)           112.6124                                         !
 ! A74   A(31,33,41)           111.5148                                         !
 ! A75   A(31,33,42)           110.1117                                         !
 ! A76   A(40,33,41)           108.3308                                         !
 ! A77   A(40,33,42)           106.806                                          !
 ! A78   A(41,33,42)           107.2107                                         !
 ! A79   A(32,34,43)           112.4168                                         !
 ! A80   A(32,34,44)           110.5222                                         !
 ! A81   A(32,34,45)           110.5399                                         !
 ! A82   A(43,34,44)           108.0414                                         !
 ! A83   A(43,34,45)           107.3638                                         !
 ! A84   A(44,34,45)           107.781                                          !
 ! A85   A(29,46,47)           134.0903                                         !
 ! A86   A(29,46,59)           108.5994                                         !
 ! A87   A(47,46,59)           115.2737                                         !
 ! A88   A(46,47,48)           109.2883                                         !
 ! A89   A(46,47,50)           116.7897                                         !
 ! A90   A(46,47,60)           104.8021                                         !
 ! A91   A(48,47,50)           115.3849                                         !
 ! A92   A(48,47,60)           102.1973                                         !
 ! A93   A(50,47,60)           106.7156                                         !
 ! A94   A(47,48,49)           126.5566                                         !
 ! A95   A(47,48,57)           114.9699                                         !
 ! A96   A(49,48,57)           118.4568                                         !
 ! A97   A(47,50,51)           115.9325                                         !
 ! A98   A(47,50,61)           105.9753                                         !
 ! A99   A(47,50,62)           110.2865                                         !
 ! A100  A(51,50,61)           109.1824                                         !
 ! A101  A(51,50,62)           108.1984                                         !
 ! A102  A(61,50,62)           106.8987                                         !
 ! A103  A(50,51,52)           115.7201                                         !
 ! A104  A(50,51,63)           109.7187                                         !
 ! A105  A(50,51,64)           107.1317                                         !
 ! A106  A(52,51,63)           109.2067                                         !
 ! A107  A(52,51,64)           108.1509                                         !
 ! A108  A(63,51,64)           106.4954                                         !
 ! A109  A(51,52,53)           111.0319                                         !
 ! A110  A(51,52,65)           109.8729                                         !
 ! A111  A(51,52,66)           109.3754                                         !
 ! A112  A(53,52,65)           108.0611                                         !
 ! A113  A(53,52,66)           111.6525                                         !
 ! A114  A(65,52,66)           106.7392                                         !
 ! A115  A(52,53,54)           119.3123                                         !
 ! A116  A(52,53,67)           112.7008                                         !
 ! A117  A(54,53,67)           111.5725                                         !
 ! A118  A(53,54,55)           128.5267                                         !
 ! A119  A(53,54,56)           111.055                                          !
 ! A120  A(55,54,56)           120.4182                                         !
 ! A121  A(54,55,68)           112.7995                                         !
 ! A122  A(54,56,69)           114.6012                                         !
 ! A123  A(54,56,70)           110.9441                                         !
 ! A124  A(69,56,70)           111.8993                                         !
 ! A125  A(48,57,58)           108.2276                                         !
 ! D1    D(15,1,2,3)            77.8623                                         !
 ! D2    D(15,1,2,5)           -51.574                                          !
 ! D3    D(15,1,2,16)         -170.1623                                         !
 ! D4    D(25,1,2,3)          -162.4094                                         !
 ! D5    D(25,1,2,5)            68.1543                                         !
 ! D6    D(25,1,2,16)          -50.4341                                         !
 ! D7    D(26,1,2,3)           -39.857                                          !
 ! D8    D(26,1,2,5)          -169.2933                                         !
 ! D9    D(26,1,2,16)           72.1184                                         !
 ! D10   D(1,2,3,4)             47.2829                                         !
 ! D11   D(1,2,3,27)          -129.0876                                         !
 ! D12   D(5,2,3,4)            170.3604                                         !
 ! D13   D(5,2,3,27)            -6.01                                           !
 ! D14   D(16,2,3,4)           -63.9234                                         !
 ! D15   D(16,2,3,27)          119.7061                                         !
 ! D16   D(1,2,5,6)            -44.1884                                         !
 ! D17   D(1,2,5,17)            76.5053                                         !
 ! D18   D(1,2,5,18)          -166.3306                                         !
 ! D19   D(3,2,5,6)           -165.0407                                         !
 ! D20   D(3,2,5,17)           -44.3469                                         !
 ! D21   D(3,2,5,18)            72.8172                                         !
 ! D22   D(16,2,5,6)            71.1726                                         !
 ! D23   D(16,2,5,17)         -168.1336                                         !
 ! D24   D(16,2,5,18)          -50.9695                                         !
 ! D25   D(2,3,27,28)         -170.4298                                         !
 ! D26   D(2,3,27,35)          -11.4886                                         !
 ! D27   D(4,3,27,28)           13.4369                                         !
 ! D28   D(4,3,27,35)          172.3781                                         !
 ! D29   D(2,5,6,7)            115.3804                                         !
 ! D30   D(2,5,6,8)            -58.3786                                         !
 ! D31   D(17,5,6,7)            -5.4172                                         !
 ! D32   D(17,5,6,8)          -179.1761                                         !
 ! D33   D(18,5,6,7)          -125.0023                                         !
 ! D34   D(18,5,6,8)            61.2388                                         !
 ! D35   D(5,6,7,11)          -175.1665                                         !
 ! D36   D(5,6,7,19)             4.8279                                         !
 ! D37   D(8,6,7,11)            -0.3696                                         !
 ! D38   D(8,6,7,19)           179.6249                                         !
 ! D39   D(5,6,8,9)            175.0544                                         !
 ! D40   D(5,6,8,10)            -5.1816                                         !
 ! D41   D(7,6,8,9)              0.3347                                         !
 ! D42   D(7,6,8,10)          -179.9014                                         !
 ! D43   D(6,7,11,9)             0.2652                                         !
 ! D44   D(6,7,11,20)         -176.2203                                         !
 ! D45   D(19,7,11,9)         -179.7298                                         !
 ! D46   D(19,7,11,20)           3.7847                                         !
 ! D47   D(6,8,9,11)            -0.1786                                         !
 ! D48   D(6,8,9,12)          -179.9975                                         !
 ! D49   D(10,8,9,11)         -179.9857                                         !
 ! D50   D(10,8,9,12)            0.1955                                         !
 ! D51   D(6,8,10,13)          179.8246                                         !
 ! D52   D(6,8,10,21)           -2.1732                                         !
 ! D53   D(9,8,10,13)           -0.4337                                         !
 ! D54   D(9,8,10,21)          177.5684                                         !
 ! D55   D(8,9,11,7)            -0.0447                                         !
 ! D56   D(8,9,11,20)          176.4392                                         !
 ! D57   D(12,9,11,7)          179.7542                                         !
 ! D58   D(12,9,11,20)          -3.7619                                         !
 ! D59   D(8,9,12,14)            0.2149                                         !
 ! D60   D(8,9,12,22)         -179.6272                                         !
 ! D61   D(11,9,12,14)        -179.5578                                         !
 ! D62   D(11,9,12,22)           0.6                                            !
 ! D63   D(8,10,13,14)           0.2703                                         !
 ! D64   D(8,10,13,23)         179.5787                                         !
 ! D65   D(21,10,13,14)       -177.7504                                         !
 ! D66   D(21,10,13,23)          1.558                                          !
 ! D67   D(9,12,14,13)          -0.3885                                         !
 ! D68   D(9,12,14,24)        -179.9507                                         !
 ! D69   D(22,12,14,13)        179.4538                                         !
 ! D70   D(22,12,14,24)         -0.1085                                         !
 ! D71   D(10,13,14,12)          0.1526                                         !
 ! D72   D(10,13,14,24)        179.715                                          !
 ! D73   D(23,13,14,12)       -179.1587                                         !
 ! D74   D(23,13,14,24)          0.4037                                         !
 ! D75   D(3,27,28,29)         -58.0461                                         !
 ! D76   D(3,27,28,31)          69.9615                                         !
 ! D77   D(3,27,28,36)        -172.326                                          !
 ! D78   D(35,27,28,29)        142.7101                                         !
 ! D79   D(35,27,28,31)        -89.2823                                         !
 ! D80   D(35,27,28,36)         28.4302                                         !
 ! D81   D(27,28,29,30)        138.8388                                         !
 ! D82   D(27,28,29,46)        -44.9847                                         !
 ! D83   D(31,28,29,30)          9.5351                                         !
 ! D84   D(31,28,29,46)       -174.2885                                         !
 ! D85   D(36,28,29,30)       -107.5471                                         !
 ! D86   D(36,28,29,46)         68.6293                                         !
 ! D87   D(27,28,31,32)        155.9732                                         !
 ! D88   D(27,28,31,33)         33.0485                                         !
 ! D89   D(27,28,31,37)        -86.2669                                         !
 ! D90   D(29,28,31,32)        -75.3319                                         !
 ! D91   D(29,28,31,33)        161.7434                                         !
 ! D92   D(29,28,31,37)         42.428                                          !
 ! D93   D(36,28,31,32)         40.2884                                         !
 ! D94   D(36,28,31,33)        -82.6363                                         !
 ! D95   D(36,28,31,37)        158.0483                                         !
 ! D96   D(28,29,46,47)         -2.3793                                         !
 ! D97   D(28,29,46,59)       -164.7786                                         !
 ! D98   D(30,29,46,47)        173.8997                                         !
 ! D99   D(30,29,46,59)         11.5003                                         !
 ! D100  D(28,31,32,34)        162.2033                                         !
 ! D101  D(28,31,32,38)        -75.2017                                         !
 ! D102  D(28,31,32,39)         41.1949                                         !
 ! D103  D(33,31,32,34)        -74.5311                                         !
 ! D104  D(33,31,32,38)         48.0639                                         !
 ! D105  D(33,31,32,39)        164.4605                                         !
 ! D106  D(37,31,32,34)         45.397                                          !
 ! D107  D(37,31,32,38)        167.992                                          !
 ! D108  D(37,31,32,39)        -75.6115                                         !
 ! D109  D(28,31,33,40)        -66.2166                                         !
 ! D110  D(28,31,33,41)         55.8161                                         !
 ! D111  D(28,31,33,42)        174.701                                          !
 ! D112  D(32,31,33,40)        171.609                                          !
 ! D113  D(32,31,33,41)        -66.3583                                         !
 ! D114  D(32,31,33,42)         52.5266                                         !
 ! D115  D(37,31,33,40)         51.9357                                         !
 ! D116  D(37,31,33,41)        173.9683                                         !
 ! D117  D(37,31,33,42)        -67.1468                                         !
 ! D118  D(31,32,34,43)         60.4441                                         !
 ! D119  D(31,32,34,44)        -60.3622                                         !
 ! D120  D(31,32,34,45)       -179.6017                                         !
 ! D121  D(38,32,34,43)        -61.3192                                         !
 ! D122  D(38,32,34,44)        177.8746                                         !
 ! D123  D(38,32,34,45)         58.6351                                         !
 ! D124  D(39,32,34,43)       -177.8812                                         !
 ! D125  D(39,32,34,44)         61.3125                                         !
 ! D126  D(39,32,34,45)        -57.927                                          !
 ! D127  D(29,46,47,48)         83.7926                                         !
 ! D128  D(29,46,47,50)        -49.4826                                         !
 ! D129  D(29,46,47,60)       -167.3021                                         !
 ! D130  D(59,46,47,48)       -114.6844                                         !
 ! D131  D(59,46,47,50)        112.0404                                         !
 ! D132  D(59,46,47,60)         -5.779                                          !
 ! D133  D(46,47,48,49)       -148.1899                                         !
 ! D134  D(46,47,48,57)         33.3345                                         !
 ! D135  D(50,47,48,49)        -14.1932                                         !
 ! D136  D(50,47,48,57)        167.3311                                         !
 ! D137  D(60,47,48,49)        101.1653                                         !
 ! D138  D(60,47,48,57)        -77.3103                                         !
 ! D139  D(46,47,50,51)       -167.9137                                         !
 ! D140  D(46,47,50,61)        -46.6316                                         !
 ! D141  D(46,47,50,62)         68.7201                                         !
 ! D142  D(48,47,50,51)         61.6073                                         !
 ! D143  D(48,47,50,61)       -177.1106                                         !
 ! D144  D(48,47,50,62)        -61.7589                                         !
 ! D145  D(60,47,50,51)        -51.1406                                         !
 ! D146  D(60,47,50,61)         70.1414                                         !
 ! D147  D(60,47,50,62)       -174.5069                                         !
 ! D148  D(47,48,57,58)        -17.5259                                         !
 ! D149  D(49,48,57,58)        163.8668                                         !
 ! D150  D(47,50,51,52)         50.0684                                         !
 ! D151  D(47,50,51,63)        -74.0257                                         !
 ! D152  D(47,50,51,64)        170.7533                                         !
 ! D153  D(61,50,51,52)        -69.4827                                         !
 ! D154  D(61,50,51,63)        166.4232                                         !
 ! D155  D(61,50,51,64)         51.2022                                         !
 ! D156  D(62,50,51,52)        174.5191                                         !
 ! D157  D(62,50,51,63)         50.425                                          !
 ! D158  D(62,50,51,64)        -64.7961                                         !
 ! D159  D(50,51,52,53)        -74.5544                                         !
 ! D160  D(50,51,52,65)         44.9292                                         !
 ! D161  D(50,51,52,66)        161.7856                                         !
 ! D162  D(63,51,52,53)         49.8057                                         !
 ! D163  D(63,51,52,65)        169.2893                                         !
 ! D164  D(63,51,52,66)        -73.8544                                         !
 ! D165  D(64,51,52,53)        165.313                                          !
 ! D166  D(64,51,52,65)        -75.2034                                         !
 ! D167  D(64,51,52,66)         41.653                                          !
 ! D168  D(51,52,53,54)        176.1505                                         !
 ! D169  D(51,52,53,67)        -50.0651                                         !
 ! D170  D(65,52,53,54)         55.5893                                         !
 ! D171  D(65,52,53,67)       -170.6263                                         !
 ! D172  D(66,52,53,54)        -61.5013                                         !
 ! D173  D(66,52,53,67)         72.2831                                         !
 ! D174  D(52,53,54,55)         -8.5526                                         !
 ! D175  D(52,53,54,56)        171.316                                          !
 ! D176  D(67,53,54,55)       -142.8119                                         !
 ! D177  D(67,53,54,56)         37.0567                                         !
 ! D178  D(53,54,55,68)          9.6405                                         !
 ! D179  D(56,54,55,68)       -170.2173                                         !
 ! D180  D(53,54,56,69)         46.4497                                         !
 ! D181  D(53,54,56,70)        174.3636                                         !
 ! D182  D(55,54,56,69)       -133.6695                                         !
 ! D183  D(55,54,56,70)         -5.7556                                         !
 --------------------------------------------------------------------------------
 Symmetry turned off by external request.
 Stoichiometry    C23H36N7O4(1+)
 Framework group  C1[X(C23H36N7O4)]
 Deg. of freedom   204
 Full point group                 C1      NOp   1
                          Input orientation:                          
 ---------------------------------------------------------------------
 Center     Atomic      Atomic             Coordinates (Angstroms)
 Number     Number       Type             X           Y           Z
 ---------------------------------------------------------------------
      1          7           0      -94.228591  -14.976931    6.090239
      2          6           0      -95.693858  -15.349027    6.036217
      3          6           0      -95.937726  -15.789208    4.575364
      4          8           0      -95.144491  -16.571741    4.059907
      5          6           0      -96.534448  -14.205418    6.637192
      6          6           0      -95.922443  -13.689568    7.904991
      7          6           0      -95.415354  -12.424629    8.099897
      8          6           0      -95.637344  -14.444215    9.103010
      9          6           0      -94.957708  -13.563222    9.989311
     10          6           0      -95.889500  -15.767103    9.516886
     11          7           0      -94.840754  -12.344485    9.346951
     12          6           0      -94.526392  -13.964809   11.257694
     13          6           0      -95.457960  -16.170049   10.773392
     14          6           0      -94.782320  -15.277801   11.633032
     15          1           0      -94.106415  -14.033844    5.664637
     16          1           0      -95.784681  -16.250382    6.648282
     17          1           0      -96.605080  -13.387594    5.913038
     18          1           0      -97.544917  -14.600828    6.809645
     19          1           0      -95.424264  -11.572803    7.433423
     20          1           0      -94.446240  -11.508695    9.752449
     21          1           0      -96.440735  -16.457226    8.882278
     22          1           0      -94.014051  -13.277216   11.924131
     23          1           0      -95.651472  -17.184551   11.108148
     24          1           0      -94.462035  -15.622995   12.611169
     25          1           0      -93.904839  -14.953270    7.063514
     26          1           0      -93.694315  -15.655655    5.530360
     27          7           0      -96.977375  -15.220794    3.928310
     28          6           0      -97.460241  -15.679025    2.616258
     29          6           0      -96.361881  -15.632727    1.526459
     30          8           0      -96.250651  -16.532430    0.718155
     31          6           0      -98.161124  -17.065844    2.654325
     32          6           0      -99.127885  -17.189095    1.453236
     33          6           0      -98.907222  -17.280120    3.979557
     34          6           0      -99.536044  -18.633091    1.145105
     35          1           0      -97.633842  -14.685251    4.478915
     36          1           0      -98.204623  -14.929742    2.318853
     37          1           0      -97.379567  -17.826200    2.555502
     38          1           0     -100.021638  -16.580939    1.660033
     39          1           0      -98.655449  -16.768884    0.561100
     40          1           0      -98.230221  -17.345246    4.838314
     41          1           0      -99.630140  -16.474885    4.169740
     42          1           0      -99.468177  -18.217379    3.947664
     43          1           0     -100.052168  -19.109714    1.985597
     44          1           0      -98.655228  -19.237491    0.900938
     45          1           0     -100.212769  -18.665794    0.285184
     46          7           0      -95.521533  -14.522026    1.392594
     47          6           0      -95.427368  -13.222297    2.073800
     48          6           0      -94.610617  -13.383073    3.360162
     49          8           0      -94.755214  -12.753010    4.398408
     50          6           0      -96.730578  -12.418516    2.216475
     51          6           0      -96.572343  -10.950466    2.665038
     52          6           0      -95.549274  -10.121199    1.879528
     53          7           0      -94.182361  -10.486465    2.249613
     54          6           0      -93.099293   -9.886990    1.571575
     55          7           0      -93.124391   -9.139579    0.535161
     56          7           0      -91.884664  -10.205234    2.185226
     57          8           0      -93.629415  -14.293484    3.297152
     58          1           0      -93.802533  -14.879049    2.527686
     59          1           0      -95.058473  -14.573195    0.490659
     60          1           0      -94.756163  -12.625520    1.446526
     61          1           0      -97.210529  -12.444374    1.230926
     62          1           0      -97.409263  -12.917361    2.913695
     63          1           0      -96.323171  -10.914577    3.730620
     64          1           0      -97.553030  -10.472840    2.558509
     65          1           0      -95.670184  -10.301318    0.803450
     66          1           0      -95.742623   -9.050056    2.045455
     67          1           0      -94.036569  -10.492115    3.255248
     68          1           0      -94.068068   -8.853123    0.277518
     69          1           0      -91.772293  -11.186950    2.415662
     70          1           0      -91.102127   -9.851329    1.645588
 ---------------------------------------------------------------------
 Rotational constants (GHZ):           0.1240838           0.0860287           0.0565673
 Standard basis: 6-31G(d) (6D, 7F)
   582 basis functions,  1096 primitive gaussians,   582 cartesian basis functions
   127 alpha electrons      127 beta electrons
       nuclear repulsion energy      3837.0474080967 Hartrees.
 NAtoms=   70 NActive=   70 NUniq=   70 SFac= 1.00D+00 NAtFMM=   60 NAOKFM=T Big=T
 Integral buffers will be    131072 words long.
 Raffenetti 2 integral format.
 Two-electron integral symmetry is turned off.
 Nuclear repulsion after empirical dispersion term =     3836.9517223966 Hartrees.
 One-electron integrals computed using PRISM.
 NBasis=   582 RedAO= T EigKep=  3.79D-04  NBF=   582
 NBsUse=   582 1.00D-06 EigRej= -1.00D+00 NBFU=   582
 Initial guess from the checkpoint file:  "conf-474.chk"
 B after Tr=     0.000000    0.000000    0.000000
         Rot=    1.000000    0.000000    0.000000    0.000000 Ang=   0.00 deg.
 Requested convergence on RMS density matrix=1.00D-08 within 128 cycles.
 Requested convergence on MAX density matrix=1.00D-06.
 Requested convergence on             energy=1.00D-06.
 No special actions if energy rises.
 SCF Done:  E(RB3LYP) =  -1582.20388395     A.U. after    2 cycles
            NFock=  2  Conv=0.99D-08     -V/T= 2.0095

 **********************************************************************

            Population analysis using the SCF Density.

 **********************************************************************

 Alpha  occ. eigenvalues --  -19.33335 -19.28849 -19.26582 -19.23635 -14.58865
 Alpha  occ. eigenvalues --  -14.51184 -14.49155 -14.48730 -14.43838 -14.41528
 Alpha  occ. eigenvalues --  -14.36349 -10.46502 -10.43963 -10.41477 -10.40290
 Alpha  occ. eigenvalues --  -10.37256 -10.36150 -10.35700 -10.34031 -10.33692
 Alpha  occ. eigenvalues --  -10.32727 -10.31885 -10.31463 -10.30424 -10.29844
 Alpha  occ. eigenvalues --  -10.29673 -10.29330 -10.29134 -10.29046 -10.28414
 Alpha  occ. eigenvalues --  -10.28241 -10.27595 -10.26469 -10.24672  -1.24897
 Alpha  occ. eigenvalues --   -1.19045  -1.16268  -1.15902  -1.13518  -1.09119
 Alpha  occ. eigenvalues --   -1.07471  -1.05545  -1.04411  -0.97164  -0.94997
 Alpha  occ. eigenvalues --   -0.93884  -0.91965  -0.91439  -0.90990  -0.88687
 Alpha  occ. eigenvalues --   -0.85514  -0.84327  -0.83983  -0.83056  -0.80753
 Alpha  occ. eigenvalues --   -0.80029  -0.78781  -0.75271  -0.74621  -0.73689
 Alpha  occ. eigenvalues --   -0.72857  -0.72772  -0.71826  -0.71151  -0.70141
 Alpha  occ. eigenvalues --   -0.69602  -0.68044  -0.66694  -0.66277  -0.65805
 Alpha  occ. eigenvalues --   -0.64882  -0.64746  -0.63800  -0.63042  -0.62336
 Alpha  occ. eigenvalues --   -0.60608  -0.60172  -0.59152  -0.58949  -0.58120
 Alpha  occ. eigenvalues --   -0.57939  -0.57503  -0.57200  -0.56846  -0.56672
 Alpha  occ. eigenvalues --   -0.55365  -0.54935  -0.54467  -0.54157  -0.53625
 Alpha  occ. eigenvalues --   -0.53522  -0.53108  -0.52436  -0.52364  -0.51947
 Alpha  occ. eigenvalues --   -0.51600  -0.51246  -0.50811  -0.50281  -0.49809
 Alpha  occ. eigenvalues --   -0.49524  -0.49070  -0.48107  -0.47018  -0.46967
 Alpha  occ. eigenvalues --   -0.46576  -0.45902  -0.45670  -0.45646  -0.44641
 Alpha  occ. eigenvalues --   -0.44112  -0.44079  -0.43815  -0.43495  -0.42567
 Alpha  occ. eigenvalues --   -0.41532  -0.41199  -0.40422  -0.39775  -0.38394
 Alpha  occ. eigenvalues --   -0.37913  -0.36832  -0.34342  -0.33326  -0.32998
 Alpha  occ. eigenvalues --   -0.31531  -0.31248
 Alpha virt. eigenvalues --   -0.14367  -0.13920  -0.11880  -0.11005  -0.08096
 Alpha virt. eigenvalues --   -0.07501  -0.06060  -0.05162  -0.04733  -0.04138
 Alpha virt. eigenvalues --   -0.02940  -0.02402  -0.01955  -0.01596  -0.00779
 Alpha virt. eigenvalues --   -0.00473  -0.00120   0.00669   0.00877   0.01409
 Alpha virt. eigenvalues --    0.01934   0.02205   0.02744   0.03052   0.03501
 Alpha virt. eigenvalues --    0.03922   0.04425   0.04595   0.05212   0.05327
 Alpha virt. eigenvalues --    0.05847   0.06045   0.06302   0.06733   0.06844
 Alpha virt. eigenvalues --    0.07334   0.07546   0.07684   0.08405   0.08663
 Alpha virt. eigenvalues --    0.08962   0.09113   0.09360   0.10180   0.10552
 Alpha virt. eigenvalues --    0.10829   0.11163   0.11470   0.11707   0.12287
 Alpha virt. eigenvalues --    0.12687   0.13478   0.14058   0.14240   0.14731
 Alpha virt. eigenvalues --    0.15515   0.15920   0.16085   0.16835   0.17283
 Alpha virt. eigenvalues --    0.18523   0.19096   0.19417   0.20386   0.20829
 Alpha virt. eigenvalues --    0.21441   0.23306   0.23954   0.24589   0.25282
 Alpha virt. eigenvalues --    0.25444   0.25859   0.26917   0.29492   0.31196
 Alpha virt. eigenvalues --    0.32196   0.33430   0.34462   0.34919   0.36754
 Alpha virt. eigenvalues --    0.38242   0.38758   0.39362   0.41066   0.41860
 Alpha virt. eigenvalues --    0.42103   0.42648   0.43070   0.43182   0.43483
 Alpha virt. eigenvalues --    0.43712   0.44528   0.45110   0.45219   0.46300
 Alpha virt. eigenvalues --    0.46321   0.46923   0.46996   0.47814   0.48621
 Alpha virt. eigenvalues --    0.48938   0.49136   0.49429   0.49949   0.50027
 Alpha virt. eigenvalues --    0.50368   0.51293   0.51530   0.51667   0.52243
 Alpha virt. eigenvalues --    0.52472   0.52617   0.52876   0.53355   0.53852
 Alpha virt. eigenvalues --    0.54199   0.55450   0.55560   0.56191   0.56347
 Alpha virt. eigenvalues --    0.57112   0.57430   0.57833   0.58249   0.59223
 Alpha virt. eigenvalues --    0.59363   0.60115   0.61162   0.61350   0.62267
 Alpha virt. eigenvalues --    0.62515   0.63446   0.64341   0.65326   0.65721
 Alpha virt. eigenvalues --    0.66443   0.67072   0.67436   0.68087   0.68860
 Alpha virt. eigenvalues --    0.68998   0.69911   0.70430   0.70526   0.70952
 Alpha virt. eigenvalues --    0.71479   0.71703   0.72330   0.72918   0.73180
 Alpha virt. eigenvalues --    0.73632   0.73887   0.74316   0.74466   0.74814
 Alpha virt. eigenvalues --    0.75411   0.75604   0.76390   0.76553   0.77003
 Alpha virt. eigenvalues --    0.77010   0.77542   0.78129   0.78503   0.79247
 Alpha virt. eigenvalues --    0.79921   0.80199   0.80417   0.80994   0.81451
 Alpha virt. eigenvalues --    0.81902   0.82451   0.82627   0.82921   0.83181
 Alpha virt. eigenvalues --    0.83688   0.83795   0.84176   0.84292   0.84805
 Alpha virt. eigenvalues --    0.85345   0.86044   0.86520   0.87010   0.87548
 Alpha virt. eigenvalues --    0.87687   0.88145   0.88449   0.88879   0.89345
 Alpha virt. eigenvalues --    0.90005   0.90855   0.91456   0.91828   0.92428
 Alpha virt. eigenvalues --    0.93549   0.93662   0.94039   0.94357   0.95492
 Alpha virt. eigenvalues --    0.96056   0.97280   0.97898   0.98796   0.99738
 Alpha virt. eigenvalues --    1.01224   1.01921   1.02426   1.02562   1.03538
 Alpha virt. eigenvalues --    1.04033   1.05154   1.06734   1.08492   1.08851
 Alpha virt. eigenvalues --    1.09111   1.09962   1.10596   1.13324   1.14274
 Alpha virt. eigenvalues --    1.14887   1.15239   1.15839   1.16630   1.18133
 Alpha virt. eigenvalues --    1.19252   1.20187   1.21993   1.22745   1.23441
 Alpha virt. eigenvalues --    1.24129   1.24659   1.25882   1.26644   1.27154
 Alpha virt. eigenvalues --    1.28122   1.28753   1.30446   1.30793   1.31034
 Alpha virt. eigenvalues --    1.31373   1.32673   1.32812   1.34301   1.35134
 Alpha virt. eigenvalues --    1.36538   1.37791   1.38321   1.39281   1.39618
 Alpha virt. eigenvalues --    1.40483   1.40851   1.42994   1.44256   1.46473
 Alpha virt. eigenvalues --    1.47384   1.48307   1.49030   1.49965   1.50873
 Alpha virt. eigenvalues --    1.50971   1.52760   1.53629   1.54931   1.55162
 Alpha virt. eigenvalues --    1.57186   1.57936   1.58104   1.59381   1.60492
 Alpha virt. eigenvalues --    1.61524   1.63349   1.63500   1.64377   1.64982
 Alpha virt. eigenvalues --    1.65579   1.65800   1.66632   1.67745   1.67973
 Alpha virt. eigenvalues --    1.68405   1.69691   1.70270   1.71444   1.71768
 Alpha virt. eigenvalues --    1.72231   1.72636   1.73469   1.74336   1.75580
 Alpha virt. eigenvalues --    1.76358   1.76882   1.77247   1.78084   1.78202
 Alpha virt. eigenvalues --    1.79577   1.80380   1.80751   1.81222   1.81841
 Alpha virt. eigenvalues --    1.82213   1.83528   1.84077   1.84387   1.84728
 Alpha virt. eigenvalues --    1.85460   1.86465   1.86890   1.87233   1.87428
 Alpha virt. eigenvalues --    1.88400   1.89155   1.89616   1.90628   1.91112
 Alpha virt. eigenvalues --    1.91568   1.92570   1.92969   1.93559   1.93823
 Alpha virt. eigenvalues --    1.94886   1.95963   1.96351   1.96680   1.98324
 Alpha virt. eigenvalues --    1.98914   2.00100   2.01965   2.02650   2.03104
 Alpha virt. eigenvalues --    2.04080   2.04576   2.05115   2.06147   2.07241
 Alpha virt. eigenvalues --    2.07583   2.08601   2.11066   2.12841   2.13798
 Alpha virt. eigenvalues --    2.14484   2.14750   2.15312   2.16573   2.17058
 Alpha virt. eigenvalues --    2.17321   2.18886   2.19223   2.20756   2.21600
 Alpha virt. eigenvalues --    2.21812   2.22569   2.22977   2.23665   2.24074
 Alpha virt. eigenvalues --    2.25620   2.26219   2.27839   2.28366   2.29020
 Alpha virt. eigenvalues --    2.29757   2.30505   2.32342   2.32652   2.33642
 Alpha virt. eigenvalues --    2.34593   2.35851   2.37204   2.37278   2.38876
 Alpha virt. eigenvalues --    2.39550   2.40381   2.42594   2.42832   2.43583
 Alpha virt. eigenvalues --    2.44143   2.44665   2.45184   2.45597   2.47835
 Alpha virt. eigenvalues --    2.49312   2.50108   2.50501   2.51490   2.51758
 Alpha virt. eigenvalues --    2.53525   2.54786   2.55982   2.56442   2.57521
 Alpha virt. eigenvalues --    2.58018   2.58103   2.58507   2.59953   2.61867
 Alpha virt. eigenvalues --    2.62462   2.63749   2.64740   2.66330   2.67346
 Alpha virt. eigenvalues --    2.68618   2.71625   2.72231   2.73790   2.76942
 Alpha virt. eigenvalues --    2.79877   2.82120   2.83497   2.85853   2.87591
 Alpha virt. eigenvalues --    2.89309   2.90716   2.93356   2.94208   2.95949
 Alpha virt. eigenvalues --    2.97240   3.02135   3.04929   3.06211   3.14032
 Alpha virt. eigenvalues --    3.33473   3.70369   3.73981   3.77970   3.83189
 Alpha virt. eigenvalues --    3.84758   3.92212   3.92575   3.95131   3.97430
 Alpha virt. eigenvalues --    3.99414   4.02393   4.05979   4.06989   4.09252
 Alpha virt. eigenvalues --    4.10709   4.13205   4.13731   4.18392   4.20179
 Alpha virt. eigenvalues --    4.22588   4.25194   4.27783   4.30357   4.31139
 Alpha virt. eigenvalues --    4.35359   4.38970   4.41650   4.43203   4.45082
 Alpha virt. eigenvalues --    4.48139   4.54327   4.59435   4.61435   4.69363
          Condensed to atoms (all electrons):
 Mulliken charges:
               1
     1  N   -0.750784
     2  C   -0.107691
     3  C    0.621090
     4  O   -0.517424
     5  C   -0.399650
     6  C    0.000302
     7  C    0.010579
     8  C    0.065310
     9  C    0.311241
    10  C   -0.228288
    11  N   -0.678767
    12  C   -0.153654
    13  C   -0.133201
    14  C   -0.147849
    15  H    0.432479
    16  H    0.230923
    17  H    0.189951
    18  H    0.189638
    19  H    0.177220
    20  H    0.350870
    21  H    0.128022
    22  H    0.154456
    23  H    0.152595
    24  H    0.158833
    25  H    0.417431
    26  H    0.421241
    27  N   -0.622610
    28  C   -0.072207
    29  C    0.630328
    30  O   -0.452656
    31  C   -0.066537
    32  C   -0.270371
    33  C   -0.471666
    34  C   -0.455507
    35  H    0.363522
    36  H    0.182303
    37  H    0.177895
    38  H    0.129436
    39  H    0.163544
    40  H    0.128052
    41  H    0.135974
    42  H    0.185036
    43  H    0.149757
    44  H    0.164859
    45  H    0.163106
    46  N   -0.692692
    47  C   -0.049384
    48  C    0.656004
    49  O   -0.523943
    50  C   -0.276639
    51  C   -0.293814
    52  C   -0.148226
    53  N   -0.634294
    54  C    0.569503
    55  N   -0.623267
    56  N   -0.747212
    57  O   -0.584059
    58  H    0.453099
    59  H    0.361654
    60  H    0.233996
    61  H    0.171533
    62  H    0.135011
    63  H    0.160170
    64  H    0.166730
    65  H    0.162120
    66  H    0.168096
    67  H    0.331808
    68  H    0.287156
    69  H    0.311529
    70  H    0.347993
 Sum of Mulliken charges =   1.00000
 Mulliken charges with hydrogens summed into heavy atoms:
               1
     1  N    0.520367
     2  C    0.123232
     3  C    0.621090
     4  O   -0.517424
     5  C   -0.020061
     6  C    0.000302
     7  C    0.187799
     8  C    0.065310
     9  C    0.311241
    10  C   -0.100266
    11  N   -0.327897
    12  C    0.000802
    13  C    0.019393
    14  C    0.010984
    27  N   -0.259088
    28  C    0.110095
    29  C    0.630328
    30  O   -0.452656
    31  C    0.111358
    32  C    0.022608
    33  C   -0.022605
    34  C    0.022215
    46  N   -0.331038
    47  C    0.184612
    48  C    0.656004
    49  O   -0.523943
    50  C    0.029905
    51  C    0.033086
    52  C    0.181990
    53  N   -0.302486
    54  C    0.569503
    55  N   -0.336111
    56  N   -0.087690
    57  O   -0.130960
 Electronic spatial extent (au):  <R**2>=        8524399.6762
 Charge=              1.0000 electrons
 Dipole moment (field-independent basis, Debye):
    X=           -459.7343    Y=            -67.3290    Z=             28.2179  Tot=            465.4944
 Quadrupole moment (field-independent basis, Debye-Ang):
   XX=          43825.5947   YY=            750.7271   ZZ=              6.5976
   XY=           6441.9217   XZ=          -2677.4851   YZ=           -394.6153
 Traceless Quadrupole moment (field-independent basis, Debye-Ang):
   XX=          28964.6216   YY=         -14110.2460   ZZ=         -14854.3756
   XY=           6441.9217   XZ=          -2677.4851   YZ=           -394.6153
 Octapole moment (field-independent basis, Debye-Ang**2):
  XXX=       -4160725.2471  YYY=          -5094.2637  ZZZ=           -971.9247  XYY=         -71866.6268
  XXY=        -613892.5776  XXZ=         253199.8279  XZZ=           -358.4297  YZZ=            -63.2199
  YYZ=           4740.1327  XYZ=          37482.7403
 Hexadecapole moment (field-independent basis, Debye-Ang**3):
 XXXX=      393350162.4309 YYYY=         -50658.9088 ZZZZ=         -21842.8397 XXXY=       58263169.7522
 XXXZ=      -23861031.8068 YYYX=         487475.2896 YYYZ=         -43461.2477 ZZZX=          95496.1169
 ZZZY=          14756.0143 XXYY=        6843734.7992 XXZZ=           1339.5007 YYZZ=          -6065.0722
 XXYZ=       -3548119.5103 YYXZ=        -450402.6210 ZZXY=           1946.8726
 N-N= 3.836951722397D+03 E-N=-1.132564665192D+04  KE= 1.567326120668D+03
 Unable to Open any file for archive entry.
 1\1\GINC-QML-000\SP\RB3LYP\6-31G(d)\C23H36N7O4(1+)\KENGMITH\24-May-202
 2\0\\# B3LYP/6-31G* empiricaldispersion=gd3 guess=read geom=check nosy
 mm integral(ultrafinegrid)\\Candidate Structure: Conf:474 Charge calc 
 in gas phase\\1,1\N,0,-94.2285905275,-14.9769305909,6.0902394128\C,0,-
 95.6938579897,-15.3490271128,6.0362172522\C,0,-95.937726056,-15.789207
 8244,4.5753640363\O,0,-95.144490538,-16.5717412953,4.0599067413\C,0,-9
 6.5344476144,-14.2054181238,6.6371921201\C,0,-95.9224427169,-13.689568
 4432,7.9049910702\C,0,-95.4153540547,-12.4246288761,8.0998965115\C,0,-
 95.637343527,-14.4442149472,9.1030100775\C,0,-94.9577076081,-13.563222
 0201,9.9893110806\C,0,-95.8894995321,-15.7671034124,9.5168859297\N,0,-
 94.8407541181,-12.3444848471,9.346951341\C,0,-94.5263920982,-13.964808
 89,11.2576935353\C,0,-95.4579596606,-16.1700485621,10.7733922687\C,0,-
 94.7823203682,-15.2778005047,11.6330320161\H,0,-94.1064150473,-14.0338
 435258,5.6646367665\H,0,-95.7846814696,-16.2503819535,6.6482817647\H,0
 ,-96.6050797344,-13.3875936948,5.9130375613\H,0,-97.5449166192,-14.600
 8282904,6.8096446968\H,0,-95.4242642374,-11.5728032815,7.4334231884\H,
 0,-94.4462401776,-11.5086946979,9.7524491576\H,0,-96.4407354793,-16.45
 72264781,8.8822778387\H,0,-94.0140512192,-13.2772155074,11.9241310215\
 H,0,-95.6514722041,-17.1845510047,11.1081484399\H,0,-94.4620347905,-15
 .6229951524,12.6111694307\H,0,-93.9048386293,-14.9532702638,7.06351429
 47\H,0,-93.6943148902,-15.6556549503,5.5303595591\N,0,-96.9773754103,-
 15.2207936139,3.9283096242\C,0,-97.4602408864,-15.6790254486,2.6162579
 84\C,0,-96.3618811607,-15.6327265881,1.5264590348\O,0,-96.2506505611,-
 16.532430441,0.7181546782\C,0,-98.1611237589,-17.0658439073,2.65432464
 5\C,0,-99.127884746,-17.1890951219,1.4532364723\C,0,-98.9072220572,-17
 .2801200496,3.9795572426\C,0,-99.5360442676,-18.6330905258,1.145104648
 2\H,0,-97.6338417384,-14.6852506294,4.478915042\H,0,-98.2046228238,-14
 .9297423652,2.3188527921\H,0,-97.3795669416,-17.8261997768,2.555501853
 6\H,0,-100.0216380516,-16.5809389522,1.6600325212\H,0,-98.6554485963,-
 16.7688841737,0.5610997935\H,0,-98.230220735,-17.3452457425,4.83831382
 08\H,0,-99.6301395464,-16.4748850236,4.1697402466\H,0,-99.4681770023,-
 18.2173790879,3.9476642457\H,0,-100.0521677881,-19.1097136444,1.985596
 8543\H,0,-98.6552275547,-19.237490996,0.9009384258\H,0,-100.2127686922
 ,-18.6657944501,0.285183614\N,0,-95.5215333914,-14.5220261968,1.392593
 644\C,0,-95.4273683606,-13.2222966951,2.073799759\C,0,-94.6106167893,-
 13.3830731574,3.3601616804\O,0,-94.7552140045,-12.7530098663,4.3984080
 412\C,0,-96.730578323,-12.4185156437,2.2164748474\C,0,-96.572343452,-1
 0.9504657866,2.6650379004\C,0,-95.5492744037,-10.1211993901,1.87952822
 04\N,0,-94.1823609992,-10.4864652557,2.2496131782\C,0,-93.0992926068,-
 9.8869902105,1.5715753332\N,0,-93.1243906923,-9.1395788552,0.535160632
 3\N,0,-91.8846641379,-10.2052338426,2.1852261653\O,0,-93.6294145099,-1
 4.2934843201,3.2971521013\H,0,-93.8025327822,-14.8790490155,2.52768597
 68\H,0,-95.0584731786,-14.5731954447,0.4906593145\H,0,-94.7561630809,-
 12.6255201499,1.4465255991\H,0,-97.2105285421,-12.4443744842,1.2309260
 648\H,0,-97.4092629071,-12.9173605724,2.9136950984\H,0,-96.3231705087,
 -10.9145766899,3.7306198891\H,0,-97.5530296587,-10.4728404939,2.558509
 4154\H,0,-95.6701842283,-10.3013178727,0.803449887\H,0,-95.742623222,-
 9.0500556953,2.0454545362\H,0,-94.0365688174,-10.4921150987,3.25524763
 3\H,0,-94.0680679312,-8.8531228394,0.2775175049\H,0,-91.7722926872,-11
 .1869499371,2.4156623687\H,0,-91.1021267287,-9.8513293076,1.6455883369
 \\Version=ES64L-G16RevC.01\HF=-1582.203884\RMSD=9.912e-09\Dipole=-0.03
 71459,0.1523752,2.4440185\Quadrupole=21534.4862335,-10490.6220739,-110
 43.8641596,4789.4109227,-1990.6445589,-293.3868317\PG=C01 [X(C23H36N7O
 4)]\\@
 The archive entry for this job was punched.


 HIGGLEDY-PIGGLEDY
 NIC'LAUS COPERNICUS
 LOOKED AT THE UNIVERSE,
 SPOKE TO THE THRONG;
 GIVE UP YOUR PTOLOMY,
 RISE UP AND FOLLOW ME,
 HELIOCENTRICALLY
 PTOLEMY'S WRONG.
   -- NANCY L. STARK
 Job cpu time:       0 days  0 hours  4 minutes  2.3 seconds.
 Elapsed time:       0 days  0 hours  1 minutes  1.1 seconds.
 File lengths (MBytes):  RWF=    296 Int=      0 D2E=      0 Chk=     40 Scr=     16
 Normal termination of Gaussian 16 at Tue May 24 23:13:08 2022.
