 Entering Gaussian System, Link 0=/opt/software/Gaussian/g16-AVX-C.01/g16/g16
 Input=charge-conf-34.com
 Output=charge-conf-34.log
 Initial command:
 /opt/software/Gaussian/g16-AVX-C.01/g16/l1.exe "/mnt/gs18/scratch/users/kengmith/Gau-39456.inp" -scrdir="/mnt/gs18/scratch/users/kengmith/"
 Entering Link 1 = /opt/software/Gaussian/g16-AVX-C.01/g16/l1.exe PID=     39470.
  
 Copyright (c) 1988-2019, Gaussian, Inc.  All Rights Reserved.
  
 This is part of the Gaussian(R) 16 program.  It is based on
 the Gaussian(R) 09 system (copyright 2009, Gaussian, Inc.),
 the Gaussian(R) 03 system (copyright 2003, Gaussian, Inc.),
 the Gaussian(R) 98 system (copyright 1998, Gaussian, Inc.),
 the Gaussian(R) 94 system (copyright 1995, Gaussian, Inc.),
 the Gaussian 92(TM) system (copyright 1992, Gaussian, Inc.),
 the Gaussian 90(TM) system (copyright 1990, Gaussian, Inc.),
 the Gaussian 88(TM) system (copyright 1988, Gaussian, Inc.),
 the Gaussian 86(TM) system (copyright 1986, Carnegie Mellon
 University), and the Gaussian 82(TM) system (copyright 1983,
 Carnegie Mellon University). Gaussian is a federally registered
 trademark of Gaussian, Inc.
  
 This software contains proprietary and confidential information,
 including trade secrets, belonging to Gaussian, Inc.
  
 This software is provided under written license and may be
 used, copied, transmitted, or stored only in accord with that
 written license.
  
 The following legend is applicable only to US Government
 contracts under FAR:
  
                    RESTRICTED RIGHTS LEGEND
  
 Use, reproduction and disclosure by the US Government is
 subject to restrictions as set forth in subparagraphs (a)
 and (c) of the Commercial Computer Software - Restricted
 Rights clause in FAR 52.227-19.
  
 Gaussian, Inc.
 340 Quinnipiac St., Bldg. 40, Wallingford CT 06492
  
  
 ---------------------------------------------------------------
 Warning -- This program may not be used in any manner that
 competes with the business of Gaussian, Inc. or will provide
 assistance to any competitor of Gaussian, Inc.  The licensee
 of this program is prohibited from giving any competitor of
 Gaussian, Inc. access to this program.  By using this program,
 the user acknowledges that Gaussian, Inc. is engaged in the
 business of creating and licensing software in the field of
 computational chemistry and represents and warrants to the
 licensee that it is not a competitor of Gaussian, Inc. and that
 it will not use this program in any manner prohibited above.
 ---------------------------------------------------------------
  

 Cite this work as:
 Gaussian 16, Revision C.01,
 M. J. Frisch, G. W. Trucks, H. B. Schlegel, G. E. Scuseria, 
 M. A. Robb, J. R. Cheeseman, G. Scalmani, V. Barone, 
 G. A. Petersson, H. Nakatsuji, X. Li, M. Caricato, A. V. Marenich, 
 J. Bloino, B. G. Janesko, R. Gomperts, B. Mennucci, H. P. Hratchian, 
 J. V. Ortiz, A. F. Izmaylov, J. L. Sonnenberg, D. Williams-Young, 
 F. Ding, F. Lipparini, F. Egidi, J. Goings, B. Peng, A. Petrone, 
 T. Henderson, D. Ranasinghe, V. G. Zakrzewski, J. Gao, N. Rega, 
 G. Zheng, W. Liang, M. Hada, M. Ehara, K. Toyota, R. Fukuda, 
 J. Hasegawa, M. Ishida, T. Nakajima, Y. Honda, O. Kitao, H. Nakai, 
 T. Vreven, K. Throssell, J. A. Montgomery, Jr., J. E. Peralta, 
 F. Ogliaro, M. J. Bearpark, J. J. Heyd, E. N. Brothers, K. N. Kudin, 
 V. N. Staroverov, T. A. Keith, R. Kobayashi, J. Normand, 
 K. Raghavachari, A. P. Rendell, J. C. Burant, S. S. Iyengar, 
 J. Tomasi, M. Cossi, J. M. Millam, M. Klene, C. Adamo, R. Cammi, 
 J. W. Ochterski, R. L. Martin, K. Morokuma, O. Farkas, 
 J. B. Foresman, and D. J. Fox, Gaussian, Inc., Wallingford CT, 2019.
 
 ******************************************
 Gaussian 16:  ES64L-G16RevC.01  3-Jul-2019
                24-May-2022 
 ******************************************
 %mem=8gb
 %nproc=4
 Will use up to    4 processors via shared memory.
 %chk=conf-34.chk
 ----------------------------------------------------------------------
 # B3LYP/6-31G* empiricaldispersion=gd3 guess=read geom=check nosymm in
 tegral(ultrafinegrid)
 ----------------------------------------------------------------------
 1/29=2,38=1,172=1/1;
 2/12=2,15=1,40=1/2;
 3/5=1,6=6,7=1,11=2,14=-4,25=1,30=1,74=-5,75=-5,116=-2,124=31/1,2,3;
 4/5=1/1;
 5/5=2,38=6/2;
 6/7=2,8=2,9=2,10=2,28=1/1;
 99/5=1,9=1/99;
 -----------------------------------------------------
 Candidate Structure: Conf:34 Charge calc in gas phase
 -----------------------------------------------------
 Structure from the checkpoint file:  "conf-34.chk"
 Charge =  1 Multiplicity = 1
 Redundant internal coordinates found in file.  (old form).
 N,0,-94.6383336103,-12.2151464819,4.842998044
 C,0,-94.0096045619,-13.5707029668,5.0785311439
 C,0,-94.3161280983,-14.3841849727,3.8003819867
 O,0,-94.0679073331,-13.8773882691,2.7107461448
 C,0,-94.4593532473,-14.106225744,6.4517599534
 C,0,-94.3590827292,-13.0454752154,7.5063511357
 C,0,-95.4150401031,-12.4688159974,8.1757928359
 C,0,-93.1657346633,-12.3495791008,7.9268551581
 C,0,-93.5766241092,-11.3628787846,8.8651936275
 C,0,-91.7980885374,-12.4634556693,7.6106261623
 N,0,-94.9498177906,-11.4642542412,8.9922582448
 C,0,-92.6694714751,-10.4964454085,9.4837661853
 C,0,-90.8957450766,-11.6019994779,8.2196267264
 C,0,-91.3284583213,-10.6281873848,9.1449995631
 H,0,-94.2560691567,-11.5288978,5.5020931504
 H,0,-92.9306758228,-13.3938157518,5.0757765137
 H,0,-95.4964393415,-14.4507077712,6.3860347715
 H,0,-93.823376858,-14.9701637969,6.6882152357
 H,0,-96.4694599769,-12.7049642964,8.1256154901
 H,0,-95.5178405541,-10.9196729251,9.624168107
 H,0,-91.4448734351,-13.2291140808,6.9236158731
 H,0,-92.9993377169,-9.7516257398,10.2020495143
 H,0,-89.8375693967,-11.6819014902,7.9900419861
 H,0,-90.596816667,-9.9722622867,9.6065965632
 H,0,-94.4757417721,-11.931634771,3.8677509508
 H,0,-95.668959805,-12.2983749515,4.9919092432
 N,0,-94.9127038799,-15.585035565,3.9641540061
 C,0,-95.0839605665,-16.5577781984,2.8745321024
 C,0,-95.8843932665,-15.9823265118,1.6808790726
 O,0,-95.5428463672,-16.2071385777,0.5364303325
 C,0,-93.7553746995,-17.2113830125,2.4021798647
 C,0,-94.0569319748,-18.5733013329,1.7339972915
 C,0,-92.769777001,-17.380823272,3.5677525825
 C,0,-92.9051249704,-19.0975139603,0.8705744786
 H,0,-94.973722473,-15.9543996459,4.9021338929
 H,0,-95.7176340376,-17.3442389786,3.303959818
 H,0,-93.3149556468,-16.5437474185,1.6544627463
 H,0,-94.2994179788,-19.3036187974,2.5210611796
 H,0,-94.9437601742,-18.4793929666,1.1012901216
 H,0,-93.2127414529,-17.9607884088,4.3891204689
 H,0,-91.8804431961,-17.9206276159,3.2330443254
 H,0,-92.4261001479,-16.4218831208,3.9701729014
 H,0,-92.6796654524,-18.3928767503,0.0621883461
 H,0,-93.1721187433,-20.0561232309,0.4139943753
 H,0,-91.9881914646,-19.2550084861,1.4488552819
 N,0,-97.0624905152,-15.2578745107,1.8841472379
 C,0,-97.8487261743,-14.8982537533,3.0747013875
 C,0,-97.2290408947,-13.6568716918,3.7281695675
 O,0,-97.169061356,-13.420428941,4.925151715
 C,0,-98.1973567053,-16.0377114769,4.0474124944
 C,0,-99.3101403035,-15.6955707582,5.0553459764
 C,0,-100.7486932595,-15.6468741613,4.5052097884
 N,0,-100.9554462772,-14.8263167088,3.3061930598
 C,0,-100.8714150781,-13.4240836214,3.3525241433
 N,0,-100.4138516283,-12.6825841604,4.2954387118
 N,0,-101.3202112727,-12.8424047524,2.17324368
 O,0,-96.7019250138,-12.7706432997,2.8712010808
 H,0,-96.5771723205,-13.2149212341,2.0054934448
 H,0,-97.5562452658,-15.1881343896,1.0003551785
 H,0,-98.8021903453,-14.5451673139,2.6705738846
 H,0,-98.493325422,-16.9005270632,3.4386021784
 H,0,-97.3058843858,-16.3292213195,4.6103088225
 H,0,-99.0476371618,-14.7673534667,5.5649244329
 H,0,-99.3110287106,-16.471937691,5.8305404298
 H,0,-101.0442198577,-16.6617970972,4.2205567752
 H,0,-101.4178520017,-15.3358677696,5.3227269024
 H,0,-101.7470458857,-15.1413061505,2.7545909859
 H,0,-100.2870577138,-13.2002011055,5.1622977216
 H,0,-101.0976310921,-13.3156059755,1.3061860174
 H,0,-101.1653032752,-11.8423773017,2.1456365936
 Recover connectivity data from disk.
                           ----------------------------
                           !    Current Parameters    !
                           ! (Angstroms and Degrees)  !
 --------------------------                            --------------------------
 ! Name  Definition              Value                                          !
 --------------------------------------------------------------------------------
 ! R1    R(1,2)                  1.5127                                         !
 ! R2    R(1,15)                 1.0254                                         !
 ! R3    R(1,25)                 1.0286                                         !
 ! R4    R(1,26)                 1.0446                                         !
 ! R5    R(2,3)                  1.5458                                         !
 ! R6    R(2,5)                  1.541                                          !
 ! R7    R(2,16)                 1.0933                                         !
 ! R8    R(3,4)                  1.2271                                         !
 ! R9    R(3,27)                 1.3508                                         !
 ! R10   R(5,6)                  1.4991                                         !
 ! R11   R(5,17)                 1.0948                                         !
 ! R12   R(5,18)                 1.0985                                         !
 ! R13   R(6,7)                  1.3769                                         !
 ! R14   R(6,8)                  1.444                                          !
 ! R15   R(7,11)                 1.3756                                         !
 ! R16   R(7,19)                 1.0817                                         !
 ! R17   R(8,9)                  1.4223                                         !
 ! R18   R(8,10)                 1.4083                                         !
 ! R19   R(9,11)                 1.3828                                         !
 ! R20   R(9,12)                 1.3987                                         !
 ! R21   R(10,13)                1.3882                                         !
 ! R22   R(10,21)                1.0876                                         !
 ! R23   R(11,20)                1.0092                                         !
 ! R24   R(12,14)                1.3894                                         !
 ! R25   R(12,22)                1.086                                          !
 ! R26   R(13,14)                1.4113                                         !
 ! R27   R(13,23)                1.0857                                         !
 ! R28   R(14,24)                1.0856                                         !
 ! R29   R(27,28)                1.4707                                         !
 ! R30   R(27,35)                1.0099                                         !
 ! R31   R(28,29)                1.5481                                         !
 ! R32   R(28,31)                1.5542                                         !
 ! R33   R(28,36)                1.0975                                         !
 ! R34   R(29,30)                1.2153                                         !
 ! R35   R(29,46)                1.3979                                         !
 ! R36   R(31,32)                1.5467                                         !
 ! R37   R(31,33)                1.5358                                         !
 ! R38   R(31,37)                1.0949                                         !
 ! R39   R(32,34)                1.532                                          !
 ! R40   R(32,38)                1.1007                                         !
 ! R41   R(32,39)                1.0934                                         !
 ! R42   R(33,40)                1.0987                                         !
 ! R43   R(33,41)                1.0929                                         !
 ! R44   R(33,42)                1.0953                                         !
 ! R45   R(34,43)                1.0958                                         !
 ! R46   R(34,44)                1.0948                                         !
 ! R47   R(34,45)                1.0954                                         !
 ! R48   R(46,47)                1.4714                                         !
 ! R49   R(46,59)                1.0148                                         !
 ! R50   R(47,48)                1.5336                                         !
 ! R51   R(47,50)                1.5382                                         !
 ! R52   R(47,60)                1.0941                                         !
 ! R53   R(48,49)                1.2216                                         !
 ! R54   R(48,57)                1.3408                                         !
 ! R55   R(50,51)                1.5399                                         !
 ! R56   R(50,61)                1.0967                                         !
 ! R57   R(50,62)                1.0939                                         !
 ! R58   R(51,52)                1.5409                                         !
 ! R59   R(51,63)                1.0909                                         !
 ! R60   R(51,64)                1.0971                                         !
 ! R61   R(52,53)                1.4675                                         !
 ! R62   R(52,65)                1.0947                                         !
 ! R63   R(52,66)                1.1013                                         !
 ! R64   R(53,54)                1.4055                                         !
 ! R65   R(53,67)                1.0149                                         !
 ! R66   R(54,55)                1.2839                                         !
 ! R67   R(54,56)                1.3894                                         !
 ! R68   R(55,68)                1.0176                                         !
 ! R69   R(56,69)                1.0125                                         !
 ! R70   R(56,70)                1.0123                                         !
 ! R71   R(57,58)                0.981                                          !
 ! A1    A(2,1,15)             110.1629                                         !
 ! A2    A(2,1,25)             109.2041                                         !
 ! A3    A(2,1,26)             108.449                                          !
 ! A4    A(15,1,25)            111.4721                                         !
 ! A5    A(15,1,26)            109.2374                                         !
 ! A6    A(25,1,26)            108.2447                                         !
 ! A7    A(1,2,3)              105.0954                                         !
 ! A8    A(1,2,5)              109.199                                          !
 ! A9    A(1,2,16)             105.354                                          !
 ! A10   A(3,2,5)              119.7407                                         !
 ! A11   A(3,2,16)             106.1854                                         !
 ! A12   A(5,2,16)             110.2714                                         !
 ! A13   A(2,3,4)              118.4756                                         !
 ! A14   A(2,3,27)             117.0753                                         !
 ! A15   A(4,3,27)             124.3425                                         !
 ! A16   A(2,5,6)              111.1895                                         !
 ! A17   A(2,5,17)             109.4094                                         !
 ! A18   A(2,5,18)             107.2261                                         !
 ! A19   A(6,5,17)             109.1619                                         !
 ! A20   A(6,5,18)             111.4895                                         !
 ! A21   A(17,5,18)            108.2935                                         !
 ! A22   A(5,6,7)              125.9504                                         !
 ! A23   A(5,6,8)              126.9502                                         !
 ! A24   A(7,6,8)              106.8805                                         !
 ! A25   A(6,7,11)             109.5768                                         !
 ! A26   A(6,7,19)             129.3163                                         !
 ! A27   A(11,7,19)            121.1068                                         !
 ! A28   A(6,8,9)              106.7205                                         !
 ! A29   A(6,8,10)             134.2809                                         !
 ! A30   A(9,8,10)             118.9981                                         !
 ! A31   A(8,9,11)             107.2568                                         !
 ! A32   A(8,9,12)             122.2869                                         !
 ! A33   A(11,9,12)            130.456                                          !
 ! A34   A(8,10,13)            118.8508                                         !
 ! A35   A(8,10,21)            120.9386                                         !
 ! A36   A(13,10,21)           120.1882                                         !
 ! A37   A(7,11,9)             109.5638                                         !
 ! A38   A(7,11,20)            125.1246                                         !
 ! A39   A(9,11,20)            125.2332                                         !
 ! A40   A(9,12,14)            117.3501                                         !
 ! A41   A(9,12,22)            121.3552                                         !
 ! A42   A(14,12,22)           121.2946                                         !
 ! A43   A(10,13,14)           121.0988                                         !
 ! A44   A(10,13,23)           119.6737                                         !
 ! A45   A(14,13,23)           119.2249                                         !
 ! A46   A(12,14,13)           121.4136                                         !
 ! A47   A(12,14,24)           119.3077                                         !
 ! A48   A(13,14,24)           119.2775                                         !
 ! A49   A(3,27,28)            123.3392                                         !
 ! A50   A(3,27,35)            117.6718                                         !
 ! A51   A(28,27,35)           116.0516                                         !
 ! A52   A(27,28,29)           112.6819                                         !
 ! A53   A(27,28,31)           113.8159                                         !
 ! A54   A(27,28,36)           104.5554                                         !
 ! A55   A(29,28,31)           111.3446                                         !
 ! A56   A(29,28,36)           105.6365                                         !
 ! A57   A(31,28,36)           108.1276                                         !
 ! A58   A(28,29,30)           120.7983                                         !
 ! A59   A(28,29,46)           121.0824                                         !
 ! A60   A(30,29,46)           118.0119                                         !
 ! A61   A(28,31,32)           109.5688                                         !
 ! A62   A(28,31,33)           111.3669                                         !
 ! A63   A(28,31,37)           107.1562                                         !
 ! A64   A(32,31,33)           110.8451                                         !
 ! A65   A(32,31,37)           108.683                                          !
 ! A66   A(33,31,37)           109.1123                                         !
 ! A67   A(31,32,34)           113.4656                                         !
 ! A68   A(31,32,38)           108.5583                                         !
 ! A69   A(31,32,39)           109.4197                                         !
 ! A70   A(34,32,38)           109.9737                                         !
 ! A71   A(34,32,39)           108.2429                                         !
 ! A72   A(38,32,39)           106.9813                                         !
 ! A73   A(31,33,40)           111.5219                                         !
 ! A74   A(31,33,41)           110.1387                                         !
 ! A75   A(31,33,42)           112.5581                                         !
 ! A76   A(40,33,41)           107.236                                          !
 ! A77   A(40,33,42)           108.2995                                         !
 ! A78   A(41,33,42)           106.8363                                         !
 ! A79   A(32,34,43)           110.5133                                         !
 ! A80   A(32,34,44)           110.5663                                         !
 ! A81   A(32,34,45)           112.3957                                         !
 ! A82   A(43,34,44)           107.7907                                         !
 ! A83   A(43,34,45)           108.0388                                         !
 ! A84   A(44,34,45)           107.3611                                         !
 ! A85   A(29,46,47)           134.0011                                         !
 ! A86   A(29,46,59)           108.6051                                         !
 ! A87   A(47,46,59)           115.3353                                         !
 ! A88   A(46,47,48)           109.0682                                         !
 ! A89   A(46,47,50)           116.8552                                         !
 ! A90   A(46,47,60)           104.2214                                         !
 ! A91   A(48,47,50)           114.9445                                         !
 ! A92   A(48,47,60)           104.3761                                         !
 ! A93   A(50,47,60)           105.9692                                         !
 ! A94   A(47,48,49)           126.4425                                         !
 ! A95   A(47,48,57)           114.9318                                         !
 ! A96   A(49,48,57)           118.6235                                         !
 ! A97   A(47,50,51)           114.4004                                         !
 ! A98   A(47,50,61)           107.0328                                         !
 ! A99   A(47,50,62)           109.7618                                         !
 ! A100  A(51,50,61)           110.0687                                         !
 ! A101  A(51,50,62)           108.1384                                         !
 ! A102  A(61,50,62)           107.2144                                         !
 ! A103  A(50,51,52)           116.6131                                         !
 ! A104  A(50,51,63)           108.7173                                         !
 ! A105  A(50,51,64)           107.8089                                         !
 ! A106  A(52,51,63)           111.3772                                         !
 ! A107  A(52,51,64)           105.8944                                         !
 ! A108  A(63,51,64)           105.7978                                         !
 ! A109  A(51,52,53)           116.1602                                         !
 ! A110  A(51,52,65)           108.3942                                         !
 ! A111  A(51,52,66)           108.1284                                         !
 ! A112  A(53,52,65)           105.5393                                         !
 ! A113  A(53,52,66)           111.2841                                         !
 ! A114  A(65,52,66)           106.9064                                         !
 ! A115  A(52,53,54)           121.4984                                         !
 ! A116  A(52,53,67)           112.3576                                         !
 ! A117  A(54,53,67)           111.9732                                         !
 ! A118  A(53,54,55)           128.4425                                         !
 ! A119  A(53,54,56)           111.7393                                         !
 ! A120  A(55,54,56)           119.7814                                         !
 ! A121  A(54,55,68)           112.1036                                         !
 ! A122  A(54,56,69)           117.3968                                         !
 ! A123  A(54,56,70)           112.7854                                         !
 ! A124  A(69,56,70)           113.8703                                         !
 ! A125  A(48,57,58)           108.3419                                         !
 ! D1    D(15,1,2,3)          -163.2433                                         !
 ! D2    D(15,1,2,5)            67.1145                                         !
 ! D3    D(15,1,2,16)          -51.3142                                         !
 ! D4    D(25,1,2,3)           -40.5036                                         !
 ! D5    D(25,1,2,5)          -170.1457                                         !
 ! D6    D(25,1,2,16)           71.4255                                         !
 ! D7    D(26,1,2,3)            77.2512                                         !
 ! D8    D(26,1,2,5)           -52.391                                          !
 ! D9    D(26,1,2,16)         -170.8198                                         !
 ! D10   D(1,2,3,4)             49.7419                                         !
 ! D11   D(1,2,3,27)          -126.6689                                         !
 ! D12   D(5,2,3,4)            172.861                                          !
 ! D13   D(5,2,3,27)            -3.5498                                         !
 ! D14   D(16,2,3,4)           -61.5952                                         !
 ! D15   D(16,2,3,27)          121.994                                          !
 ! D16   D(1,2,5,6)            -45.6437                                         !
 ! D17   D(1,2,5,17)            75.0096                                         !
 ! D18   D(1,2,5,18)          -167.7534                                         !
 ! D19   D(3,2,5,6)           -166.7445                                         !
 ! D20   D(3,2,5,17)           -46.0912                                         !
 ! D21   D(3,2,5,18)            71.1458                                         !
 ! D22   D(16,2,5,6)            69.6653                                         !
 ! D23   D(16,2,5,17)         -169.6813                                         !
 ! D24   D(16,2,5,18)          -52.4443                                         !
 ! D25   D(2,3,27,28)         -170.4963                                         !
 ! D26   D(2,3,27,35)          -10.6858                                         !
 ! D27   D(4,3,27,28)           13.3251                                         !
 ! D28   D(4,3,27,35)          173.1356                                         !
 ! D29   D(2,5,6,7)            113.3651                                         !
 ! D30   D(2,5,6,8)            -60.5424                                         !
 ! D31   D(17,5,6,7)            -7.4339                                         !
 ! D32   D(17,5,6,8)           178.6586                                         !
 ! D33   D(18,5,6,7)          -127.0331                                         !
 ! D34   D(18,5,6,8)            59.0594                                         !
 ! D35   D(5,6,7,11)          -175.3136                                         !
 ! D36   D(5,6,7,19)             4.6022                                         !
 ! D37   D(8,6,7,11)            -0.3988                                         !
 ! D38   D(8,6,7,19)           179.517                                          !
 ! D39   D(5,6,8,9)            175.2264                                         !
 ! D40   D(5,6,8,10)            -5.0631                                         !
 ! D41   D(7,6,8,9)              0.3777                                         !
 ! D42   D(7,6,8,10)          -179.9117                                         !
 ! D43   D(6,7,11,9)             0.2689                                         !
 ! D44   D(6,7,11,20)         -176.6464                                         !
 ! D45   D(19,7,11,9)         -179.655                                          !
 ! D46   D(19,7,11,20)           3.4297                                         !
 ! D47   D(6,8,9,11)            -0.2193                                         !
 ! D48   D(6,8,9,12)           179.9681                                         !
 ! D49   D(10,8,9,11)         -179.9824                                         !
 ! D50   D(10,8,9,12)            0.2051                                         !
 ! D51   D(6,8,10,13)          179.91                                           !
 ! D52   D(6,8,10,21)           -1.8086                                         !
 ! D53   D(9,8,10,13)           -0.4069                                         !
 ! D54   D(9,8,10,21)          177.8744                                         !
 ! D55   D(8,9,11,7)            -0.021                                          !
 ! D56   D(8,9,11,20)          176.8901                                         !
 ! D57   D(12,9,11,7)          179.7707                                         !
 ! D58   D(12,9,11,20)          -3.3182                                         !
 ! D59   D(8,9,12,14)            0.1776                                         !
 ! D60   D(8,9,12,22)         -179.6885                                         !
 ! D61   D(11,9,12,14)        -179.5872                                         !
 ! D62   D(11,9,12,22)           0.5468                                         !
 ! D63   D(8,10,13,14)           0.2354                                         !
 ! D64   D(8,10,13,23)         179.64                                           !
 ! D65   D(21,10,13,14)       -178.0592                                         !
 ! D66   D(21,10,13,23)          1.3454                                         !
 ! D67   D(9,12,14,13)          -0.3589                                         !
 ! D68   D(9,12,14,24)        -179.9667                                         !
 ! D69   D(22,12,14,13)        179.5072                                         !
 ! D70   D(22,12,14,24)         -0.1006                                         !
 ! D71   D(10,13,14,12)          0.1588                                         !
 ! D72   D(10,13,14,24)        179.7668                                         !
 ! D73   D(23,13,14,12)       -179.2484                                         !
 ! D74   D(23,13,14,24)          0.3595                                         !
 ! D75   D(3,27,28,29)         -58.0844                                         !
 ! D76   D(3,27,28,31)          69.9165                                         !
 ! D77   D(3,27,28,36)        -172.31                                           !
 ! D78   D(35,27,28,29)        141.8058                                         !
 ! D79   D(35,27,28,31)        -90.1933                                         !
 ! D80   D(35,27,28,36)         27.5802                                         !
 ! D81   D(27,28,29,30)        138.1002                                         !
 ! D82   D(27,28,29,46)        -45.742                                          !
 ! D83   D(31,28,29,30)          8.8138                                         !
 ! D84   D(31,28,29,46)       -175.0284                                         !
 ! D85   D(36,28,29,30)       -108.3324                                         !
 ! D86   D(36,28,29,46)         67.8255                                         !
 ! D87   D(27,28,31,32)        156.4076                                         !
 ! D88   D(27,28,31,33)         33.4103                                         !
 ! D89   D(27,28,31,37)        -85.8473                                         !
 ! D90   D(29,28,31,32)        -74.9079                                         !
 ! D91   D(29,28,31,33)        162.0948                                         !
 ! D92   D(29,28,31,37)         42.8372                                         !
 ! D93   D(36,28,31,32)         40.7141                                         !
 ! D94   D(36,28,31,33)        -82.2832                                         !
 ! D95   D(36,28,31,37)        158.4592                                         !
 ! D96   D(28,29,46,47)         -2.6556                                         !
 ! D97   D(28,29,46,59)       -164.9785                                         !
 ! D98   D(30,29,46,47)        173.6063                                         !
 ! D99   D(30,29,46,59)         11.2834                                         !
 ! D100  D(28,31,32,34)        162.5493                                         !
 ! D101  D(28,31,32,38)        -74.8657                                         !
 ! D102  D(28,31,32,39)         41.559                                          !
 ! D103  D(33,31,32,34)        -74.145                                          !
 ! D104  D(33,31,32,38)         48.4399                                         !
 ! D105  D(33,31,32,39)        164.8647                                         !
 ! D106  D(37,31,32,34)         45.7622                                         !
 ! D107  D(37,31,32,38)        168.3471                                         !
 ! D108  D(37,31,32,39)        -75.2281                                         !
 ! D109  D(28,31,33,40)         56.0744                                         !
 ! D110  D(28,31,33,41)        175.0129                                         !
 ! D111  D(28,31,33,42)        -65.8834                                         !
 ! D112  D(32,31,33,40)        -66.1892                                         !
 ! D113  D(32,31,33,41)         52.7493                                         !
 ! D114  D(32,31,33,42)        171.853                                          !
 ! D115  D(37,31,33,40)        174.1604                                         !
 ! D116  D(37,31,33,41)        -66.901                                          !
 ! D117  D(37,31,33,42)         52.2027                                         !
 ! D118  D(31,32,34,43)        -60.1848                                         !
 ! D119  D(31,32,34,44)       -179.4475                                         !
 ! D120  D(31,32,34,45)         60.5975                                         !
 ! D121  D(38,32,34,43)        178.0161                                         !
 ! D122  D(38,32,34,44)         58.7534                                         !
 ! D123  D(38,32,34,45)        -61.2016                                         !
 ! D124  D(39,32,34,43)         61.4651                                         !
 ! D125  D(39,32,34,44)        -57.7977                                         !
 ! D126  D(39,32,34,45)       -177.7526                                         !
 ! D127  D(29,46,47,48)         82.7304                                         !
 ! D128  D(29,46,47,50)        -49.7385                                         !
 ! D129  D(29,46,47,60)       -166.2549                                         !
 ! D130  D(59,46,47,48)       -115.8364                                         !
 ! D131  D(59,46,47,50)        111.6948                                         !
 ! D132  D(59,46,47,60)         -4.8217                                         !
 ! D133  D(46,47,48,49)       -144.6144                                         !
 ! D134  D(46,47,48,57)         34.8408                                         !
 ! D135  D(50,47,48,49)        -11.1494                                         !
 ! D136  D(50,47,48,57)        168.3058                                         !
 ! D137  D(60,47,48,49)        104.4738                                         !
 ! D138  D(60,47,48,57)        -76.071                                          !
 ! D139  D(46,47,50,51)       -164.6443                                         !
 ! D140  D(46,47,50,61)        -42.4318                                         !
 ! D141  D(46,47,50,62)         73.6057                                         !
 ! D142  D(48,47,50,51)         65.6105                                         !
 ! D143  D(48,47,50,61)       -172.177                                          !
 ! D144  D(48,47,50,62)        -56.1395                                         !
 ! D145  D(60,47,50,51)        -49.093                                          !
 ! D146  D(60,47,50,61)         73.1195                                         !
 ! D147  D(60,47,50,62)       -170.843                                          !
 ! D148  D(47,48,57,58)        -16.8357                                         !
 ! D149  D(49,48,57,58)        162.665                                          !
 ! D150  D(47,50,51,52)         74.1302                                         !
 ! D151  D(47,50,51,63)        -52.7564                                         !
 ! D152  D(47,50,51,64)       -167.0085                                         !
 ! D153  D(61,50,51,52)        -46.4115                                         !
 ! D154  D(61,50,51,63)       -173.2981                                         !
 ! D155  D(61,50,51,64)         72.4498                                         !
 ! D156  D(62,50,51,52)       -163.2344                                         !
 ! D157  D(62,50,51,63)         69.879                                          !
 ! D158  D(62,50,51,64)        -44.3731                                         !
 ! D159  D(50,51,52,53)        -50.887                                          !
 ! D160  D(50,51,52,65)         67.6605                                         !
 ! D161  D(50,51,52,66)       -176.7863                                         !
 ! D162  D(63,51,52,53)         74.6743                                         !
 ! D163  D(63,51,52,65)       -166.7781                                         !
 ! D164  D(63,51,52,66)        -51.2249                                         !
 ! D165  D(64,51,52,53)       -170.7786                                         !
 ! D166  D(64,51,52,65)        -52.231                                          !
 ! D167  D(64,51,52,66)         63.3222                                         !
 ! D168  D(51,52,53,54)        -69.6289                                         !
 ! D169  D(51,52,53,67)        153.7745                                         !
 ! D170  D(65,52,53,54)        170.2726                                         !
 ! D171  D(65,52,53,67)         33.676                                          !
 ! D172  D(66,52,53,54)         54.6615                                         !
 ! D173  D(66,52,53,67)        -81.9351                                         !
 ! D174  D(52,53,54,55)         12.4314                                         !
 ! D175  D(52,53,54,56)       -169.8128                                         !
 ! D176  D(67,53,54,55)        149.1758                                         !
 ! D177  D(67,53,54,56)        -33.0684                                         !
 ! D178  D(53,54,55,68)        -13.4022                                         !
 ! D179  D(56,54,55,68)        168.9997                                         !
 ! D180  D(53,54,56,69)        -37.7858                                         !
 ! D181  D(53,54,56,70)       -173.19                                           !
 ! D182  D(55,54,56,69)        140.1891                                         !
 ! D183  D(55,54,56,70)          4.7848                                         !
 --------------------------------------------------------------------------------
 Symmetry turned off by external request.
 Stoichiometry    C23H36N7O4(1+)
 Framework group  C1[X(C23H36N7O4)]
 Deg. of freedom   204
 Full point group                 C1      NOp   1
                          Input orientation:                          
 ---------------------------------------------------------------------
 Center     Atomic      Atomic             Coordinates (Angstroms)
 Number     Number       Type             X           Y           Z
 ---------------------------------------------------------------------
      1          7           0      -94.638334  -12.215146    4.842998
      2          6           0      -94.009605  -13.570703    5.078531
      3          6           0      -94.316128  -14.384185    3.800382
      4          8           0      -94.067907  -13.877388    2.710746
      5          6           0      -94.459353  -14.106226    6.451760
      6          6           0      -94.359083  -13.045475    7.506351
      7          6           0      -95.415040  -12.468816    8.175793
      8          6           0      -93.165735  -12.349579    7.926855
      9          6           0      -93.576624  -11.362879    8.865194
     10          6           0      -91.798089  -12.463456    7.610626
     11          7           0      -94.949818  -11.464254    8.992258
     12          6           0      -92.669471  -10.496445    9.483766
     13          6           0      -90.895745  -11.601999    8.219627
     14          6           0      -91.328458  -10.628187    9.145000
     15          1           0      -94.256069  -11.528898    5.502093
     16          1           0      -92.930676  -13.393816    5.075777
     17          1           0      -95.496439  -14.450708    6.386035
     18          1           0      -93.823377  -14.970164    6.688215
     19          1           0      -96.469460  -12.704964    8.125615
     20          1           0      -95.517841  -10.919673    9.624168
     21          1           0      -91.444873  -13.229114    6.923616
     22          1           0      -92.999338   -9.751626   10.202050
     23          1           0      -89.837569  -11.681901    7.990042
     24          1           0      -90.596817   -9.972262    9.606597
     25          1           0      -94.475742  -11.931635    3.867751
     26          1           0      -95.668960  -12.298375    4.991909
     27          7           0      -94.912704  -15.585036    3.964154
     28          6           0      -95.083961  -16.557778    2.874532
     29          6           0      -95.884393  -15.982327    1.680879
     30          8           0      -95.542846  -16.207139    0.536430
     31          6           0      -93.755375  -17.211383    2.402180
     32          6           0      -94.056932  -18.573301    1.733997
     33          6           0      -92.769777  -17.380823    3.567753
     34          6           0      -92.905125  -19.097514    0.870574
     35          1           0      -94.973722  -15.954400    4.902134
     36          1           0      -95.717634  -17.344239    3.303960
     37          1           0      -93.314956  -16.543747    1.654463
     38          1           0      -94.299418  -19.303619    2.521061
     39          1           0      -94.943760  -18.479393    1.101290
     40          1           0      -93.212741  -17.960788    4.389120
     41          1           0      -91.880443  -17.920628    3.233044
     42          1           0      -92.426100  -16.421883    3.970173
     43          1           0      -92.679665  -18.392877    0.062188
     44          1           0      -93.172119  -20.056123    0.413994
     45          1           0      -91.988191  -19.255008    1.448855
     46          7           0      -97.062491  -15.257875    1.884147
     47          6           0      -97.848726  -14.898254    3.074701
     48          6           0      -97.229041  -13.656872    3.728170
     49          8           0      -97.169061  -13.420429    4.925152
     50          6           0      -98.197357  -16.037711    4.047412
     51          6           0      -99.310140  -15.695571    5.055346
     52          6           0     -100.748693  -15.646874    4.505210
     53          7           0     -100.955446  -14.826317    3.306193
     54          6           0     -100.871415  -13.424084    3.352524
     55          7           0     -100.413852  -12.682584    4.295439
     56          7           0     -101.320211  -12.842405    2.173244
     57          8           0      -96.701925  -12.770643    2.871201
     58          1           0      -96.577172  -13.214921    2.005493
     59          1           0      -97.556245  -15.188134    1.000355
     60          1           0      -98.802190  -14.545167    2.670574
     61          1           0      -98.493325  -16.900527    3.438602
     62          1           0      -97.305884  -16.329221    4.610309
     63          1           0      -99.047637  -14.767353    5.564924
     64          1           0      -99.311029  -16.471938    5.830540
     65          1           0     -101.044220  -16.661797    4.220557
     66          1           0     -101.417852  -15.335868    5.322727
     67          1           0     -101.747046  -15.141306    2.754591
     68          1           0     -100.287058  -13.200201    5.162298
     69          1           0     -101.097631  -13.315606    1.306186
     70          1           0     -101.165303  -11.842377    2.145637
 ---------------------------------------------------------------------
 Rotational constants (GHZ):           0.1382585           0.0819913           0.0576539
 Standard basis: 6-31G(d) (6D, 7F)
   582 basis functions,  1096 primitive gaussians,   582 cartesian basis functions
   127 alpha electrons      127 beta electrons
       nuclear repulsion energy      3856.8450697798 Hartrees.
 NAtoms=   70 NActive=   70 NUniq=   70 SFac= 1.00D+00 NAtFMM=   60 NAOKFM=T Big=T
 Integral buffers will be    131072 words long.
 Raffenetti 2 integral format.
 Two-electron integral symmetry is turned off.
 Nuclear repulsion after empirical dispersion term =     3856.7481352313 Hartrees.
 One-electron integrals computed using PRISM.
 NBasis=   582 RedAO= T EigKep=  3.79D-04  NBF=   582
 NBsUse=   582 1.00D-06 EigRej= -1.00D+00 NBFU=   582
 Initial guess from the checkpoint file:  "conf-34.chk"
 B after Tr=     0.000000    0.000000    0.000000
         Rot=    1.000000    0.000000    0.000000    0.000000 Ang=   0.00 deg.
 Requested convergence on RMS density matrix=1.00D-08 within 128 cycles.
 Requested convergence on MAX density matrix=1.00D-06.
 Requested convergence on             energy=1.00D-06.
 No special actions if energy rises.
 SCF Done:  E(RB3LYP) =  -1582.20570126     A.U. after    1 cycles
            NFock=  1  Conv=0.34D-08     -V/T= 2.0095

 **********************************************************************

            Population analysis using the SCF Density.

 **********************************************************************

 Alpha  occ. eigenvalues --  -19.32261 -19.27724 -19.25808 -19.23137 -14.57948
 Alpha  occ. eigenvalues --  -14.50453 -14.48549 -14.48223 -14.44528 -14.42628
 Alpha  occ. eigenvalues --  -14.37212 -10.45466 -10.43222 -10.40966 -10.39512
 Alpha  occ. eigenvalues --  -10.36831 -10.36402 -10.35633 -10.33311 -10.33054
 Alpha  occ. eigenvalues --  -10.32115 -10.32086 -10.30874 -10.29777 -10.29221
 Alpha  occ. eigenvalues --  -10.29028 -10.28707 -10.28706 -10.28477 -10.27852
 Alpha  occ. eigenvalues --  -10.27662 -10.27173 -10.26154 -10.24425  -1.23815
 Alpha  occ. eigenvalues --   -1.18254  -1.15519  -1.15098  -1.12652  -1.08499
 Alpha  occ. eigenvalues --   -1.06763  -1.06396  -1.03847  -0.97606  -0.94331
 Alpha  occ. eigenvalues --   -0.93245  -0.92756  -0.90971  -0.90733  -0.88050
 Alpha  occ. eigenvalues --   -0.85141  -0.83849  -0.83406  -0.82451  -0.80388
 Alpha  occ. eigenvalues --   -0.79347  -0.78470  -0.74451  -0.73908  -0.72886
 Alpha  occ. eigenvalues --   -0.72427  -0.72253  -0.71339  -0.70976  -0.69578
 Alpha  occ. eigenvalues --   -0.68993  -0.67408  -0.66587  -0.65626  -0.65280
 Alpha  occ. eigenvalues --   -0.64255  -0.64123  -0.63845  -0.62415  -0.62318
 Alpha  occ. eigenvalues --   -0.60558  -0.59869  -0.59317  -0.58475  -0.57807
 Alpha  occ. eigenvalues --   -0.57314  -0.57020  -0.56740  -0.56199  -0.55937
 Alpha  occ. eigenvalues --   -0.55058  -0.54293  -0.54245  -0.53711  -0.53443
 Alpha  occ. eigenvalues --   -0.52951  -0.52474  -0.52257  -0.51772  -0.51462
 Alpha  occ. eigenvalues --   -0.51045  -0.50663  -0.50384  -0.49849  -0.49460
 Alpha  occ. eigenvalues --   -0.49045  -0.48619  -0.48176  -0.46668  -0.46538
 Alpha  occ. eigenvalues --   -0.46448  -0.45674  -0.45190  -0.44875  -0.44241
 Alpha  occ. eigenvalues --   -0.43860  -0.43486  -0.43217  -0.43021  -0.41876
 Alpha  occ. eigenvalues --   -0.41114  -0.40825  -0.39755  -0.39170  -0.37766
 Alpha  occ. eigenvalues --   -0.37340  -0.36300  -0.34835  -0.34143  -0.32393
 Alpha  occ. eigenvalues --   -0.32047  -0.30921
 Alpha virt. eigenvalues --   -0.13366  -0.13015  -0.11289  -0.10497  -0.07431
 Alpha virt. eigenvalues --   -0.06783  -0.05439  -0.04598  -0.04348  -0.03764
 Alpha virt. eigenvalues --   -0.03453  -0.02187  -0.01487  -0.01210  -0.00504
 Alpha virt. eigenvalues --    0.00099   0.01106   0.01258   0.01511   0.01866
 Alpha virt. eigenvalues --    0.02263   0.02570   0.02621   0.03513   0.03877
 Alpha virt. eigenvalues --    0.04589   0.05004   0.05292   0.05387   0.05684
 Alpha virt. eigenvalues --    0.05828   0.06439   0.06533   0.06729   0.07146
 Alpha virt. eigenvalues --    0.07923   0.07977   0.08160   0.08799   0.09170
 Alpha virt. eigenvalues --    0.09339   0.09592   0.09870   0.10782   0.11315
 Alpha virt. eigenvalues --    0.11560   0.11608   0.11996   0.12585   0.12966
 Alpha virt. eigenvalues --    0.13268   0.13958   0.14507   0.14662   0.14927
 Alpha virt. eigenvalues --    0.15988   0.16256   0.16775   0.17184   0.17491
 Alpha virt. eigenvalues --    0.19079   0.19575   0.19731   0.20998   0.21228
 Alpha virt. eigenvalues --    0.22054   0.23904   0.24305   0.24566   0.25235
 Alpha virt. eigenvalues --    0.25867   0.26294   0.27523   0.30080   0.31753
 Alpha virt. eigenvalues --    0.32779   0.33922   0.35213   0.36099   0.38059
 Alpha virt. eigenvalues --    0.38792   0.39365   0.40051   0.40983   0.41372
 Alpha virt. eigenvalues --    0.41779   0.42644   0.43251   0.43615   0.43684
 Alpha virt. eigenvalues --    0.43917   0.44926   0.45234   0.45501   0.46623
 Alpha virt. eigenvalues --    0.46885   0.47236   0.47604   0.47980   0.48424
 Alpha virt. eigenvalues --    0.49465   0.49594   0.50242   0.50292   0.50806
 Alpha virt. eigenvalues --    0.51256   0.51979   0.52016   0.52223   0.52674
 Alpha virt. eigenvalues --    0.52926   0.53174   0.53505   0.53892   0.53986
 Alpha virt. eigenvalues --    0.54586   0.54780   0.55753   0.56735   0.56998
 Alpha virt. eigenvalues --    0.57949   0.58258   0.58384   0.58603   0.59021
 Alpha virt. eigenvalues --    0.59922   0.60231   0.61078   0.62623   0.62659
 Alpha virt. eigenvalues --    0.63051   0.63602   0.64337   0.65137   0.65943
 Alpha virt. eigenvalues --    0.66976   0.67619   0.68418   0.68618   0.69176
 Alpha virt. eigenvalues --    0.69363   0.69983   0.71035   0.71182   0.71651
 Alpha virt. eigenvalues --    0.71946   0.73049   0.73084   0.73329   0.73660
 Alpha virt. eigenvalues --    0.74259   0.74523   0.74871   0.75129   0.75672
 Alpha virt. eigenvalues --    0.75950   0.76346   0.77071   0.77130   0.77760
 Alpha virt. eigenvalues --    0.77882   0.77998   0.78815   0.79354   0.79721
 Alpha virt. eigenvalues --    0.80244   0.80644   0.80894   0.81409   0.81882
 Alpha virt. eigenvalues --    0.82157   0.82381   0.82853   0.83678   0.83956
 Alpha virt. eigenvalues --    0.84031   0.84533   0.84710   0.85288   0.85378
 Alpha virt. eigenvalues --    0.85746   0.87017   0.87293   0.87639   0.87960
 Alpha virt. eigenvalues --    0.88105   0.88711   0.89163   0.89246   0.89983
 Alpha virt. eigenvalues --    0.90713   0.91693   0.91944   0.92288   0.93634
 Alpha virt. eigenvalues --    0.93864   0.94213   0.94775   0.95202   0.96069
 Alpha virt. eigenvalues --    0.97452   0.97994   0.98469   0.99360   0.99677
 Alpha virt. eigenvalues --    1.01279   1.02752   1.03578   1.04092   1.04264
 Alpha virt. eigenvalues --    1.04921   1.07020   1.07397   1.08672   1.09637
 Alpha virt. eigenvalues --    1.10093   1.11428   1.12113   1.13397   1.15071
 Alpha virt. eigenvalues --    1.15416   1.16229   1.16822   1.17601   1.18559
 Alpha virt. eigenvalues --    1.20510   1.21607   1.23168   1.23506   1.24118
 Alpha virt. eigenvalues --    1.24723   1.24987   1.25466   1.26644   1.27531
 Alpha virt. eigenvalues --    1.28479   1.29619   1.30533   1.31435   1.31709
 Alpha virt. eigenvalues --    1.31881   1.32758   1.33191   1.34969   1.35660
 Alpha virt. eigenvalues --    1.37141   1.37672   1.38900   1.40085   1.40472
 Alpha virt. eigenvalues --    1.41237   1.41904   1.43308   1.44787   1.46572
 Alpha virt. eigenvalues --    1.48493   1.49274   1.50225   1.50690   1.50855
 Alpha virt. eigenvalues --    1.51697   1.53004   1.54056   1.54709   1.55834
 Alpha virt. eigenvalues --    1.56441   1.58464   1.58866   1.60030   1.60516
 Alpha virt. eigenvalues --    1.62561   1.64001   1.64284   1.64981   1.65202
 Alpha virt. eigenvalues --    1.65947   1.66516   1.67467   1.67835   1.68761
 Alpha virt. eigenvalues --    1.69066   1.69750   1.70799   1.71771   1.72483
 Alpha virt. eigenvalues --    1.73074   1.73469   1.74731   1.75269   1.75598
 Alpha virt. eigenvalues --    1.76593   1.77284   1.78142   1.78810   1.79062
 Alpha virt. eigenvalues --    1.80115   1.80508   1.81312   1.81555   1.81990
 Alpha virt. eigenvalues --    1.82570   1.83875   1.84147   1.85000   1.85256
 Alpha virt. eigenvalues --    1.86360   1.87140   1.87595   1.88150   1.88600
 Alpha virt. eigenvalues --    1.88889   1.89945   1.90692   1.91269   1.91628
 Alpha virt. eigenvalues --    1.92202   1.93178   1.93798   1.93944   1.94944
 Alpha virt. eigenvalues --    1.95182   1.96526   1.96904   1.97214   1.98749
 Alpha virt. eigenvalues --    1.99006   2.00919   2.02452   2.02901   2.03144
 Alpha virt. eigenvalues --    2.04406   2.05224   2.06063   2.06660   2.07155
 Alpha virt. eigenvalues --    2.08197   2.09001   2.12015   2.12854   2.14253
 Alpha virt. eigenvalues --    2.14911   2.15248   2.15438   2.15904   2.17055
 Alpha virt. eigenvalues --    2.17809   2.18347   2.20404   2.21906   2.22448
 Alpha virt. eigenvalues --    2.22470   2.23033   2.23525   2.24525   2.25723
 Alpha virt. eigenvalues --    2.26650   2.27157   2.28791   2.28901   2.29384
 Alpha virt. eigenvalues --    2.29527   2.30397   2.32173   2.33166   2.34153
 Alpha virt. eigenvalues --    2.35596   2.36350   2.37817   2.38098   2.38542
 Alpha virt. eigenvalues --    2.39201   2.40141   2.42543   2.43550   2.44078
 Alpha virt. eigenvalues --    2.44717   2.45263   2.45711   2.46395   2.46659
 Alpha virt. eigenvalues --    2.48611   2.50461   2.50882   2.51221   2.51913
 Alpha virt. eigenvalues --    2.52780   2.54519   2.55755   2.56815   2.58143
 Alpha virt. eigenvalues --    2.58682   2.59166   2.60281   2.61104   2.61745
 Alpha virt. eigenvalues --    2.62883   2.64329   2.64724   2.67180   2.67963
 Alpha virt. eigenvalues --    2.69148   2.72178   2.72328   2.74508   2.77741
 Alpha virt. eigenvalues --    2.80354   2.82643   2.84203   2.86600   2.88252
 Alpha virt. eigenvalues --    2.89961   2.91334   2.91812   2.94158   2.96530
 Alpha virt. eigenvalues --    2.97562   3.02796   3.05767   3.07134   3.14645
 Alpha virt. eigenvalues --    3.34093   3.70908   3.71984   3.78985   3.85537
 Alpha virt. eigenvalues --    3.87401   3.89655   3.92961   3.95207   3.97766
 Alpha virt. eigenvalues --    3.99984   4.02959   4.06828   4.07836   4.10358
 Alpha virt. eigenvalues --    4.11825   4.14289   4.15737   4.19597   4.23182
 Alpha virt. eigenvalues --    4.25198   4.26523   4.28271   4.30928   4.30959
 Alpha virt. eigenvalues --    4.34722   4.40827   4.41196   4.44615   4.45872
 Alpha virt. eigenvalues --    4.48973   4.56386   4.61302   4.62700   4.69918
          Condensed to atoms (all electrons):
 Mulliken charges:
               1
     1  N   -0.749952
     2  C   -0.104398
     3  C    0.619782
     4  O   -0.516663
     5  C   -0.400417
     6  C   -0.002796
     7  C    0.008339
     8  C    0.070538
     9  C    0.310563
    10  C   -0.224938
    11  N   -0.679063
    12  C   -0.154091
    13  C   -0.133961
    14  C   -0.148035
    15  H    0.415798
    16  H    0.228467
    17  H    0.191829
    18  H    0.187763
    19  H    0.180499
    20  H    0.350005
    21  H    0.126550
    22  H    0.152601
    23  H    0.150576
    24  H    0.156649
    25  H    0.420204
    26  H    0.435913
    27  N   -0.622127
    28  C   -0.069244
    29  C    0.629802
    30  O   -0.457327
    31  C   -0.066467
    32  C   -0.269680
    33  C   -0.470808
    34  C   -0.455103
    35  H    0.362830
    36  H    0.179294
    37  H    0.177621
    38  H    0.128116
    39  H    0.162326
    40  H    0.135450
    41  H    0.183148
    42  H    0.129136
    43  H    0.164234
    44  H    0.161378
    45  H    0.149608
    46  N   -0.691380
    47  C   -0.059958
    48  C    0.673629
    49  O   -0.517571
    50  C   -0.268137
    51  C   -0.305775
    52  C   -0.141507
    53  N   -0.613854
    54  C    0.549682
    55  N   -0.640235
    56  N   -0.741457
    57  O   -0.584270
    58  H    0.448960
    59  H    0.355458
    60  H    0.234229
    61  H    0.163709
    62  H    0.134440
    63  H    0.177773
    64  H    0.160861
    65  H    0.160657
    66  H    0.166262
    67  H    0.338432
    68  H    0.285820
    69  H    0.321114
    70  H    0.349170
 Sum of Mulliken charges =   1.00000
 Mulliken charges with hydrogens summed into heavy atoms:
               1
     1  N    0.521963
     2  C    0.124069
     3  C    0.619782
     4  O   -0.516663
     5  C   -0.020825
     6  C   -0.002796
     7  C    0.188838
     8  C    0.070538
     9  C    0.310563
    10  C   -0.098389
    11  N   -0.329057
    12  C   -0.001490
    13  C    0.016615
    14  C    0.008613
    27  N   -0.259297
    28  C    0.110050
    29  C    0.629802
    30  O   -0.457327
    31  C    0.111155
    32  C    0.020762
    33  C   -0.023075
    34  C    0.020118
    46  N   -0.335922
    47  C    0.174271
    48  C    0.673629
    49  O   -0.517571
    50  C    0.030013
    51  C    0.032859
    52  C    0.185412
    53  N   -0.275422
    54  C    0.549682
    55  N   -0.354415
    56  N   -0.071173
    57  O   -0.135310
 Electronic spatial extent (au):  <R**2>=        8534477.8982
 Charge=              1.0000 electrons
 Dipole moment (field-independent basis, Debye):
    X=           -461.0925    Y=            -67.2440    Z=             25.0841  Tot=            466.6446
 Quadrupole moment (field-independent basis, Debye-Ang):
   XX=          44107.0858   YY=            778.3518   ZZ=            -38.5731
   XY=           6477.2024   XZ=          -2382.4099   YZ=           -331.6427
 Traceless Quadrupole moment (field-independent basis, Debye-Ang):
   XX=          29158.1309   YY=         -14170.6030   ZZ=         -14987.5280
   XY=           6477.2024   XZ=          -2382.4099   YZ=           -331.6427
 Octapole moment (field-independent basis, Debye-Ang**2):
  XXX=       -4204322.5428  YYY=          -6163.7621  ZZZ=          -1561.5815  XYY=         -75347.3477
  XXY=        -621709.9792  XXZ=         225494.6383  XZZ=           3814.6023  YZZ=            911.7976
  YYZ=           3667.6652  XYZ=          31628.5184
 Hexadecapole moment (field-independent basis, Debye-Ang**3):
 XXXX=      399326792.3738 YYYY=         -22471.9117 ZZZZ=         -23690.2708 XXXY=       59467054.9970
 XXXZ=      -21268434.4868 YYYX=         604899.9325 YYYZ=         -29301.2351 ZZZX=         148471.1441
 ZZZY=          23674.6804 XXYY=        7260161.1696 XXZZ=        -383204.2943 YYZZ=         -22847.2634
 XXYZ=       -3006307.5207 YYXZ=        -351733.5528 ZZXY=         -88119.7341
 N-N= 3.856748135231D+03 E-N=-1.136631573263D+04  KE= 1.567328850843D+03
 Unable to Open any file for archive entry.
 1\1\GINC-QML-003\SP\RB3LYP\6-31G(d)\C23H36N7O4(1+)\KENGMITH\24-May-202
 2\0\\# B3LYP/6-31G* empiricaldispersion=gd3 guess=read geom=check nosy
 mm integral(ultrafinegrid)\\Candidate Structure: Conf:34 Charge calc i
 n gas phase\\1,1\N,0,-94.6383336103,-12.2151464819,4.842998044\C,0,-94
 .0096045619,-13.5707029668,5.0785311439\C,0,-94.3161280983,-14.3841849
 727,3.8003819867\O,0,-94.0679073331,-13.8773882691,2.7107461448\C,0,-9
 4.4593532473,-14.106225744,6.4517599534\C,0,-94.3590827292,-13.0454752
 154,7.5063511357\C,0,-95.4150401031,-12.4688159974,8.1757928359\C,0,-9
 3.1657346633,-12.3495791008,7.9268551581\C,0,-93.5766241092,-11.362878
 7846,8.8651936275\C,0,-91.7980885374,-12.4634556693,7.6106261623\N,0,-
 94.9498177906,-11.4642542412,8.9922582448\C,0,-92.6694714751,-10.49644
 54085,9.4837661853\C,0,-90.8957450766,-11.6019994779,8.2196267264\C,0,
 -91.3284583213,-10.6281873848,9.1449995631\H,0,-94.2560691567,-11.5288
 978,5.5020931504\H,0,-92.9306758228,-13.3938157518,5.0757765137\H,0,-9
 5.4964393415,-14.4507077712,6.3860347715\H,0,-93.823376858,-14.9701637
 969,6.6882152357\H,0,-96.4694599769,-12.7049642964,8.1256154901\H,0,-9
 5.5178405541,-10.9196729251,9.624168107\H,0,-91.4448734351,-13.2291140
 808,6.9236158731\H,0,-92.9993377169,-9.7516257398,10.2020495143\H,0,-8
 9.8375693967,-11.6819014902,7.9900419861\H,0,-90.596816667,-9.97226228
 67,9.6065965632\H,0,-94.4757417721,-11.931634771,3.8677509508\H,0,-95.
 668959805,-12.2983749515,4.9919092432\N,0,-94.9127038799,-15.585035565
 ,3.9641540061\C,0,-95.0839605665,-16.5577781984,2.8745321024\C,0,-95.8
 843932665,-15.9823265118,1.6808790726\O,0,-95.5428463672,-16.207138577
 7,0.5364303325\C,0,-93.7553746995,-17.2113830125,2.4021798647\C,0,-94.
 0569319748,-18.5733013329,1.7339972915\C,0,-92.769777001,-17.380823272
 ,3.5677525825\C,0,-92.9051249704,-19.0975139603,0.8705744786\H,0,-94.9
 73722473,-15.9543996459,4.9021338929\H,0,-95.7176340376,-17.3442389786
 ,3.303959818\H,0,-93.3149556468,-16.5437474185,1.6544627463\H,0,-94.29
 94179788,-19.3036187974,2.5210611796\H,0,-94.9437601742,-18.4793929666
 ,1.1012901216\H,0,-93.2127414529,-17.9607884088,4.3891204689\H,0,-91.8
 804431961,-17.9206276159,3.2330443254\H,0,-92.4261001479,-16.421883120
 8,3.9701729014\H,0,-92.6796654524,-18.3928767503,0.0621883461\H,0,-93.
 1721187433,-20.0561232309,0.4139943753\H,0,-91.9881914646,-19.25500848
 61,1.4488552819\N,0,-97.0624905152,-15.2578745107,1.8841472379\C,0,-97
 .8487261743,-14.8982537533,3.0747013875\C,0,-97.2290408947,-13.6568716
 918,3.7281695675\O,0,-97.169061356,-13.420428941,4.925151715\C,0,-98.1
 973567053,-16.0377114769,4.0474124944\C,0,-99.3101403035,-15.695570758
 2,5.0553459764\C,0,-100.7486932595,-15.6468741613,4.5052097884\N,0,-10
 0.9554462772,-14.8263167088,3.3061930598\C,0,-100.8714150781,-13.42408
 36214,3.3525241433\N,0,-100.4138516283,-12.6825841604,4.2954387118\N,0
 ,-101.3202112727,-12.8424047524,2.17324368\O,0,-96.7019250138,-12.7706
 432997,2.8712010808\H,0,-96.5771723205,-13.2149212341,2.0054934448\H,0
 ,-97.5562452658,-15.1881343896,1.0003551785\H,0,-98.8021903453,-14.545
 1673139,2.6705738846\H,0,-98.493325422,-16.9005270632,3.4386021784\H,0
 ,-97.3058843858,-16.3292213195,4.6103088225\H,0,-99.0476371618,-14.767
 3534667,5.5649244329\H,0,-99.3110287106,-16.471937691,5.8305404298\H,0
 ,-101.0442198577,-16.6617970972,4.2205567752\H,0,-101.4178520017,-15.3
 358677696,5.3227269024\H,0,-101.7470458857,-15.1413061505,2.7545909859
 \H,0,-100.2870577138,-13.2002011055,5.1622977216\H,0,-101.0976310921,-
 13.3156059755,1.3061860174\H,0,-101.1653032752,-11.8423773017,2.145636
 5936\\Version=ES64L-G16RevC.01\HF=-1582.2057013\RMSD=3.443e-09\Dipole=
 -0.5014553,0.4860459,1.2167184\Quadrupole=21678.3557075,-10535.4960117
 ,-11142.8596958,4815.6412247,-1771.2633598,-246.568228\PG=C01 [X(C23H3
 6N7O4)]\\@
 The archive entry for this job was punched.


 Time has a wonderful way of weeding out the trivial.
                                -- Richard Ben Sapir
 Job cpu time:       0 days  0 hours  2 minutes 22.2 seconds.
 Elapsed time:       0 days  0 hours  0 minutes 36.1 seconds.
 File lengths (MBytes):  RWF=    296 Int=      0 D2E=      0 Chk=     40 Scr=     16
 Normal termination of Gaussian 16 at Tue May 24 23:12:43 2022.
