 Entering Gaussian System, Link 0=/opt/software/Gaussian/g16-AVX-C.01/g16/g16
 Input=charge-conf-268.com
 Output=charge-conf-268.log
 Initial command:
 /opt/software/Gaussian/g16-AVX-C.01/g16/l1.exe "/mnt/gs18/scratch/users/kengmith/Gau-37543.inp" -scrdir="/mnt/gs18/scratch/users/kengmith/"
 Entering Link 1 = /opt/software/Gaussian/g16-AVX-C.01/g16/l1.exe PID=     37568.
  
 Copyright (c) 1988-2019, Gaussian, Inc.  All Rights Reserved.
  
 This is part of the Gaussian(R) 16 program.  It is based on
 the Gaussian(R) 09 system (copyright 2009, Gaussian, Inc.),
 the Gaussian(R) 03 system (copyright 2003, Gaussian, Inc.),
 the Gaussian(R) 98 system (copyright 1998, Gaussian, Inc.),
 the Gaussian(R) 94 system (copyright 1995, Gaussian, Inc.),
 the Gaussian 92(TM) system (copyright 1992, Gaussian, Inc.),
 the Gaussian 90(TM) system (copyright 1990, Gaussian, Inc.),
 the Gaussian 88(TM) system (copyright 1988, Gaussian, Inc.),
 the Gaussian 86(TM) system (copyright 1986, Carnegie Mellon
 University), and the Gaussian 82(TM) system (copyright 1983,
 Carnegie Mellon University). Gaussian is a federally registered
 trademark of Gaussian, Inc.
  
 This software contains proprietary and confidential information,
 including trade secrets, belonging to Gaussian, Inc.
  
 This software is provided under written license and may be
 used, copied, transmitted, or stored only in accord with that
 written license.
  
 The following legend is applicable only to US Government
 contracts under FAR:
  
                    RESTRICTED RIGHTS LEGEND
  
 Use, reproduction and disclosure by the US Government is
 subject to restrictions as set forth in subparagraphs (a)
 and (c) of the Commercial Computer Software - Restricted
 Rights clause in FAR 52.227-19.
  
 Gaussian, Inc.
 340 Quinnipiac St., Bldg. 40, Wallingford CT 06492
  
  
 ---------------------------------------------------------------
 Warning -- This program may not be used in any manner that
 competes with the business of Gaussian, Inc. or will provide
 assistance to any competitor of Gaussian, Inc.  The licensee
 of this program is prohibited from giving any competitor of
 Gaussian, Inc. access to this program.  By using this program,
 the user acknowledges that Gaussian, Inc. is engaged in the
 business of creating and licensing software in the field of
 computational chemistry and represents and warrants to the
 licensee that it is not a competitor of Gaussian, Inc. and that
 it will not use this program in any manner prohibited above.
 ---------------------------------------------------------------
  

 Cite this work as:
 Gaussian 16, Revision C.01,
 M. J. Frisch, G. W. Trucks, H. B. Schlegel, G. E. Scuseria, 
 M. A. Robb, J. R. Cheeseman, G. Scalmani, V. Barone, 
 G. A. Petersson, H. Nakatsuji, X. Li, M. Caricato, A. V. Marenich, 
 J. Bloino, B. G. Janesko, R. Gomperts, B. Mennucci, H. P. Hratchian, 
 J. V. Ortiz, A. F. Izmaylov, J. L. Sonnenberg, D. Williams-Young, 
 F. Ding, F. Lipparini, F. Egidi, J. Goings, B. Peng, A. Petrone, 
 T. Henderson, D. Ranasinghe, V. G. Zakrzewski, J. Gao, N. Rega, 
 G. Zheng, W. Liang, M. Hada, M. Ehara, K. Toyota, R. Fukuda, 
 J. Hasegawa, M. Ishida, T. Nakajima, Y. Honda, O. Kitao, H. Nakai, 
 T. Vreven, K. Throssell, J. A. Montgomery, Jr., J. E. Peralta, 
 F. Ogliaro, M. J. Bearpark, J. J. Heyd, E. N. Brothers, K. N. Kudin, 
 V. N. Staroverov, T. A. Keith, R. Kobayashi, J. Normand, 
 K. Raghavachari, A. P. Rendell, J. C. Burant, S. S. Iyengar, 
 J. Tomasi, M. Cossi, J. M. Millam, M. Klene, C. Adamo, R. Cammi, 
 J. W. Ochterski, R. L. Martin, K. Morokuma, O. Farkas, 
 J. B. Foresman, and D. J. Fox, Gaussian, Inc., Wallingford CT, 2019.
 
 ******************************************
 Gaussian 16:  ES64L-G16RevC.01  3-Jul-2019
                24-May-2022 
 ******************************************
 %mem=8gb
 %nproc=4
 Will use up to    4 processors via shared memory.
 %chk=conf-268.chk
 ----------------------------------------------------------------------
 # B3LYP/6-31G* empiricaldispersion=gd3 guess=read geom=check nosymm in
 tegral(ultrafinegrid)
 ----------------------------------------------------------------------
 1/29=2,38=1,172=1/1;
 2/12=2,15=1,40=1/2;
 3/5=1,6=6,7=1,11=2,14=-4,25=1,30=1,74=-5,75=-5,116=-2,124=31/1,2,3;
 4/5=1/1;
 5/5=2,38=6/2;
 6/7=2,8=2,9=2,10=2,28=1/1;
 99/5=1,9=1/99;
 ------------------------------------------------------
 Candidate Structure: Conf:268 Charge calc in gas phase
 ------------------------------------------------------
 Structure from the checkpoint file:  "conf-268.chk"
 Charge =  1 Multiplicity = 1
 Redundant internal coordinates found in file.  (old form).
 N,0,-97.148196261,-14.9979565544,6.0932838584
 C,0,-95.7315588486,-14.7709663642,6.5991287946
 C,0,-94.6495901673,-14.6199905718,5.521839864
 O,0,-93.6172400202,-14.0579740371,5.8478127351
 C,0,-95.3600612231,-15.8786976669,7.617382424
 C,0,-96.5077237361,-16.2333743171,8.5140138991
 C,0,-97.0629209999,-17.4844244,8.6621784874
 C,0,-97.3135706223,-15.3274940364,9.3023650569
 C,0,-98.340753515,-16.1077342958,9.9039730166
 C,0,-97.2741745639,-13.9412423483,9.5588356857
 N,0,-98.1560179105,-17.4142844658,9.4951154654
 C,0,-99.31452068,-15.5487979022,10.7373798781
 C,0,-98.2447491995,-13.3831017488,10.3807638721
 C,0,-99.2539952346,-14.178910893,10.9622505881
 H,0,-97.410570767,-14.3756500375,5.2801197803
 H,0,-95.7776070189,-13.7992375911,7.0887018245
 H,0,-95.0251259832,-16.770640512,7.0727387051
 H,0,-94.4889319128,-15.5030848972,8.1656652308
 H,0,-96.7434723557,-18.4309555077,8.2466315355
 H,0,-98.6952018443,-18.2055068752,9.8142467401
 H,0,-96.4766285739,-13.3196413693,9.159891539
 H,0,-100.0861159316,-16.1617337776,11.19389012
 H,0,-98.219282181,-12.3188800612,10.594075112
 H,0,-99.9935978879,-13.7127197878,11.60582313
 H,0,-97.3081326596,-15.9770287313,5.8348306309
 H,0,-97.7860971902,-14.8168264061,6.8819585255
 N,0,-94.8803965153,-15.0923381758,4.2645423068
 C,0,-93.8253722249,-15.0893586308,3.2341703259
 C,0,-93.3255830679,-13.6472233793,2.9390821165
 O,0,-92.141501123,-13.4029757783,2.844234691
 C,0,-92.6422429971,-16.0495445692,3.5190954102
 C,0,-91.9219642917,-16.3812740574,2.191610524
 C,0,-93.1176215707,-17.3300414623,4.2196389783
 C,0,-90.5156816499,-16.9562937366,2.3870324026
 H,0,-95.6758492235,-15.6883386151,4.0860985382
 H,0,-94.3299667373,-15.4369127353,2.3254122872
 H,0,-91.9449883556,-15.5191528865,4.174301777
 H,0,-92.5429839514,-17.0898661661,1.6218797609
 H,0,-91.8386562928,-15.4731385708,1.5876198801
 H,0,-93.9112910026,-17.8312825507,3.6480511044
 H,0,-92.2907518722,-18.0382607307,4.3168286672
 H,0,-93.4892917056,-17.1353495163,5.2313107952
 H,0,-89.8797181771,-16.2399960359,2.9189830151
 H,0,-90.0469610564,-17.1663883573,1.4200802399
 H,0,-90.5228959661,-17.8917965809,2.9572518472
 N,0,-94.2536486396,-12.6121405284,2.7517953489
 C,0,-95.6734926681,-12.7300236835,2.3911645602
 C,0,-96.4879996556,-12.9543850954,3.6578285378
 O,0,-97.5015870507,-13.6384149892,3.7358180309
 C,0,-96.0496848854,-13.6779916407,1.2325011738
 C,0,-97.1562053695,-13.1339556877,0.3096156744
 C,0,-96.7304662702,-12.0495446051,-0.7017081032
 N,0,-96.5199679411,-10.7111083502,-0.1464173443
 C,0,-95.2836438005,-10.2466188384,0.2910007998
 N,0,-94.1763105966,-10.9080808587,0.3853729517
 N,0,-95.3230273986,-8.9242350308,0.6901439229
 O,0,-96.0311129631,-12.3171782367,4.7405519501
 H,0,-95.1180573537,-12.006746557,4.5265750245
 H,0,-93.8138538154,-11.8387157042,2.2360645209
 H,0,-95.9493395574,-11.7147964173,2.0915714376
 H,0,-95.1465502303,-13.8712512402,0.6427832514
 H,0,-96.3778658655,-14.6394618887,1.6416792629
 H,0,-97.9939464928,-12.76204496,0.9123109485
 H,0,-97.545160092,-13.9760306923,-0.2760989945
 H,0,-95.841841284,-12.3846306689,-1.2559680347
 H,0,-97.527435209,-11.9531584719,-1.4445055314
 H,0,-97.1075580405,-9.9905862213,-0.5472499967
 H,0,-94.219662012,-11.7900984678,-0.1240347168
 H,0,-96.1480849421,-8.5991949394,1.1774909869
 H,0,-94.4469447969,-8.587628175,1.0680374421
 Recover connectivity data from disk.
                           ----------------------------
                           !    Current Parameters    !
                           ! (Angstroms and Degrees)  !
 --------------------------                            --------------------------
 ! Name  Definition              Value                                          !
 --------------------------------------------------------------------------------
 ! R1    R(1,2)                  1.5213                                         !
 ! R2    R(1,15)                 1.057                                          !
 ! R3    R(1,25)                 1.0252                                         !
 ! R4    R(1,26)                 1.0304                                         !
 ! R5    R(2,3)                  1.5343                                         !
 ! R6    R(2,5)                  1.5498                                         !
 ! R7    R(2,16)                 1.0891                                         !
 ! R8    R(3,4)                  1.2198                                         !
 ! R9    R(3,27)                 1.3628                                         !
 ! R10   R(5,6)                  1.499                                          !
 ! R11   R(5,17)                 1.0974                                         !
 ! R12   R(5,18)                 1.0957                                         !
 ! R13   R(6,7)                  1.3767                                         !
 ! R14   R(6,8)                  1.4462                                         !
 ! R15   R(7,11)                 1.3761                                         !
 ! R16   R(7,19)                 1.082                                          !
 ! R17   R(8,9)                  1.4233                                         !
 ! R18   R(8,10)                 1.4103                                         !
 ! R19   R(9,11)                 1.3814                                         !
 ! R20   R(9,12)                 1.3983                                         !
 ! R21   R(10,13)                1.3889                                         !
 ! R22   R(10,21)                1.087                                          !
 ! R23   R(11,20)                1.0093                                         !
 ! R24   R(12,14)                1.3895                                         !
 ! R25   R(12,22)                1.086                                          !
 ! R26   R(13,14)                1.4107                                         !
 ! R27   R(13,23)                1.0857                                         !
 ! R28   R(14,24)                1.0856                                         !
 ! R29   R(27,28)                1.4747                                         !
 ! R30   R(27,35)                1.0099                                         !
 ! R31   R(28,29)                1.5545                                         !
 ! R32   R(28,31)                1.5501                                         !
 ! R33   R(28,36)                1.096                                          !
 ! R34   R(29,30)                1.2127                                         !
 ! R35   R(29,46)                1.4028                                         !
 ! R36   R(31,32)                1.5463                                         !
 ! R37   R(31,33)                1.5351                                         !
 ! R38   R(31,37)                1.094                                          !
 ! R39   R(32,34)                1.5318                                         !
 ! R40   R(32,38)                1.1011                                         !
 ! R41   R(32,39)                1.0938                                         !
 ! R42   R(33,40)                1.099                                          !
 ! R43   R(33,41)                1.093                                          !
 ! R44   R(33,42)                1.0952                                         !
 ! R45   R(34,43)                1.0957                                         !
 ! R46   R(34,44)                1.0949                                         !
 ! R47   R(34,45)                1.0956                                         !
 ! R48   R(46,47)                1.4697                                         !
 ! R49   R(46,59)                1.0284                                         !
 ! R50   R(47,48)                1.5226                                         !
 ! R51   R(47,50)                1.5436                                         !
 ! R52   R(47,60)                1.0939                                         !
 ! R53   R(48,49)                1.2253                                         !
 ! R54   R(48,57)                1.3368                                         !
 ! R55   R(50,51)                1.5402                                         !
 ! R56   R(50,61)                1.0958                                         !
 ! R57   R(50,62)                1.0952                                         !
 ! R58   R(51,52)                1.5427                                         !
 ! R59   R(51,63)                1.097                                          !
 ! R60   R(51,64)                1.097                                          !
 ! R61   R(52,53)                1.4643                                         !
 ! R62   R(52,65)                1.0996                                         !
 ! R63   R(52,66)                1.0937                                         !
 ! R64   R(53,54)                1.3913                                         !
 ! R65   R(53,67)                1.0125                                         !
 ! R66   R(54,55)                1.2933                                         !
 ! R67   R(54,56)                1.3819                                         !
 ! R68   R(55,68)                1.0195                                         !
 ! R69   R(56,69)                1.0119                                         !
 ! R70   R(56,70)                1.0117                                         !
 ! R71   R(57,58)                0.9878                                         !
 ! A1    A(2,1,15)             113.5217                                         !
 ! A2    A(2,1,25)             111.8151                                         !
 ! A3    A(2,1,26)             107.2032                                         !
 ! A4    A(15,1,25)            109.2437                                         !
 ! A5    A(15,1,26)            109.3693                                         !
 ! A6    A(25,1,26)            105.3233                                         !
 ! A7    A(1,2,3)              115.9701                                         !
 ! A8    A(1,2,5)              109.5748                                         !
 ! A9    A(1,2,16)             104.0777                                         !
 ! A10   A(3,2,5)              111.261                                          !
 ! A11   A(3,2,16)             104.9311                                         !
 ! A12   A(5,2,16)             110.642                                          !
 ! A13   A(2,3,4)              117.035                                          !
 ! A14   A(2,3,27)             119.6207                                         !
 ! A15   A(4,3,27)             123.339                                          !
 ! A16   A(2,5,6)              112.2471                                         !
 ! A17   A(2,5,17)             109.1475                                         !
 ! A18   A(2,5,18)             105.9216                                         !
 ! A19   A(6,5,17)             109.7687                                         !
 ! A20   A(6,5,18)             112.9861                                         !
 ! A21   A(17,5,18)            106.5175                                         !
 ! A22   A(5,6,7)              126.0267                                         !
 ! A23   A(5,6,8)              127.192                                          !
 ! A24   A(7,6,8)              106.6086                                         !
 ! A25   A(6,7,11)             109.8266                                         !
 ! A26   A(6,7,19)             129.3885                                         !
 ! A27   A(11,7,19)            120.7706                                         !
 ! A28   A(6,8,9)              106.8083                                         !
 ! A29   A(6,8,10)             134.3674                                         !
 ! A30   A(9,8,10)             118.8242                                         !
 ! A31   A(8,9,11)             107.2692                                         !
 ! A32   A(8,9,12)             122.3699                                         !
 ! A33   A(11,9,12)            130.3602                                         !
 ! A34   A(8,10,13)            118.8872                                         !
 ! A35   A(8,10,21)            121.0529                                         !
 ! A36   A(13,10,21)           120.0063                                         !
 ! A37   A(7,11,9)             109.4865                                         !
 ! A38   A(7,11,20)            125.157                                          !
 ! A39   A(9,11,20)            125.2006                                         !
 ! A40   A(9,12,14)            117.3999                                         !
 ! A41   A(9,12,22)            121.313                                          !
 ! A42   A(14,12,22)           121.2869                                         !
 ! A43   A(10,13,14)           121.143                                          !
 ! A44   A(10,13,23)           119.5896                                         !
 ! A45   A(14,13,23)           119.2599                                         !
 ! A46   A(12,14,13)           121.3731                                         !
 ! A47   A(12,14,24)           119.3156                                         !
 ! A48   A(13,14,24)           119.3091                                         !
 ! A49   A(3,27,28)            121.5168                                         !
 ! A50   A(3,27,35)            120.0657                                         !
 ! A51   A(28,27,35)           116.1841                                         !
 ! A52   A(27,28,29)           111.3774                                         !
 ! A53   A(27,28,31)           114.6048                                         !
 ! A54   A(27,28,36)           104.4368                                         !
 ! A55   A(29,28,31)           111.3544                                         !
 ! A56   A(29,28,36)           106.547                                          !
 ! A57   A(31,28,36)           107.9007                                         !
 ! A58   A(28,29,30)           121.0371                                         !
 ! A59   A(28,29,46)           119.8126                                         !
 ! A60   A(30,29,46)           119.1378                                         !
 ! A61   A(28,31,32)           109.3059                                         !
 ! A62   A(28,31,33)           111.3596                                         !
 ! A63   A(28,31,37)           107.2314                                         !
 ! A64   A(32,31,33)           110.9208                                         !
 ! A65   A(32,31,37)           108.7412                                         !
 ! A66   A(33,31,37)           109.1766                                         !
 ! A67   A(31,32,34)           113.4933                                         !
 ! A68   A(31,32,38)           108.6357                                         !
 ! A69   A(31,32,39)           109.3542                                         !
 ! A70   A(34,32,38)           110.0125                                         !
 ! A71   A(34,32,39)           108.1908                                         !
 ! A72   A(38,32,39)           106.95                                           !
 ! A73   A(31,33,40)           111.5143                                         !
 ! A74   A(31,33,41)           110.2914                                         !
 ! A75   A(31,33,42)           112.2316                                         !
 ! A76   A(40,33,41)           107.2797                                         !
 ! A77   A(40,33,42)           108.4462                                         !
 ! A78   A(41,33,42)           106.8438                                         !
 ! A79   A(32,34,43)           110.4502                                         !
 ! A80   A(32,34,44)           110.6324                                         !
 ! A81   A(32,34,45)           112.3881                                         !
 ! A82   A(43,34,44)           107.8019                                         !
 ! A83   A(43,34,45)           108.0202                                         !
 ! A84   A(44,34,45)           107.3741                                         !
 ! A85   A(29,46,47)           127.788                                          !
 ! A86   A(29,46,59)           109.8138                                         !
 ! A87   A(47,46,59)           110.5132                                         !
 ! A88   A(46,47,48)           108.9354                                         !
 ! A89   A(46,47,50)           117.9632                                         !
 ! A90   A(46,47,60)           103.6736                                         !
 ! A91   A(48,47,50)           113.8033                                         !
 ! A92   A(48,47,60)           103.2802                                         !
 ! A93   A(50,47,60)           107.6342                                         !
 ! A94   A(47,48,49)           125.2921                                         !
 ! A95   A(47,48,57)           114.8806                                         !
 ! A96   A(49,48,57)           119.8196                                         !
 ! A97   A(47,50,51)           114.0762                                         !
 ! A98   A(47,50,61)           108.1442                                         !
 ! A99   A(47,50,62)           109.3731                                         !
 ! A100  A(51,50,61)           109.3873                                         !
 ! A101  A(51,50,62)           108.583                                          !
 ! A102  A(61,50,62)           107.0492                                         !
 ! A103  A(50,51,52)           116.2854                                         !
 ! A104  A(50,51,63)           109.8283                                         !
 ! A105  A(50,51,64)           107.669                                          !
 ! A106  A(52,51,63)           109.4268                                         !
 ! A107  A(52,51,64)           106.7028                                         !
 ! A108  A(63,51,64)           106.4283                                         !
 ! A109  A(51,52,53)           115.6955                                         !
 ! A110  A(51,52,65)           109.8308                                         !
 ! A111  A(51,52,66)           107.8227                                         !
 ! A112  A(53,52,65)           110.7029                                         !
 ! A113  A(53,52,66)           106.3649                                         !
 ! A114  A(65,52,66)           105.8665                                         !
 ! A115  A(52,53,54)           123.515                                          !
 ! A116  A(52,53,67)           114.6411                                         !
 ! A117  A(54,53,67)           113.7412                                         !
 ! A118  A(53,54,55)           127.8102                                         !
 ! A119  A(53,54,56)           112.6425                                         !
 ! A120  A(55,54,56)           119.5222                                         !
 ! A121  A(54,55,68)           111.6923                                         !
 ! A122  A(54,56,69)           118.0183                                         !
 ! A123  A(54,56,70)           113.6772                                         !
 ! A124  A(69,56,70)           114.7893                                         !
 ! A125  A(48,57,58)           106.8731                                         !
 ! D1    D(15,1,2,3)           -43.5138                                         !
 ! D2    D(15,1,2,5)          -170.4761                                         !
 ! D3    D(15,1,2,16)           71.1706                                         !
 ! D4    D(25,1,2,3)            80.6394                                         !
 ! D5    D(25,1,2,5)           -46.3229                                         !
 ! D6    D(25,1,2,16)         -164.6762                                         !
 ! D7    D(26,1,2,3)          -164.4053                                         !
 ! D8    D(26,1,2,5)            68.6324                                         !
 ! D9    D(26,1,2,16)          -49.7209                                         !
 ! D10   D(1,2,3,4)            158.8208                                         !
 ! D11   D(1,2,3,27)           -20.3734                                         !
 ! D12   D(5,2,3,4)            -75.064                                          !
 ! D13   D(5,2,3,27)           105.7418                                         !
 ! D14   D(16,2,3,4)            44.6223                                         !
 ! D15   D(16,2,3,27)         -134.572                                          !
 ! D16   D(1,2,5,6)            -39.1556                                         !
 ! D17   D(1,2,5,17)            82.7725                                         !
 ! D18   D(1,2,5,18)          -162.8963                                         !
 ! D19   D(3,2,5,6)           -168.729                                          !
 ! D20   D(3,2,5,17)           -46.8009                                         !
 ! D21   D(3,2,5,18)            67.5303                                         !
 ! D22   D(16,2,5,6)            75.0381                                         !
 ! D23   D(16,2,5,17)         -163.0338                                         !
 ! D24   D(16,2,5,18)          -48.7026                                         !
 ! D25   D(2,3,27,28)         -173.9297                                         !
 ! D26   D(2,3,27,35)          -11.5556                                         !
 ! D27   D(4,3,27,28)            6.9294                                         !
 ! D28   D(4,3,27,35)          169.3035                                         !
 ! D29   D(2,5,6,7)            122.3808                                         !
 ! D30   D(2,5,6,8)            -52.1921                                         !
 ! D31   D(17,5,6,7)             0.8074                                         !
 ! D32   D(17,5,6,8)          -173.7656                                         !
 ! D33   D(18,5,6,7)          -117.9189                                         !
 ! D34   D(18,5,6,8)            67.5081                                         !
 ! D35   D(5,6,7,11)          -175.758                                          !
 ! D36   D(5,6,7,19)             5.6328                                         !
 ! D37   D(8,6,7,11)            -0.2673                                         !
 ! D38   D(8,6,7,19)          -178.8766                                         !
 ! D39   D(5,6,8,9)            175.5648                                         !
 ! D40   D(5,6,8,10)            -4.2941                                         !
 ! D41   D(7,6,8,9)              0.143                                          !
 ! D42   D(7,6,8,10)          -179.7159                                         !
 ! D43   D(6,7,11,9)             0.2958                                         !
 ! D44   D(6,7,11,20)         -175.3529                                         !
 ! D45   D(19,7,11,9)          179.0448                                         !
 ! D46   D(19,7,11,20)           3.3962                                         !
 ! D47   D(6,8,9,11)             0.0307                                         !
 ! D48   D(6,8,9,12)          -179.7095                                         !
 ! D49   D(10,8,9,11)          179.9156                                         !
 ! D50   D(10,8,9,12)            0.1754                                         !
 ! D51   D(6,8,10,13)          179.3416                                         !
 ! D52   D(6,8,10,21)           -3.3198                                         !
 ! D53   D(9,8,10,13)           -0.5042                                         !
 ! D54   D(9,8,10,21)          176.8344                                         !
 ! D55   D(8,9,11,7)            -0.1962                                         !
 ! D56   D(8,9,11,20)          175.4502                                         !
 ! D57   D(12,9,11,7)          179.5158                                         !
 ! D58   D(12,9,11,20)          -4.8378                                         !
 ! D59   D(8,9,12,14)            0.2909                                         !
 ! D60   D(8,9,12,22)         -179.5083                                         !
 ! D61   D(11,9,12,14)        -179.3835                                         !
 ! D62   D(11,9,12,22)           0.8173                                         !
 ! D63   D(8,10,13,14)           0.375                                          !
 ! D64   D(8,10,13,23)         179.3739                                         !
 ! D65   D(21,10,13,14)       -176.9921                                         !
 ! D66   D(21,10,13,23)          2.0068                                         !
 ! D67   D(9,12,14,13)          -0.431                                          !
 ! D68   D(9,12,14,24)        -179.8862                                         !
 ! D69   D(22,12,14,13)        179.3682                                         !
 ! D70   D(22,12,14,24)         -0.087                                          !
 ! D71   D(10,13,14,12)          0.1047                                         !
 ! D72   D(10,13,14,24)        179.5599                                         !
 ! D73   D(23,13,14,12)       -178.8974                                         !
 ! D74   D(23,13,14,24)          0.5578                                         !
 ! D75   D(3,27,28,29)         -60.458                                          !
 ! D76   D(3,27,28,31)          67.0842                                         !
 ! D77   D(3,27,28,36)        -175.0774                                         !
 ! D78   D(35,27,28,29)        136.5214                                         !
 ! D79   D(35,27,28,31)        -95.9365                                         !
 ! D80   D(35,27,28,36)         21.9019                                         !
 ! D81   D(27,28,29,30)        135.1466                                         !
 ! D82   D(27,28,29,46)        -46.1475                                         !
 ! D83   D(31,28,29,30)          5.8658                                         !
 ! D84   D(31,28,29,46)       -175.4283                                         !
 ! D85   D(36,28,29,30)       -111.5501                                         !
 ! D86   D(36,28,29,46)         67.1558                                         !
 ! D87   D(27,28,31,32)        157.8914                                         !
 ! D88   D(27,28,31,33)         34.9857                                         !
 ! D89   D(27,28,31,37)        -84.3928                                         !
 ! D90   D(29,28,31,32)        -74.5547                                         !
 ! D91   D(29,28,31,33)        162.5396                                         !
 ! D92   D(29,28,31,37)         43.1611                                         !
 ! D93   D(36,28,31,32)         42.0377                                         !
 ! D94   D(36,28,31,33)        -80.8681                                         !
 ! D95   D(36,28,31,37)        159.7534                                         !
 ! D96   D(28,29,46,47)        -20.309                                          !
 ! D97   D(28,29,46,59)       -158.9574                                         !
 ! D98   D(30,29,46,47)        158.4215                                         !
 ! D99   D(30,29,46,59)         19.7731                                         !
 ! D100  D(28,31,32,34)        162.366                                          !
 ! D101  D(28,31,32,38)        -74.9238                                         !
 ! D102  D(28,31,32,39)         41.4707                                         !
 ! D103  D(33,31,32,34)        -74.4675                                         !
 ! D104  D(33,31,32,38)         48.2427                                         !
 ! D105  D(33,31,32,39)        164.6373                                         !
 ! D106  D(37,31,32,34)         45.6024                                         !
 ! D107  D(37,31,32,38)        168.3126                                         !
 ! D108  D(37,31,32,39)        -75.2928                                         !
 ! D109  D(28,31,33,40)         54.9289                                         !
 ! D110  D(28,31,33,41)        174.0173                                         !
 ! D111  D(28,31,33,42)        -66.9785                                         !
 ! D112  D(32,31,33,40)        -67.0463                                         !
 ! D113  D(32,31,33,41)         52.0422                                         !
 ! D114  D(32,31,33,42)        171.0463                                         !
 ! D115  D(37,31,33,40)        173.1436                                         !
 ! D116  D(37,31,33,41)        -67.768                                          !
 ! D117  D(37,31,33,42)         51.2362                                         !
 ! D118  D(31,32,34,43)        -60.2839                                         !
 ! D119  D(31,32,34,44)       -179.5626                                         !
 ! D120  D(31,32,34,45)         60.4253                                         !
 ! D121  D(38,32,34,43)        177.7688                                         !
 ! D122  D(38,32,34,44)         58.4902                                         !
 ! D123  D(38,32,34,45)        -61.522                                          !
 ! D124  D(39,32,34,43)         61.2637                                         !
 ! D125  D(39,32,34,44)        -58.0149                                         !
 ! D126  D(39,32,34,45)       -178.0271                                         !
 ! D127  D(29,46,47,48)         85.0334                                         !
 ! D128  D(29,46,47,50)        -46.6656                                         !
 ! D129  D(29,46,47,60)       -165.4911                                         !
 ! D130  D(59,46,47,48)       -136.5452                                         !
 ! D131  D(59,46,47,50)         91.7558                                         !
 ! D132  D(59,46,47,60)        -27.0697                                         !
 ! D133  D(46,47,48,49)       -146.1069                                         !
 ! D134  D(46,47,48,57)         34.9088                                         !
 ! D135  D(50,47,48,49)        -12.2267                                         !
 ! D136  D(50,47,48,57)        168.789                                          !
 ! D137  D(60,47,48,49)        104.153                                          !
 ! D138  D(60,47,48,57)        -74.8313                                         !
 ! D139  D(46,47,50,51)       -140.4176                                         !
 ! D140  D(46,47,50,61)        -18.4774                                         !
 ! D141  D(46,47,50,62)         97.7721                                         !
 ! D142  D(48,47,50,51)         90.1077                                         !
 ! D143  D(48,47,50,61)       -147.9522                                         !
 ! D144  D(48,47,50,62)        -31.7026                                         !
 ! D145  D(60,47,50,51)        -23.7003                                         !
 ! D146  D(60,47,50,61)         98.2399                                         !
 ! D147  D(60,47,50,62)       -145.5105                                         !
 ! D148  D(47,48,57,58)        -13.7951                                         !
 ! D149  D(49,48,57,58)        167.1604                                         !
 ! D150  D(47,50,51,52)         76.7567                                         !
 ! D151  D(47,50,51,63)        -48.1635                                         !
 ! D152  D(47,50,51,64)       -163.6555                                         !
 ! D153  D(61,50,51,52)        -44.4968                                         !
 ! D154  D(61,50,51,63)       -169.4171                                         !
 ! D155  D(61,50,51,64)         75.0909                                         !
 ! D156  D(62,50,51,52)       -160.9987                                         !
 ! D157  D(62,50,51,63)         74.0811                                         !
 ! D158  D(62,50,51,64)        -41.4109                                         !
 ! D159  D(50,51,52,53)        -75.6931                                         !
 ! D160  D(50,51,52,65)         50.5046                                         !
 ! D161  D(50,51,52,66)        165.4166                                         !
 ! D162  D(63,51,52,53)         49.4314                                         !
 ! D163  D(63,51,52,65)        175.6292                                         !
 ! D164  D(63,51,52,66)        -69.4588                                         !
 ! D165  D(64,51,52,53)        164.1983                                         !
 ! D166  D(64,51,52,65)        -69.6039                                         !
 ! D167  D(64,51,52,66)         45.3081                                         !
 ! D168  D(51,52,53,54)         92.6244                                         !
 ! D169  D(51,52,53,67)       -120.7544                                         !
 ! D170  D(65,52,53,54)        -33.1297                                         !
 ! D171  D(65,52,53,67)        113.4915                                         !
 ! D172  D(66,52,53,54)       -147.6862                                         !
 ! D173  D(66,52,53,67)         -1.0649                                         !
 ! D174  D(52,53,54,55)         -5.8689                                         !
 ! D175  D(52,53,54,56)        175.9834                                         !
 ! D176  D(67,53,54,55)       -152.7551                                         !
 ! D177  D(67,53,54,56)         29.0972                                         !
 ! D178  D(53,54,55,68)         14.6179                                         !
 ! D179  D(56,54,55,68)       -167.3467                                         !
 ! D180  D(53,54,56,69)         37.4581                                         !
 ! D181  D(53,54,56,70)        176.2163                                         !
 ! D182  D(55,54,56,69)       -140.8602                                         !
 ! D183  D(55,54,56,70)         -2.102                                          !
 --------------------------------------------------------------------------------
 Symmetry turned off by external request.
 Stoichiometry    C23H36N7O4(1+)
 Framework group  C1[X(C23H36N7O4)]
 Deg. of freedom   204
 Full point group                 C1      NOp   1
                          Input orientation:                          
 ---------------------------------------------------------------------
 Center     Atomic      Atomic             Coordinates (Angstroms)
 Number     Number       Type             X           Y           Z
 ---------------------------------------------------------------------
      1          7           0      -97.148196  -14.997957    6.093284
      2          6           0      -95.731559  -14.770966    6.599129
      3          6           0      -94.649590  -14.619991    5.521840
      4          8           0      -93.617240  -14.057974    5.847813
      5          6           0      -95.360061  -15.878698    7.617382
      6          6           0      -96.507724  -16.233374    8.514014
      7          6           0      -97.062921  -17.484424    8.662178
      8          6           0      -97.313571  -15.327494    9.302365
      9          6           0      -98.340754  -16.107734    9.903973
     10          6           0      -97.274175  -13.941242    9.558836
     11          7           0      -98.156018  -17.414284    9.495115
     12          6           0      -99.314521  -15.548798   10.737380
     13          6           0      -98.244749  -13.383102   10.380764
     14          6           0      -99.253995  -14.178911   10.962251
     15          1           0      -97.410571  -14.375650    5.280120
     16          1           0      -95.777607  -13.799238    7.088702
     17          1           0      -95.025126  -16.770641    7.072739
     18          1           0      -94.488932  -15.503085    8.165665
     19          1           0      -96.743472  -18.430956    8.246632
     20          1           0      -98.695202  -18.205507    9.814247
     21          1           0      -96.476629  -13.319641    9.159892
     22          1           0     -100.086116  -16.161734   11.193890
     23          1           0      -98.219282  -12.318880   10.594075
     24          1           0      -99.993598  -13.712720   11.605823
     25          1           0      -97.308133  -15.977029    5.834831
     26          1           0      -97.786097  -14.816826    6.881959
     27          7           0      -94.880397  -15.092338    4.264542
     28          6           0      -93.825372  -15.089359    3.234170
     29          6           0      -93.325583  -13.647223    2.939082
     30          8           0      -92.141501  -13.402976    2.844235
     31          6           0      -92.642243  -16.049545    3.519095
     32          6           0      -91.921964  -16.381274    2.191611
     33          6           0      -93.117622  -17.330041    4.219639
     34          6           0      -90.515682  -16.956294    2.387032
     35          1           0      -95.675849  -15.688339    4.086099
     36          1           0      -94.329967  -15.436913    2.325412
     37          1           0      -91.944988  -15.519153    4.174302
     38          1           0      -92.542984  -17.089866    1.621880
     39          1           0      -91.838656  -15.473139    1.587620
     40          1           0      -93.911291  -17.831283    3.648051
     41          1           0      -92.290752  -18.038261    4.316829
     42          1           0      -93.489292  -17.135350    5.231311
     43          1           0      -89.879718  -16.239996    2.918983
     44          1           0      -90.046961  -17.166388    1.420080
     45          1           0      -90.522896  -17.891797    2.957252
     46          7           0      -94.253649  -12.612141    2.751795
     47          6           0      -95.673493  -12.730024    2.391165
     48          6           0      -96.488000  -12.954385    3.657829
     49          8           0      -97.501587  -13.638415    3.735818
     50          6           0      -96.049685  -13.677992    1.232501
     51          6           0      -97.156205  -13.133956    0.309616
     52          6           0      -96.730466  -12.049545   -0.701708
     53          7           0      -96.519968  -10.711108   -0.146417
     54          6           0      -95.283644  -10.246619    0.291001
     55          7           0      -94.176311  -10.908081    0.385373
     56          7           0      -95.323027   -8.924235    0.690144
     57          8           0      -96.031113  -12.317178    4.740552
     58          1           0      -95.118057  -12.006747    4.526575
     59          1           0      -93.813854  -11.838716    2.236065
     60          1           0      -95.949340  -11.714796    2.091571
     61          1           0      -95.146550  -13.871251    0.642783
     62          1           0      -96.377866  -14.639462    1.641679
     63          1           0      -97.993946  -12.762045    0.912311
     64          1           0      -97.545160  -13.976031   -0.276099
     65          1           0      -95.841841  -12.384631   -1.255968
     66          1           0      -97.527435  -11.953158   -1.444506
     67          1           0      -97.107558   -9.990586   -0.547250
     68          1           0      -94.219662  -11.790098   -0.124035
     69          1           0      -96.148085   -8.599195    1.177491
     70          1           0      -94.446945   -8.587628    1.068037
 ---------------------------------------------------------------------
 Rotational constants (GHZ):           0.1734154           0.0652415           0.0532505
 Standard basis: 6-31G(d) (6D, 7F)
   582 basis functions,  1096 primitive gaussians,   582 cartesian basis functions
   127 alpha electrons      127 beta electrons
       nuclear repulsion energy      3808.9236389394 Hartrees.
 NAtoms=   70 NActive=   70 NUniq=   70 SFac= 1.00D+00 NAtFMM=   60 NAOKFM=T Big=T
 Integral buffers will be    131072 words long.
 Raffenetti 2 integral format.
 Two-electron integral symmetry is turned off.
 Nuclear repulsion after empirical dispersion term =     3808.8276756528 Hartrees.
 One-electron integrals computed using PRISM.
 NBasis=   582 RedAO= T EigKep=  3.80D-04  NBF=   582
 NBsUse=   582 1.00D-06 EigRej= -1.00D+00 NBFU=   582
 Initial guess from the checkpoint file:  "conf-268.chk"
 B after Tr=     0.000000    0.000000    0.000000
         Rot=    1.000000    0.000000    0.000000    0.000000 Ang=   0.00 deg.
 Requested convergence on RMS density matrix=1.00D-08 within 128 cycles.
 Requested convergence on MAX density matrix=1.00D-06.
 Requested convergence on             energy=1.00D-06.
 No special actions if energy rises.
 SCF Done:  E(RB3LYP) =  -1582.20353237     A.U. after    1 cycles
            NFock=  1  Conv=0.66D-08     -V/T= 2.0095

 **********************************************************************

            Population analysis using the SCF Density.

 **********************************************************************

 Alpha  occ. eigenvalues --  -19.32362 -19.27994 -19.24522 -19.22025 -14.58607
 Alpha  occ. eigenvalues --  -14.49686 -14.48922 -14.46013 -14.44802 -14.43134
 Alpha  occ. eigenvalues --  -14.37887 -10.45622 -10.42382 -10.39444 -10.39135
 Alpha  occ. eigenvalues --  -10.37723 -10.35619 -10.34676 -10.33454 -10.32990
 Alpha  occ. eigenvalues --  -10.32590 -10.32263 -10.30397 -10.30096 -10.29543
 Alpha  occ. eigenvalues --  -10.29193 -10.29104 -10.28934 -10.28316 -10.28127
 Alpha  occ. eigenvalues --  -10.27884 -10.26825 -10.25661 -10.23969  -1.23961
 Alpha  occ. eigenvalues --   -1.17122  -1.15520  -1.14071  -1.13243  -1.08900
 Alpha  occ. eigenvalues --   -1.06997  -1.05625  -1.02544  -0.97991  -0.94489
 Alpha  occ. eigenvalues --   -0.93272  -0.93232  -0.90457  -0.90188  -0.88245
 Alpha  occ. eigenvalues --   -0.84652  -0.83951  -0.83537  -0.82500  -0.79920
 Alpha  occ. eigenvalues --   -0.79049  -0.78319  -0.73890  -0.73637  -0.72786
 Alpha  occ. eigenvalues --   -0.72400  -0.71924  -0.71732  -0.70927  -0.69647
 Alpha  occ. eigenvalues --   -0.68576  -0.67759  -0.66978  -0.65701  -0.64877
 Alpha  occ. eigenvalues --   -0.64380  -0.64293  -0.63056  -0.62879  -0.61705
 Alpha  occ. eigenvalues --   -0.60847  -0.59764  -0.59162  -0.58583  -0.57529
 Alpha  occ. eigenvalues --   -0.57436  -0.56641  -0.56204  -0.55656  -0.55407
 Alpha  occ. eigenvalues --   -0.54635  -0.54222  -0.54011  -0.53423  -0.53191
 Alpha  occ. eigenvalues --   -0.53081  -0.52962  -0.52240  -0.51504  -0.51305
 Alpha  occ. eigenvalues --   -0.50845  -0.50409  -0.50141  -0.49739  -0.49024
 Alpha  occ. eigenvalues --   -0.48527  -0.48455  -0.47453  -0.46167  -0.46045
 Alpha  occ. eigenvalues --   -0.45751  -0.45486  -0.45285  -0.44883  -0.44370
 Alpha  occ. eigenvalues --   -0.43874  -0.43655  -0.43605  -0.42544  -0.42108
 Alpha  occ. eigenvalues --   -0.40608  -0.40283  -0.38829  -0.38316  -0.37822
 Alpha  occ. eigenvalues --   -0.36826  -0.35629  -0.34854  -0.34484  -0.32862
 Alpha  occ. eigenvalues --   -0.32363  -0.31333
 Alpha virt. eigenvalues --   -0.13577  -0.12048  -0.10683  -0.10492  -0.08900
 Alpha virt. eigenvalues --   -0.08122  -0.05001  -0.04626  -0.04442  -0.03511
 Alpha virt. eigenvalues --   -0.02495  -0.02267  -0.01782  -0.01373  -0.00653
 Alpha virt. eigenvalues --   -0.00311   0.00162   0.00750   0.01847   0.02215
 Alpha virt. eigenvalues --    0.02463   0.02601   0.03147   0.03686   0.04218
 Alpha virt. eigenvalues --    0.04570   0.04957   0.05466   0.05754   0.05859
 Alpha virt. eigenvalues --    0.06486   0.06642   0.07150   0.07286   0.07659
 Alpha virt. eigenvalues --    0.08115   0.08499   0.09081   0.09331   0.09672
 Alpha virt. eigenvalues --    0.10279   0.10526   0.10918   0.11372   0.11731
 Alpha virt. eigenvalues --    0.12124   0.12382   0.12850   0.13089   0.13421
 Alpha virt. eigenvalues --    0.13906   0.14313   0.14711   0.15213   0.15696
 Alpha virt. eigenvalues --    0.16195   0.16529   0.17119   0.17184   0.18519
 Alpha virt. eigenvalues --    0.19568   0.19855   0.20491   0.21122   0.21493
 Alpha virt. eigenvalues --    0.22529   0.23532   0.24538   0.25702   0.26094
 Alpha virt. eigenvalues --    0.26594   0.27374   0.28472   0.29844   0.32319
 Alpha virt. eigenvalues --    0.33091   0.34882   0.36036   0.36535   0.38417
 Alpha virt. eigenvalues --    0.39207   0.39911   0.40541   0.41652   0.42000
 Alpha virt. eigenvalues --    0.42451   0.42955   0.43115   0.43455   0.43751
 Alpha virt. eigenvalues --    0.44688   0.45144   0.45605   0.45939   0.46194
 Alpha virt. eigenvalues --    0.46260   0.46951   0.47375   0.47879   0.48311
 Alpha virt. eigenvalues --    0.48620   0.49215   0.49582   0.50264   0.50824
 Alpha virt. eigenvalues --    0.51008   0.51707   0.51731   0.52234   0.52628
 Alpha virt. eigenvalues --    0.52801   0.53080   0.53160   0.53753   0.54121
 Alpha virt. eigenvalues --    0.54684   0.55622   0.56145   0.56857   0.57116
 Alpha virt. eigenvalues --    0.57824   0.57831   0.58572   0.59172   0.59942
 Alpha virt. eigenvalues --    0.60777   0.61539   0.62231   0.62732   0.63402
 Alpha virt. eigenvalues --    0.63549   0.63882   0.64734   0.65354   0.65790
 Alpha virt. eigenvalues --    0.66870   0.67419   0.67827   0.68942   0.69263
 Alpha virt. eigenvalues --    0.69733   0.69984   0.70469   0.71504   0.71756
 Alpha virt. eigenvalues --    0.71854   0.72722   0.73097   0.73459   0.73652
 Alpha virt. eigenvalues --    0.74182   0.74440   0.74772   0.75214   0.75555
 Alpha virt. eigenvalues --    0.75788   0.76014   0.76598   0.76864   0.77694
 Alpha virt. eigenvalues --    0.78271   0.78604   0.79005   0.79278   0.79479
 Alpha virt. eigenvalues --    0.80215   0.80814   0.81032   0.81549   0.81849
 Alpha virt. eigenvalues --    0.82136   0.82404   0.82819   0.83241   0.83707
 Alpha virt. eigenvalues --    0.84284   0.84614   0.84816   0.85485   0.85676
 Alpha virt. eigenvalues --    0.86392   0.86903   0.87023   0.87544   0.88158
 Alpha virt. eigenvalues --    0.88795   0.89012   0.89309   0.90105   0.91483
 Alpha virt. eigenvalues --    0.91858   0.92185   0.92825   0.93762   0.94064
 Alpha virt. eigenvalues --    0.94550   0.95114   0.95729   0.96014   0.97124
 Alpha virt. eigenvalues --    0.97856   0.98344   0.99596   1.00203   1.01004
 Alpha virt. eigenvalues --    1.01850   1.02516   1.02759   1.04042   1.04990
 Alpha virt. eigenvalues --    1.06277   1.07472   1.08510   1.09061   1.10106
 Alpha virt. eigenvalues --    1.10448   1.10761   1.12071   1.14072   1.14273
 Alpha virt. eigenvalues --    1.15532   1.16282   1.16830   1.18663   1.19317
 Alpha virt. eigenvalues --    1.19969   1.20911   1.22768   1.23285   1.24013
 Alpha virt. eigenvalues --    1.24629   1.24952   1.26230   1.26840   1.27254
 Alpha virt. eigenvalues --    1.27995   1.29378   1.30399   1.30833   1.31259
 Alpha virt. eigenvalues --    1.32531   1.32797   1.34253   1.35667   1.36301
 Alpha virt. eigenvalues --    1.37095   1.38027   1.39654   1.39727   1.40415
 Alpha virt. eigenvalues --    1.40901   1.41967   1.43360   1.45636   1.46998
 Alpha virt. eigenvalues --    1.48320   1.48880   1.49851   1.50430   1.51982
 Alpha virt. eigenvalues --    1.52737   1.53406   1.54418   1.55660   1.56504
 Alpha virt. eigenvalues --    1.58160   1.59398   1.60663   1.61474   1.62337
 Alpha virt. eigenvalues --    1.63667   1.64397   1.64545   1.66059   1.66242
 Alpha virt. eigenvalues --    1.66841   1.67339   1.67599   1.68367   1.69154
 Alpha virt. eigenvalues --    1.69575   1.70583   1.71173   1.71540   1.72149
 Alpha virt. eigenvalues --    1.72869   1.74152   1.74547   1.75386   1.76682
 Alpha virt. eigenvalues --    1.76761   1.77290   1.77985   1.78536   1.79071
 Alpha virt. eigenvalues --    1.80184   1.80806   1.81375   1.81763   1.82732
 Alpha virt. eigenvalues --    1.83469   1.84289   1.85189   1.86199   1.86712
 Alpha virt. eigenvalues --    1.86962   1.87698   1.88366   1.88782   1.89683
 Alpha virt. eigenvalues --    1.89908   1.90202   1.90456   1.91002   1.91438
 Alpha virt. eigenvalues --    1.92518   1.93476   1.93598   1.93750   1.94595
 Alpha virt. eigenvalues --    1.96243   1.96928   1.97966   1.98412   1.98934
 Alpha virt. eigenvalues --    2.00093   2.01060   2.02945   2.03301   2.03853
 Alpha virt. eigenvalues --    2.04093   2.05391   2.05973   2.06660   2.08327
 Alpha virt. eigenvalues --    2.08567   2.10441   2.10843   2.11948   2.13862
 Alpha virt. eigenvalues --    2.14867   2.15407   2.15603   2.16832   2.17372
 Alpha virt. eigenvalues --    2.18427   2.19074   2.19972   2.21659   2.22315
 Alpha virt. eigenvalues --    2.22855   2.22920   2.23737   2.24726   2.25169
 Alpha virt. eigenvalues --    2.25631   2.28193   2.28407   2.29029   2.29642
 Alpha virt. eigenvalues --    2.31350   2.32770   2.32907   2.34239   2.35566
 Alpha virt. eigenvalues --    2.36533   2.36790   2.38874   2.39632   2.39784
 Alpha virt. eigenvalues --    2.40992   2.41612   2.43536   2.43992   2.44678
 Alpha virt. eigenvalues --    2.45187   2.45854   2.46800   2.48431   2.49668
 Alpha virt. eigenvalues --    2.50269   2.50700   2.52141   2.52889   2.53462
 Alpha virt. eigenvalues --    2.54012   2.54275   2.54627   2.56771   2.57056
 Alpha virt. eigenvalues --    2.58268   2.59347   2.59561   2.59949   2.61707
 Alpha virt. eigenvalues --    2.63158   2.63598   2.64981   2.67600   2.68852
 Alpha virt. eigenvalues --    2.70763   2.72001   2.73179   2.75960   2.77030
 Alpha virt. eigenvalues --    2.80352   2.81420   2.82393   2.85478   2.88453
 Alpha virt. eigenvalues --    2.89915   2.91017   2.91284   2.94597   2.98107
 Alpha virt. eigenvalues --    2.98485   3.01912   3.04438   3.06666   3.14140
 Alpha virt. eigenvalues --    3.33545   3.71478   3.72064   3.82637   3.87485
 Alpha virt. eigenvalues --    3.90261   3.92714   3.93568   3.97725   3.99559
 Alpha virt. eigenvalues --    4.02236   4.05185   4.06791   4.07762   4.09736
 Alpha virt. eigenvalues --    4.11814   4.14863   4.16905   4.21296   4.23164
 Alpha virt. eigenvalues --    4.24937   4.27337   4.29939   4.30511   4.34244
 Alpha virt. eigenvalues --    4.35440   4.37737   4.42719   4.45745   4.47779
 Alpha virt. eigenvalues --    4.50561   4.59312   4.64463   4.66577   4.69881
          Condensed to atoms (all electrons):
 Mulliken charges:
               1
     1  N   -0.788970
     2  C   -0.109710
     3  C    0.644019
     4  O   -0.488191
     5  C   -0.375993
     6  C    0.020306
     7  C    0.000360
     8  C    0.044372
     9  C    0.317215
    10  C   -0.238119
    11  N   -0.678441
    12  C   -0.153765
    13  C   -0.131670
    14  C   -0.147693
    15  H    0.447715
    16  H    0.232609
    17  H    0.172377
    18  H    0.222486
    19  H    0.174763
    20  H    0.350827
    21  H    0.142491
    22  H    0.154337
    23  H    0.152645
    24  H    0.158255
    25  H    0.389371
    26  H    0.418830
    27  N   -0.652293
    28  C   -0.062243
    29  C    0.616914
    30  O   -0.445044
    31  C   -0.062834
    32  C   -0.270547
    33  C   -0.478640
    34  C   -0.454490
    35  H    0.327027
    36  H    0.170406
    37  H    0.184198
    38  H    0.123182
    39  H    0.161761
    40  H    0.126552
    41  H    0.180544
    42  H    0.136099
    43  H    0.166943
    44  H    0.159338
    45  H    0.146838
    46  N   -0.690468
    47  C   -0.067422
    48  C    0.659095
    49  O   -0.530549
    50  C   -0.287535
    51  C   -0.267221
    52  C   -0.154567
    53  N   -0.603703
    54  C    0.586864
    55  N   -0.673696
    56  N   -0.742932
    57  O   -0.578394
    58  H    0.454094
    59  H    0.387821
    60  H    0.223256
    61  H    0.162271
    62  H    0.148671
    63  H    0.160986
    64  H    0.160108
    65  H    0.161843
    66  H    0.171995
    67  H    0.341458
    68  H    0.288739
    69  H    0.330700
    70  H    0.354453
 Sum of Mulliken charges =   1.00000
 Mulliken charges with hydrogens summed into heavy atoms:
               1
     1  N    0.466946
     2  C    0.122900
     3  C    0.644019
     4  O   -0.488191
     5  C    0.018870
     6  C    0.020306
     7  C    0.175123
     8  C    0.044372
     9  C    0.317215
    10  C   -0.095628
    11  N   -0.327614
    12  C    0.000572
    13  C    0.020974
    14  C    0.010561
    27  N   -0.325266
    28  C    0.108164
    29  C    0.616914
    30  O   -0.445044
    31  C    0.121363
    32  C    0.014396
    33  C   -0.035445
    34  C    0.018627
    46  N   -0.302647
    47  C    0.155834
    48  C    0.659095
    49  O   -0.530549
    50  C    0.023406
    51  C    0.053873
    52  C    0.179271
    53  N   -0.262244
    54  C    0.586864
    55  N   -0.384957
    56  N   -0.057780
    57  O   -0.124300
 Electronic spatial extent (au):  <R**2>=        8504306.3125
 Charge=              1.0000 electrons
 Dipole moment (field-independent basis, Debye):
    X=           -469.4215    Y=            -71.6286    Z=             23.7898  Tot=            475.4504
 Quadrupole moment (field-independent basis, Debye-Ang):
   XX=          45664.5204   YY=            921.4229   ZZ=            -12.6538
   XY=           6991.1257   XZ=          -2337.1043   YZ=           -386.1599
 Traceless Quadrupole moment (field-independent basis, Debye-Ang):
   XX=          30140.0906   YY=         -14603.0069   ZZ=         -15537.0836
   XY=           6991.1257   XZ=          -2337.1043   YZ=           -386.1599
 Octapole moment (field-independent basis, Debye-Ang**2):
  XXX=       -4422727.8651  YYY=          -9630.4815  ZZZ=          -1256.2591  XYY=         -90188.3587
  XXY=        -679430.5901  XXZ=         228635.6871  XZZ=            610.1120  YZZ=           -218.1678
  YYZ=           5518.0379  XYZ=          37924.9472
 Hexadecapole moment (field-independent basis, Debye-Ang**3):
 XXXX=      426553847.6214 YYYY=          52810.9822 ZZZZ=         -27609.8894 XXXY=       65762847.2387
 XXXZ=      -22277961.8982 YYYX=         953099.1158 YYYZ=         -67710.3333 ZZZX=         116622.8852
 ZZZY=          16887.4013 XXYY=        8784801.8199 XXZZ=          -7038.6564 YYZZ=           3038.3385
 XXYZ=       -3710447.6889 YYXZ=        -543231.0006 ZZXY=          30604.3160
 N-N= 3.808827675653D+03 E-N=-1.127087367892D+04  KE= 1.567330540473D+03
 Unable to Open any file for archive entry.
 1\1\GINC-QML-002\SP\RB3LYP\6-31G(d)\C23H36N7O4(1+)\KENGMITH\24-May-202
 2\0\\# B3LYP/6-31G* empiricaldispersion=gd3 guess=read geom=check nosy
 mm integral(ultrafinegrid)\\Candidate Structure: Conf:268 Charge calc 
 in gas phase\\1,1\N,0,-97.148196261,-14.9979565544,6.0932838584\C,0,-9
 5.7315588486,-14.7709663642,6.5991287946\C,0,-94.6495901673,-14.619990
 5718,5.521839864\O,0,-93.6172400202,-14.0579740371,5.8478127351\C,0,-9
 5.3600612231,-15.8786976669,7.617382424\C,0,-96.5077237361,-16.2333743
 171,8.5140138991\C,0,-97.0629209999,-17.4844244,8.6621784874\C,0,-97.3
 135706223,-15.3274940364,9.3023650569\C,0,-98.340753515,-16.1077342958
 ,9.9039730166\C,0,-97.2741745639,-13.9412423483,9.5588356857\N,0,-98.1
 560179105,-17.4142844658,9.4951154654\C,0,-99.31452068,-15.5487979022,
 10.7373798781\C,0,-98.2447491995,-13.3831017488,10.3807638721\C,0,-99.
 2539952346,-14.178910893,10.9622505881\H,0,-97.410570767,-14.375650037
 5,5.2801197803\H,0,-95.7776070189,-13.7992375911,7.0887018245\H,0,-95.
 0251259832,-16.770640512,7.0727387051\H,0,-94.4889319128,-15.503084897
 2,8.1656652308\H,0,-96.7434723557,-18.4309555077,8.2466315355\H,0,-98.
 6952018443,-18.2055068752,9.8142467401\H,0,-96.4766285739,-13.31964136
 93,9.159891539\H,0,-100.0861159316,-16.1617337776,11.19389012\H,0,-98.
 219282181,-12.3188800612,10.594075112\H,0,-99.9935978879,-13.712719787
 8,11.60582313\H,0,-97.3081326596,-15.9770287313,5.8348306309\H,0,-97.7
 860971902,-14.8168264061,6.8819585255\N,0,-94.8803965153,-15.092338175
 8,4.2645423068\C,0,-93.8253722249,-15.0893586308,3.2341703259\C,0,-93.
 3255830679,-13.6472233793,2.9390821165\O,0,-92.141501123,-13.402975778
 3,2.844234691\C,0,-92.6422429971,-16.0495445692,3.5190954102\C,0,-91.9
 219642917,-16.3812740574,2.191610524\C,0,-93.1176215707,-17.3300414623
 ,4.2196389783\C,0,-90.5156816499,-16.9562937366,2.3870324026\H,0,-95.6
 758492235,-15.6883386151,4.0860985382\H,0,-94.3299667373,-15.436912735
 3,2.3254122872\H,0,-91.9449883556,-15.5191528865,4.174301777\H,0,-92.5
 429839514,-17.0898661661,1.6218797609\H,0,-91.8386562928,-15.473138570
 8,1.5876198801\H,0,-93.9112910026,-17.8312825507,3.6480511044\H,0,-92.
 2907518722,-18.0382607307,4.3168286672\H,0,-93.4892917056,-17.13534951
 63,5.2313107952\H,0,-89.8797181771,-16.2399960359,2.9189830151\H,0,-90
 .0469610564,-17.1663883573,1.4200802399\H,0,-90.5228959661,-17.8917965
 809,2.9572518472\N,0,-94.2536486396,-12.6121405284,2.7517953489\C,0,-9
 5.6734926681,-12.7300236835,2.3911645602\C,0,-96.4879996556,-12.954385
 0954,3.6578285378\O,0,-97.5015870507,-13.6384149892,3.7358180309\C,0,-
 96.0496848854,-13.6779916407,1.2325011738\C,0,-97.1562053695,-13.13395
 56877,0.3096156744\C,0,-96.7304662702,-12.0495446051,-0.7017081032\N,0
 ,-96.5199679411,-10.7111083502,-0.1464173443\C,0,-95.2836438005,-10.24
 66188384,0.2910007998\N,0,-94.1763105966,-10.9080808587,0.3853729517\N
 ,0,-95.3230273986,-8.9242350308,0.6901439229\O,0,-96.0311129631,-12.31
 71782367,4.7405519501\H,0,-95.1180573537,-12.006746557,4.5265750245\H,
 0,-93.8138538154,-11.8387157042,2.2360645209\H,0,-95.9493395574,-11.71
 47964173,2.0915714376\H,0,-95.1465502303,-13.8712512402,0.6427832514\H
 ,0,-96.3778658655,-14.6394618887,1.6416792629\H,0,-97.9939464928,-12.7
 6204496,0.9123109485\H,0,-97.545160092,-13.9760306923,-0.2760989945\H,
 0,-95.841841284,-12.3846306689,-1.2559680347\H,0,-97.527435209,-11.953
 1584719,-1.4445055314\H,0,-97.1075580405,-9.9905862213,-0.5472499967\H
 ,0,-94.219662012,-11.7900984678,-0.1240347168\H,0,-96.1480849421,-8.59
 91949394,1.1774909869\H,0,-94.4469447969,-8.587628175,1.0680374421\\Ve
 rsion=ES64L-G16RevC.01\HF=-1582.2035324\RMSD=6.589e-09\Dipole=-4.08641
 4,-1.4334904,0.5516923\Quadrupole=22408.4186226,-10856.9777439,-11551.
 4408787,5197.7305826,-1737.5797307,-287.1004005\PG=C01 [X(C23H36N7O4)]
 \\@
 The archive entry for this job was punched.


 LIFE IS A CONTINUAL STRUGGLE AGAINST THE TENDENCY TO PRODUCE ENTROPY.
 Job cpu time:       0 days  0 hours  2 minutes 23.3 seconds.
 Elapsed time:       0 days  0 hours  0 minutes 37.2 seconds.
 File lengths (MBytes):  RWF=    296 Int=      0 D2E=      0 Chk=     40 Scr=     16
 Normal termination of Gaussian 16 at Tue May 24 23:12:44 2022.
