 Entering Gaussian System, Link 0=/opt/software/Gaussian/g16-AVX2-C.01/g16/g16
 Input=charge-conf-879.com
 Output=charge-conf-879.log
 Initial command:
 /opt/software/Gaussian/g16-AVX2-C.01/g16/l1.exe "/mnt/gs18/scratch/users/kengmith/Gau-26394.inp" -scrdir="/mnt/gs18/scratch/users/kengmith/"
 Entering Link 1 = /opt/software/Gaussian/g16-AVX2-C.01/g16/l1.exe PID=     26404.
  
 Copyright (c) 1988-2019, Gaussian, Inc.  All Rights Reserved.
  
 This is part of the Gaussian(R) 16 program.  It is based on
 the Gaussian(R) 09 system (copyright 2009, Gaussian, Inc.),
 the Gaussian(R) 03 system (copyright 2003, Gaussian, Inc.),
 the Gaussian(R) 98 system (copyright 1998, Gaussian, Inc.),
 the Gaussian(R) 94 system (copyright 1995, Gaussian, Inc.),
 the Gaussian 92(TM) system (copyright 1992, Gaussian, Inc.),
 the Gaussian 90(TM) system (copyright 1990, Gaussian, Inc.),
 the Gaussian 88(TM) system (copyright 1988, Gaussian, Inc.),
 the Gaussian 86(TM) system (copyright 1986, Carnegie Mellon
 University), and the Gaussian 82(TM) system (copyright 1983,
 Carnegie Mellon University). Gaussian is a federally registered
 trademark of Gaussian, Inc.
  
 This software contains proprietary and confidential information,
 including trade secrets, belonging to Gaussian, Inc.
  
 This software is provided under written license and may be
 used, copied, transmitted, or stored only in accord with that
 written license.
  
 The following legend is applicable only to US Government
 contracts under FAR:
  
                    RESTRICTED RIGHTS LEGEND
  
 Use, reproduction and disclosure by the US Government is
 subject to restrictions as set forth in subparagraphs (a)
 and (c) of the Commercial Computer Software - Restricted
 Rights clause in FAR 52.227-19.
  
 Gaussian, Inc.
 340 Quinnipiac St., Bldg. 40, Wallingford CT 06492
  
  
 ---------------------------------------------------------------
 Warning -- This program may not be used in any manner that
 competes with the business of Gaussian, Inc. or will provide
 assistance to any competitor of Gaussian, Inc.  The licensee
 of this program is prohibited from giving any competitor of
 Gaussian, Inc. access to this program.  By using this program,
 the user acknowledges that Gaussian, Inc. is engaged in the
 business of creating and licensing software in the field of
 computational chemistry and represents and warrants to the
 licensee that it is not a competitor of Gaussian, Inc. and that
 it will not use this program in any manner prohibited above.
 ---------------------------------------------------------------
  

 Cite this work as:
 Gaussian 16, Revision C.01,
 M. J. Frisch, G. W. Trucks, H. B. Schlegel, G. E. Scuseria, 
 M. A. Robb, J. R. Cheeseman, G. Scalmani, V. Barone, 
 G. A. Petersson, H. Nakatsuji, X. Li, M. Caricato, A. V. Marenich, 
 J. Bloino, B. G. Janesko, R. Gomperts, B. Mennucci, H. P. Hratchian, 
 J. V. Ortiz, A. F. Izmaylov, J. L. Sonnenberg, D. Williams-Young, 
 F. Ding, F. Lipparini, F. Egidi, J. Goings, B. Peng, A. Petrone, 
 T. Henderson, D. Ranasinghe, V. G. Zakrzewski, J. Gao, N. Rega, 
 G. Zheng, W. Liang, M. Hada, M. Ehara, K. Toyota, R. Fukuda, 
 J. Hasegawa, M. Ishida, T. Nakajima, Y. Honda, O. Kitao, H. Nakai, 
 T. Vreven, K. Throssell, J. A. Montgomery, Jr., J. E. Peralta, 
 F. Ogliaro, M. J. Bearpark, J. J. Heyd, E. N. Brothers, K. N. Kudin, 
 V. N. Staroverov, T. A. Keith, R. Kobayashi, J. Normand, 
 K. Raghavachari, A. P. Rendell, J. C. Burant, S. S. Iyengar, 
 J. Tomasi, M. Cossi, J. M. Millam, M. Klene, C. Adamo, R. Cammi, 
 J. W. Ochterski, R. L. Martin, K. Morokuma, O. Farkas, 
 J. B. Foresman, and D. J. Fox, Gaussian, Inc., Wallingford CT, 2019.
 
 ******************************************
 Gaussian 16:  ES64L-G16RevC.01  3-Jul-2019
                24-May-2022 
 ******************************************
 %mem=8gb
 %nproc=4
 Will use up to    4 processors via shared memory.
 %chk=conf-879.chk
 ----------------------------------------------------------------------
 # B3LYP/6-31G* empiricaldispersion=gd3 guess=read geom=check nosymm in
 tegral(ultrafinegrid)
 ----------------------------------------------------------------------
 1/29=2,38=1,172=1/1;
 2/12=2,15=1,40=1/2;
 3/5=1,6=6,7=1,11=2,14=-4,25=1,30=1,74=-5,75=-5,116=-2,124=31/1,2,3;
 4/5=1/1;
 5/5=2,38=6/2;
 6/7=2,8=2,9=2,10=2,28=1/1;
 99/5=1,9=1/99;
 ------------------------------------------------------
 Candidate Structure: Conf:879 Charge calc in gas phase
 ------------------------------------------------------
 Structure from the checkpoint file:  "conf-879.chk"
 Charge =  1 Multiplicity = 1
 Redundant internal coordinates found in file.  (old form).
 N,0,-93.4407973089,-13.6805825833,2.4087965444
 C,0,-93.905262808,-12.3413666177,2.9451658869
 C,0,-93.8970827523,-12.5954379455,4.4766540577
 O,0,-92.9209296441,-13.2060008442,4.9159444369
 C,0,-95.1360078737,-11.7953857304,2.1967302686
 C,0,-96.4161095923,-12.5715311424,2.2885591455
 C,0,-97.5370607272,-12.1937024159,2.9947482709
 C,0,-96.7392902322,-13.8198717464,1.6404235432
 C,0,-98.0644632768,-14.155640966,2.0303822001
 C,0,-96.0673400187,-14.6787169419,0.7497240862
 N,0,-98.5187159913,-13.1475478155,2.8577282903
 C,0,-98.700298755,-15.3273130573,1.6072634271
 C,0,-96.6929757103,-15.8415881824,0.3219665381
 C,0,-97.9936030828,-16.1699130405,0.7585207096
 H,0,-92.61620138,-13.9279117578,2.9796641376
 H,0,-93.0677664271,-11.6576845334,2.7667856321
 H,0,-95.2868144494,-10.7743820378,2.5692054522
 H,0,-94.8407666938,-11.670259874,1.1446176748
 H,0,-97.7268233258,-11.2868697803,3.5557592093
 H,0,-99.4555241683,-13.0748490781,3.2255369469
 H,0,-95.0885675811,-14.4220566465,0.3492379255
 H,0,-99.7113920548,-15.5650944069,1.924682863
 H,0,-96.1836751783,-16.502960508,-0.3722673117
 H,0,-98.4581890396,-17.0857728335,0.4068248167
 H,0,-94.1542895747,-14.4116637289,2.6115060644
 H,0,-93.2073969571,-13.6590785438,1.4136699892
 N,0,-94.9368233664,-12.1496697907,5.1887588573
 C,0,-95.0469735614,-12.1067213028,6.658027201
 C,0,-94.2364073807,-13.2395120575,7.3409533581
 O,0,-93.2759031258,-12.9717672444,8.0403199109
 C,0,-94.6624972848,-10.7193595968,7.2287923576
 C,0,-95.1607234472,-10.603471091,8.6865081873
 C,0,-95.228952525,-9.5872216927,6.3580360942
 C,0,-94.5289960666,-9.4416887688,9.460698387
 H,0,-95.7086218987,-11.7461769421,4.6785560024
 H,0,-96.1067929621,-12.2807150435,6.8728974607
 H,0,-93.5681430477,-10.6655249055,7.2290472434
 H,0,-96.2562353581,-10.4969360108,8.6779858827
 H,0,-94.9351847884,-11.5313876036,9.2203661906
 H,0,-94.7852147562,-9.5700041298,5.3562419241
 H,0,-96.320494485,-9.6721038164,6.2528057272
 H,0,-95.0243308426,-8.6147209977,6.8122579132
 H,0,-93.4391442492,-9.5502038437,9.4962746299
 H,0,-94.8963096723,-9.4232937465,10.4918734424
 H,0,-94.7587451533,-8.4677701468,9.0150353659
 N,0,-94.6879210973,-14.5458622426,7.2875349429
 C,0,-95.5568595776,-15.3180264743,6.3871243544
 C,0,-94.7762169289,-15.7007176264,5.1281282191
 O,0,-94.9904274782,-15.2874808014,3.9973001852
 C,0,-96.9293465351,-14.7073003707,6.0795870671
 C,0,-97.8805656231,-15.6022959997,5.2568242358
 C,0,-97.9682765363,-17.0682024942,5.6905748784
 N,0,-96.772598641,-17.7831155187,5.2566264997
 C,0,-96.4668531562,-19.0502156254,5.7957414466
 N,0,-97.1190693691,-19.7254004437,6.6631676113
 N,0,-95.2727306768,-19.5402571412,5.2561156522
 O,0,-93.7538903631,-16.5221816999,5.4166271275
 H,0,-93.2411351471,-16.6781370894,4.6020460288
 H,0,-94.0385120952,-15.1311464768,7.8038611162
 H,0,-95.7180316896,-16.2587566813,6.9164448455
 H,0,-97.3850896119,-14.4674052682,7.0473644954
 H,0,-96.809740281,-13.7753543888,5.5240748607
 H,0,-97.5866809411,-15.5663385893,4.2040806195
 H,0,-98.8809554216,-15.1564818308,5.3118955403
 H,0,-98.0249563778,-17.1399291479,6.78368757
 H,0,-98.8893301355,-17.5232317206,5.2941194505
 H,0,-96.6179073893,-17.745635593,4.2531549943
 H,0,-98.0432191821,-19.3354035774,6.8479468749
 H,0,-94.5083313177,-18.8753570026,5.3246271201
 H,0,-95.0302400322,-20.4290537563,5.682111782
 Recover connectivity data from disk.
                           ----------------------------
                           !    Current Parameters    !
                           ! (Angstroms and Degrees)  !
 --------------------------                            --------------------------
 ! Name  Definition              Value                                          !
 --------------------------------------------------------------------------------
 ! R1    R(1,2)                  1.5156                                         !
 ! R2    R(1,15)                 1.033                                          !
 ! R3    R(1,25)                 1.0415                                         !
 ! R4    R(1,26)                 1.0224                                         !
 ! R5    R(2,3)                  1.5524                                         !
 ! R6    R(2,5)                  1.5404                                         !
 ! R7    R(2,16)                 1.0957                                         !
 ! R8    R(3,4)                  1.2323                                         !
 ! R9    R(3,27)                 1.3367                                         !
 ! R10   R(5,6)                  1.4998                                         !
 ! R11   R(5,17)                 1.0972                                         !
 ! R12   R(5,18)                 1.0999                                         !
 ! R13   R(6,7)                  1.3777                                         !
 ! R14   R(6,8)                  1.4432                                         !
 ! R15   R(7,11)                 1.3756                                         !
 ! R16   R(7,19)                 1.0831                                         !
 ! R17   R(8,9)                  1.4216                                         !
 ! R18   R(8,10)                 1.408                                          !
 ! R19   R(9,11)                 1.381                                          !
 ! R20   R(9,12)                 1.3986                                         !
 ! R21   R(10,13)                1.388                                          !
 ! R22   R(10,21)                1.0882                                         !
 ! R23   R(11,20)                1.009                                          !
 ! R24   R(12,14)                1.3892                                         !
 ! R25   R(12,22)                1.0861                                         !
 ! R26   R(13,14)                1.4107                                         !
 ! R27   R(13,23)                1.0857                                         !
 ! R28   R(14,24)                1.0855                                         !
 ! R29   R(27,28)                1.474                                          !
 ! R30   R(27,35)                1.0093                                         !
 ! R31   R(28,29)                1.5513                                         !
 ! R32   R(28,31)                1.5487                                         !
 ! R33   R(28,36)                1.0953                                         !
 ! R34   R(29,30)                1.2179                                         !
 ! R35   R(29,46)                1.3832                                         !
 ! R36   R(31,32)                1.5449                                         !
 ! R37   R(31,33)                1.5365                                         !
 ! R38   R(31,37)                1.0957                                         !
 ! R39   R(32,34)                1.5324                                         !
 ! R40   R(32,38)                1.1007                                         !
 ! R41   R(32,39)                1.094                                          !
 ! R42   R(33,40)                1.0958                                         !
 ! R43   R(33,41)                1.0999                                         !
 ! R44   R(33,42)                1.0927                                         !
 ! R45   R(34,43)                1.0958                                         !
 ! R46   R(34,44)                1.0948                                         !
 ! R47   R(34,45)                1.0954                                         !
 ! R48   R(46,47)                1.4704                                         !
 ! R49   R(46,59)                1.0153                                         !
 ! R50   R(47,48)                1.53                                           !
 ! R51   R(47,50)                1.5334                                         !
 ! R52   R(47,60)                1.0914                                         !
 ! R53   R(48,49)                1.2229                                         !
 ! R54   R(48,57)                1.3428                                         !
 ! R55   R(50,51)                1.5436                                         !
 ! R56   R(50,61)                1.0963                                         !
 ! R57   R(50,62)                1.0915                                         !
 ! R58   R(51,52)                1.5312                                         !
 ! R59   R(51,63)                1.0936                                         !
 ! R60   R(51,64)                1.0966                                         !
 ! R61   R(52,53)                1.4591                                         !
 ! R62   R(52,65)                1.0969                                         !
 ! R63   R(52,66)                1.1012                                         !
 ! R64   R(53,54)                1.4106                                         !
 ! R65   R(53,67)                1.016                                          !
 ! R66   R(54,55)                1.2782                                         !
 ! R67   R(54,56)                1.399                                          !
 ! R68   R(55,68)                1.0199                                         !
 ! R69   R(56,69)                1.0154                                         !
 ! R70   R(56,70)                1.015                                          !
 ! R71   R(57,58)                0.9751                                         !
 ! A1    A(2,1,15)             105.1077                                         !
 ! A2    A(2,1,25)             109.9657                                         !
 ! A3    A(2,1,26)             113.3196                                         !
 ! A4    A(15,1,25)            105.7384                                         !
 ! A5    A(15,1,26)            111.1445                                         !
 ! A6    A(25,1,26)            111.1385                                         !
 ! A7    A(1,2,3)              101.7066                                         !
 ! A8    A(1,2,5)              112.7116                                         !
 ! A9    A(1,2,16)             105.0401                                         !
 ! A10   A(3,2,5)              122.7867                                         !
 ! A11   A(3,2,16)             104.992                                          !
 ! A12   A(5,2,16)             108.0843                                         !
 ! A13   A(2,3,4)              115.9075                                         !
 ! A14   A(2,3,27)             117.8303                                         !
 ! A15   A(4,3,27)             126.2599                                         !
 ! A16   A(2,5,6)              117.9527                                         !
 ! A17   A(2,5,17)             105.9431                                         !
 ! A18   A(2,5,18)             106.8944                                         !
 ! A19   A(6,5,17)             110.0868                                         !
 ! A20   A(6,5,18)             110.2757                                         !
 ! A21   A(17,5,18)            104.8183                                         !
 ! A22   A(5,6,7)              125.7263                                         !
 ! A23   A(5,6,8)              127.6792                                         !
 ! A24   A(7,6,8)              106.5719                                         !
 ! A25   A(6,7,11)             109.8414                                         !
 ! A26   A(6,7,19)             129.6194                                         !
 ! A27   A(11,7,19)            120.4728                                         !
 ! A28   A(6,8,9)              106.8492                                         !
 ! A29   A(6,8,10)             134.8161                                         !
 ! A30   A(9,8,10)             118.3156                                         !
 ! A31   A(8,9,11)             107.3706                                         !
 ! A32   A(8,9,12)             122.593                                          !
 ! A33   A(11,9,12)            130.0338                                         !
 ! A34   A(8,10,13)            119.3975                                         !
 ! A35   A(8,10,21)            121.2098                                         !
 ! A36   A(13,10,21)           119.3124                                         !
 ! A37   A(7,11,9)             109.3366                                         !
 ! A38   A(7,11,20)            125.1886                                         !
 ! A39   A(9,11,20)            125.1948                                         !
 ! A40   A(9,12,14)            117.4966                                         !
 ! A41   A(9,12,22)            121.2125                                         !
 ! A42   A(14,12,22)           121.2893                                         !
 ! A43   A(10,13,14)           121.01                                           !
 ! A44   A(10,13,23)           119.7331                                         !
 ! A45   A(14,13,23)           119.2488                                         !
 ! A46   A(12,14,13)           121.1273                                         !
 ! A47   A(12,14,24)           119.471                                          !
 ! A48   A(13,14,24)           119.387                                          !
 ! A49   A(3,27,28)            126.7872                                         !
 ! A50   A(3,27,35)            117.3091                                         !
 ! A51   A(28,27,35)           115.7891                                         !
 ! A52   A(27,28,29)           112.2396                                         !
 ! A53   A(27,28,31)           112.0191                                         !
 ! A54   A(27,28,36)           105.2614                                         !
 ! A55   A(29,28,31)           111.2347                                         !
 ! A56   A(29,28,36)           107.651                                          !
 ! A57   A(31,28,36)           108.0732                                         !
 ! A58   A(28,29,30)           120.2861                                         !
 ! A59   A(28,29,46)           120.1374                                         !
 ! A60   A(30,29,46)           119.1583                                         !
 ! A61   A(28,31,32)           109.5664                                         !
 ! A62   A(28,31,33)           111.0814                                         !
 ! A63   A(28,31,37)           106.9816                                         !
 ! A64   A(32,31,33)           111.1356                                         !
 ! A65   A(32,31,37)           108.5548                                         !
 ! A66   A(33,31,37)           109.3993                                         !
 ! A67   A(31,32,34)           113.6183                                         !
 ! A68   A(31,32,38)           108.7196                                         !
 ! A69   A(31,32,39)           109.2892                                         !
 ! A70   A(34,32,38)           109.9278                                         !
 ! A71   A(34,32,39)           108.1507                                         !
 ! A72   A(38,32,39)           106.9208                                         !
 ! A73   A(31,33,40)           112.3575                                         !
 ! A74   A(31,33,41)           111.2985                                         !
 ! A75   A(31,33,42)           110.5589                                         !
 ! A76   A(40,33,41)           108.3981                                         !
 ! A77   A(40,33,42)           106.8709                                         !
 ! A78   A(41,33,42)           107.1158                                         !
 ! A79   A(32,34,43)           110.5688                                         !
 ! A80   A(32,34,44)           110.5048                                         !
 ! A81   A(32,34,45)           112.4612                                         !
 ! A82   A(43,34,44)           107.7441                                         !
 ! A83   A(43,34,45)           108.0501                                         !
 ! A84   A(44,34,45)           107.3313                                         !
 ! A85   A(29,46,47)           135.4401                                         !
 ! A86   A(29,46,59)           108.421                                          !
 ! A87   A(47,46,59)           112.7475                                         !
 ! A88   A(46,47,48)           109.4951                                         !
 ! A89   A(46,47,50)           116.2704                                         !
 ! A90   A(46,47,60)           104.0594                                         !
 ! A91   A(48,47,50)           113.0334                                         !
 ! A92   A(48,47,60)           105.0013                                         !
 ! A93   A(50,47,60)           107.9626                                         !
 ! A94   A(47,48,49)           125.9467                                         !
 ! A95   A(47,48,57)           111.387                                          !
 ! A96   A(49,48,57)           122.5989                                         !
 ! A97   A(47,50,51)           115.3113                                         !
 ! A98   A(47,50,61)           106.3914                                         !
 ! A99   A(47,50,62)           110.1238                                         !
 ! A100  A(51,50,61)           109.9517                                         !
 ! A101  A(51,50,62)           106.9355                                         !
 ! A102  A(61,50,62)           107.9384                                         !
 ! A103  A(50,51,52)           116.0641                                         !
 ! A104  A(50,51,63)           109.1739                                         !
 ! A105  A(50,51,64)           107.4381                                         !
 ! A106  A(52,51,63)           108.6362                                         !
 ! A107  A(52,51,64)           108.8269                                         !
 ! A108  A(63,51,64)           106.268                                          !
 ! A109  A(51,52,53)           109.7471                                         !
 ! A110  A(51,52,65)           110.3552                                         !
 ! A111  A(51,52,66)           109.9694                                         !
 ! A112  A(53,52,65)           107.8588                                         !
 ! A113  A(53,52,66)           112.0784                                         !
 ! A114  A(65,52,66)           106.7706                                         !
 ! A115  A(52,53,54)           120.2704                                         !
 ! A116  A(52,53,67)           113.6044                                         !
 ! A117  A(54,53,67)           112.1862                                         !
 ! A118  A(53,54,55)           128.5576                                         !
 ! A119  A(53,54,56)           110.6243                                         !
 ! A120  A(55,54,56)           120.8157                                         !
 ! A121  A(54,55,68)           112.539                                          !
 ! A122  A(54,56,69)           112.7773                                         !
 ! A123  A(54,56,70)           110.411                                          !
 ! A124  A(69,56,70)           111.4209                                         !
 ! A125  A(48,57,58)           108.585                                          !
 ! D1    D(15,1,2,3)           -47.2701                                         !
 ! D2    D(15,1,2,5)           179.3975                                         !
 ! D3    D(15,1,2,16)           61.9518                                         !
 ! D4    D(25,1,2,3)            66.1205                                         !
 ! D5    D(25,1,2,5)           -67.2118                                         !
 ! D6    D(25,1,2,16)          175.3424                                         !
 ! D7    D(26,1,2,3)          -168.8204                                         !
 ! D8    D(26,1,2,5)            57.8473                                         !
 ! D9    D(26,1,2,16)          -59.5985                                         !
 ! D10   D(1,2,3,4)             43.1062                                         !
 ! D11   D(1,2,3,27)          -136.3777                                         !
 ! D12   D(5,2,3,4)            170.154                                          !
 ! D13   D(5,2,3,27)            -9.33                                           !
 ! D14   D(16,2,3,4)           -66.1527                                         !
 ! D15   D(16,2,3,27)          114.3634                                         !
 ! D16   D(1,2,5,6)             64.1708                                         !
 ! D17   D(1,2,5,17)          -172.0531                                         !
 ! D18   D(1,2,5,18)           -60.6611                                         !
 ! D19   D(3,2,5,6)            -57.9181                                         !
 ! D20   D(3,2,5,17)            65.858                                          !
 ! D21   D(3,2,5,18)           177.25                                           !
 ! D22   D(16,2,5,6)           179.8035                                         !
 ! D23   D(16,2,5,17)          -56.4203                                         !
 ! D24   D(16,2,5,18)           54.9717                                         !
 ! D25   D(2,3,27,28)         -170.5341                                         !
 ! D26   D(2,3,27,35)            5.3899                                         !
 ! D27   D(4,3,27,28)           10.0416                                         !
 ! D28   D(4,3,27,35)         -174.0344                                         !
 ! D29   D(2,5,6,7)            108.2458                                         !
 ! D30   D(2,5,6,8)            -73.72                                           !
 ! D31   D(17,5,6,7)           -13.4328                                         !
 ! D32   D(17,5,6,8)           164.6014                                         !
 ! D33   D(18,5,6,7)          -128.6091                                         !
 ! D34   D(18,5,6,8)            49.4251                                         !
 ! D35   D(5,6,7,11)          -179.8286                                         !
 ! D36   D(5,6,7,19)             3.1782                                         !
 ! D37   D(8,6,7,11)             1.7946                                         !
 ! D38   D(8,6,7,19)          -175.1987                                         !
 ! D39   D(5,6,8,9)           -179.8857                                         !
 ! D40   D(5,6,8,10)            -1.5678                                         !
 ! D41   D(7,6,8,9)             -1.5506                                         !
 ! D42   D(7,6,8,10)           176.7672                                         !
 ! D43   D(6,7,11,9)            -1.3648                                         !
 ! D44   D(6,7,11,20)         -175.5363                                         !
 ! D45   D(19,7,11,9)          175.9482                                         !
 ! D46   D(19,7,11,20)           1.7766                                         !
 ! D47   D(6,8,9,11)             0.7528                                         !
 ! D48   D(6,8,9,12)          -178.7106                                         !
 ! D49   D(10,8,9,11)         -177.8918                                         !
 ! D50   D(10,8,9,12)            2.6448                                         !
 ! D51   D(6,8,10,13)          179.4655                                         !
 ! D52   D(6,8,10,21)           -3.8162                                         !
 ! D53   D(9,8,10,13)           -2.3633                                         !
 ! D54   D(9,8,10,21)          174.355                                          !
 ! D55   D(8,9,11,7)             0.336                                          !
 ! D56   D(8,9,11,20)          174.5071                                         !
 ! D57   D(12,9,11,7)          179.7456                                         !
 ! D58   D(12,9,11,20)          -6.0833                                         !
 ! D59   D(8,9,12,14)           -0.8869                                         !
 ! D60   D(8,9,12,22)          179.5675                                         !
 ! D61   D(11,9,12,14)         179.782                                          !
 ! D62   D(11,9,12,22)           0.2364                                         !
 ! D63   D(8,10,13,14)           0.4538                                         !
 ! D64   D(8,10,13,23)         179.4134                                         !
 ! D65   D(21,10,13,14)       -176.3274                                         !
 ! D66   D(21,10,13,23)          2.6323                                         !
 ! D67   D(9,12,14,13)          -1.1291                                         !
 ! D68   D(9,12,14,24)        -179.7223                                         !
 ! D69   D(22,12,14,13)        178.4161                                         !
 ! D70   D(22,12,14,24)         -0.1771                                         !
 ! D71   D(10,13,14,12)          1.3661                                         !
 ! D72   D(10,13,14,24)        179.9604                                         !
 ! D73   D(23,13,14,12)       -177.5985                                         !
 ! D74   D(23,13,14,24)          0.9958                                         !
 ! D75   D(3,27,28,29)         -29.9879                                         !
 ! D76   D(3,27,28,31)          95.9883                                         !
 ! D77   D(3,27,28,36)        -146.8041                                         !
 ! D78   D(35,27,28,29)        154.0343                                         !
 ! D79   D(35,27,28,31)        -79.9895                                         !
 ! D80   D(35,27,28,36)         37.2181                                         !
 ! D81   D(27,28,29,30)        114.3043                                         !
 ! D82   D(27,28,29,46)        -73.1792                                         !
 ! D83   D(31,28,29,30)        -12.097                                          !
 ! D84   D(31,28,29,46)        160.4195                                         !
 ! D85   D(36,28,29,30)       -130.3207                                         !
 ! D86   D(36,28,29,46)         42.1958                                         !
 ! D87   D(27,28,31,32)        164.3831                                         !
 ! D88   D(27,28,31,33)         41.2123                                         !
 ! D89   D(27,28,31,37)        -78.1234                                         !
 ! D90   D(29,28,31,32)        -69.0942                                         !
 ! D91   D(29,28,31,33)        167.735                                          !
 ! D92   D(29,28,31,37)         48.3993                                         !
 ! D93   D(36,28,31,32)         48.8747                                         !
 ! D94   D(36,28,31,33)        -74.2961                                         !
 ! D95   D(36,28,31,37)        166.3682                                         !
 ! D96   D(28,29,46,47)         24.397                                          !
 ! D97   D(28,29,46,59)       -178.8133                                         !
 ! D98   D(30,29,46,47)       -163.0024                                         !
 ! D99   D(30,29,46,59)         -6.2127                                         !
 ! D100  D(28,31,32,34)        164.9111                                         !
 ! D101  D(28,31,32,38)        -72.3407                                         !
 ! D102  D(28,31,32,39)         44.0301                                         !
 ! D103  D(33,31,32,34)        -71.9501                                         !
 ! D104  D(33,31,32,38)         50.7981                                         !
 ! D105  D(33,31,32,39)        167.1689                                         !
 ! D106  D(37,31,32,34)         48.4071                                         !
 ! D107  D(37,31,32,38)        171.1553                                         !
 ! D108  D(37,31,32,39)        -72.4738                                         !
 ! D109  D(28,31,33,40)        -65.4054                                         !
 ! D110  D(28,31,33,41)         56.3731                                         !
 ! D111  D(28,31,33,42)        175.2926                                         !
 ! D112  D(32,31,33,40)        172.3299                                         !
 ! D113  D(32,31,33,41)        -65.8917                                         !
 ! D114  D(32,31,33,42)         53.0279                                         !
 ! D115  D(37,31,33,40)         52.4735                                         !
 ! D116  D(37,31,33,41)        174.252                                          !
 ! D117  D(37,31,33,42)        -66.8285                                         !
 ! D118  D(31,32,34,43)        -59.2732                                         !
 ! D119  D(31,32,34,44)       -178.4742                                         !
 ! D120  D(31,32,34,45)         61.6075                                         !
 ! D121  D(38,32,34,43)        178.6459                                         !
 ! D122  D(38,32,34,44)         59.4449                                         !
 ! D123  D(38,32,34,45)        -60.4735                                         !
 ! D124  D(39,32,34,43)         62.2448                                         !
 ! D125  D(39,32,34,44)        -56.9562                                         !
 ! D126  D(39,32,34,45)       -176.8745                                         !
 ! D127  D(29,46,47,48)         78.1052                                         !
 ! D128  D(29,46,47,50)        -51.5087                                         !
 ! D129  D(29,46,47,60)       -170.0731                                         !
 ! D130  D(59,46,47,48)        -77.9755                                         !
 ! D131  D(59,46,47,50)        152.4106                                         !
 ! D132  D(59,46,47,60)         33.8462                                         !
 ! D133  D(46,47,48,49)       -112.8562                                         !
 ! D134  D(46,47,48,57)         64.2077                                         !
 ! D135  D(50,47,48,49)         18.4984                                         !
 ! D136  D(50,47,48,57)       -164.4377                                         !
 ! D137  D(60,47,48,49)        135.9415                                         !
 ! D138  D(60,47,48,57)        -46.9946                                         !
 ! D139  D(46,47,50,51)       -173.7478                                         !
 ! D140  D(46,47,50,61)        -51.5683                                         !
 ! D141  D(46,47,50,62)         65.1561                                         !
 ! D142  D(48,47,50,51)         58.354                                          !
 ! D143  D(48,47,50,61)       -179.4665                                         !
 ! D144  D(48,47,50,62)        -62.7421                                         !
 ! D145  D(60,47,50,51)        -57.3366                                         !
 ! D146  D(60,47,50,61)         64.8429                                         !
 ! D147  D(60,47,50,62)       -178.4328                                         !
 ! D148  D(47,48,57,58)       -175.2184                                         !
 ! D149  D(49,48,57,58)          1.9603                                         !
 ! D150  D(47,50,51,52)         44.9537                                         !
 ! D151  D(47,50,51,63)        -78.1877                                         !
 ! D152  D(47,50,51,64)        166.9717                                         !
 ! D153  D(61,50,51,52)        -75.297                                          !
 ! D154  D(61,50,51,63)        161.5617                                         !
 ! D155  D(61,50,51,64)         46.7211                                         !
 ! D156  D(62,50,51,52)        167.7633                                         !
 ! D157  D(62,50,51,63)         44.622                                          !
 ! D158  D(62,50,51,64)        -70.2186                                         !
 ! D159  D(50,51,52,53)        -75.5611                                         !
 ! D160  D(50,51,52,65)         43.1713                                         !
 ! D161  D(50,51,52,66)        160.7042                                         !
 ! D162  D(63,51,52,53)         47.8608                                         !
 ! D163  D(63,51,52,65)        166.5932                                         !
 ! D164  D(63,51,52,66)        -75.8739                                         !
 ! D165  D(64,51,52,53)        163.1588                                         !
 ! D166  D(64,51,52,65)        -78.1088                                         !
 ! D167  D(64,51,52,66)         39.424                                          !
 ! D168  D(51,52,53,54)        165.0909                                         !
 ! D169  D(51,52,53,67)        -57.8379                                         !
 ! D170  D(65,52,53,54)         44.8296                                         !
 ! D171  D(65,52,53,67)       -178.0991                                         !
 ! D172  D(66,52,53,54)        -72.4172                                         !
 ! D173  D(66,52,53,67)         64.654                                          !
 ! D174  D(52,53,54,55)          0.3299                                         !
 ! D175  D(52,53,54,56)       -179.1057                                         !
 ! D176  D(67,53,54,55)       -137.2932                                         !
 ! D177  D(67,53,54,56)         43.2713                                         !
 ! D178  D(53,54,55,68)         10.7593                                         !
 ! D179  D(56,54,55,68)       -169.8558                                         !
 ! D180  D(53,54,56,69)         51.6328                                         !
 ! D181  D(53,54,56,70)        177.0054                                         !
 ! D182  D(55,54,56,69)       -127.8532                                         !
 ! D183  D(55,54,56,70)         -2.4806                                         !
 --------------------------------------------------------------------------------
 Symmetry turned off by external request.
 Stoichiometry    C23H36N7O4(1+)
 Framework group  C1[X(C23H36N7O4)]
 Deg. of freedom   204
 Full point group                 C1      NOp   1
                          Input orientation:                          
 ---------------------------------------------------------------------
 Center     Atomic      Atomic             Coordinates (Angstroms)
 Number     Number       Type             X           Y           Z
 ---------------------------------------------------------------------
      1          7           0      -93.440797  -13.680583    2.408797
      2          6           0      -93.905263  -12.341367    2.945166
      3          6           0      -93.897083  -12.595438    4.476654
      4          8           0      -92.920930  -13.206001    4.915944
      5          6           0      -95.136008  -11.795386    2.196730
      6          6           0      -96.416110  -12.571531    2.288559
      7          6           0      -97.537061  -12.193702    2.994748
      8          6           0      -96.739290  -13.819872    1.640424
      9          6           0      -98.064463  -14.155641    2.030382
     10          6           0      -96.067340  -14.678717    0.749724
     11          7           0      -98.518716  -13.147548    2.857728
     12          6           0      -98.700299  -15.327313    1.607263
     13          6           0      -96.692976  -15.841588    0.321967
     14          6           0      -97.993603  -16.169913    0.758521
     15          1           0      -92.616201  -13.927912    2.979664
     16          1           0      -93.067766  -11.657685    2.766786
     17          1           0      -95.286814  -10.774382    2.569205
     18          1           0      -94.840767  -11.670260    1.144618
     19          1           0      -97.726823  -11.286870    3.555759
     20          1           0      -99.455524  -13.074849    3.225537
     21          1           0      -95.088568  -14.422057    0.349238
     22          1           0      -99.711392  -15.565094    1.924683
     23          1           0      -96.183675  -16.502961   -0.372267
     24          1           0      -98.458189  -17.085773    0.406825
     25          1           0      -94.154290  -14.411664    2.611506
     26          1           0      -93.207397  -13.659079    1.413670
     27          7           0      -94.936823  -12.149670    5.188759
     28          6           0      -95.046974  -12.106721    6.658027
     29          6           0      -94.236407  -13.239512    7.340953
     30          8           0      -93.275903  -12.971767    8.040320
     31          6           0      -94.662497  -10.719360    7.228792
     32          6           0      -95.160723  -10.603471    8.686508
     33          6           0      -95.228953   -9.587222    6.358036
     34          6           0      -94.528996   -9.441689    9.460698
     35          1           0      -95.708622  -11.746177    4.678556
     36          1           0      -96.106793  -12.280715    6.872897
     37          1           0      -93.568143  -10.665525    7.229047
     38          1           0      -96.256235  -10.496936    8.677986
     39          1           0      -94.935185  -11.531388    9.220366
     40          1           0      -94.785215   -9.570004    5.356242
     41          1           0      -96.320494   -9.672104    6.252806
     42          1           0      -95.024331   -8.614721    6.812258
     43          1           0      -93.439144   -9.550204    9.496275
     44          1           0      -94.896310   -9.423294   10.491873
     45          1           0      -94.758745   -8.467770    9.015035
     46          7           0      -94.687921  -14.545862    7.287535
     47          6           0      -95.556860  -15.318026    6.387124
     48          6           0      -94.776217  -15.700718    5.128128
     49          8           0      -94.990427  -15.287481    3.997300
     50          6           0      -96.929347  -14.707300    6.079587
     51          6           0      -97.880566  -15.602296    5.256824
     52          6           0      -97.968277  -17.068202    5.690575
     53          7           0      -96.772599  -17.783116    5.256626
     54          6           0      -96.466853  -19.050216    5.795741
     55          7           0      -97.119069  -19.725400    6.663168
     56          7           0      -95.272731  -19.540257    5.256116
     57          8           0      -93.753890  -16.522182    5.416627
     58          1           0      -93.241135  -16.678137    4.602046
     59          1           0      -94.038512  -15.131146    7.803861
     60          1           0      -95.718032  -16.258757    6.916445
     61          1           0      -97.385090  -14.467405    7.047364
     62          1           0      -96.809740  -13.775354    5.524075
     63          1           0      -97.586681  -15.566339    4.204081
     64          1           0      -98.880955  -15.156482    5.311896
     65          1           0      -98.024956  -17.139929    6.783688
     66          1           0      -98.889330  -17.523232    5.294119
     67          1           0      -96.617907  -17.745636    4.253155
     68          1           0      -98.043219  -19.335404    6.847947
     69          1           0      -94.508331  -18.875357    5.324627
     70          1           0      -95.030240  -20.429054    5.682112
 ---------------------------------------------------------------------
 Rotational constants (GHZ):           0.1515143           0.1052977           0.0797612
 Standard basis: 6-31G(d) (6D, 7F)
   582 basis functions,  1096 primitive gaussians,   582 cartesian basis functions
   127 alpha electrons      127 beta electrons
       nuclear repulsion energy      4042.3989801256 Hartrees.
 NAtoms=   70 NActive=   70 NUniq=   70 SFac= 1.00D+00 NAtFMM=   60 NAOKFM=T Big=T
 Integral buffers will be    131072 words long.
 Raffenetti 2 integral format.
 Two-electron integral symmetry is turned off.
 Nuclear repulsion after empirical dispersion term =     4042.2966229922 Hartrees.
 One-electron integrals computed using PRISM.
 NBasis=   582 RedAO= T EigKep=  3.65D-04  NBF=   582
 NBsUse=   582 1.00D-06 EigRej= -1.00D+00 NBFU=   582
 Initial guess from the checkpoint file:  "conf-879.chk"
 B after Tr=     0.000000    0.000000    0.000000
         Rot=    1.000000    0.000000    0.000000    0.000000 Ang=   0.00 deg.
 Requested convergence on RMS density matrix=1.00D-08 within 128 cycles.
 Requested convergence on MAX density matrix=1.00D-06.
 Requested convergence on             energy=1.00D-06.
 No special actions if energy rises.
 SCF Done:  E(RB3LYP) =  -1582.19678504     A.U. after    3 cycles
            NFock=  3  Conv=0.98D-09     -V/T= 2.0095

 **********************************************************************

            Population analysis using the SCF Density.

 **********************************************************************

 Alpha  occ. eigenvalues --  -19.32918 -19.27963 -19.25820 -19.21341 -14.59755
 Alpha  occ. eigenvalues --  -14.50420 -14.50091 -14.46264 -14.43681 -14.41223
 Alpha  occ. eigenvalues --  -14.36418 -10.45588 -10.43604 -10.40871 -10.39389
 Alpha  occ. eigenvalues --  -10.35563 -10.35559 -10.34987 -10.34939 -10.34692
 Alpha  occ. eigenvalues --  -10.33639 -10.31534 -10.31421 -10.30709 -10.30658
 Alpha  occ. eigenvalues --  -10.30164 -10.30150 -10.29555 -10.29493 -10.29121
 Alpha  occ. eigenvalues --  -10.28567 -10.27414 -10.26151 -10.24446  -1.24044
 Alpha  occ. eigenvalues --   -1.18749  -1.15103  -1.14074  -1.13527  -1.10112
 Alpha  occ. eigenvalues --   -1.06786  -1.05370  -1.02502  -0.96975  -0.95741
 Alpha  occ. eigenvalues --   -0.94751  -0.91797  -0.91153  -0.90105  -0.89417
 Alpha  occ. eigenvalues --   -0.85274  -0.84978  -0.84384  -0.83339  -0.80987
 Alpha  occ. eigenvalues --   -0.80335  -0.78940  -0.75047  -0.74410  -0.74097
 Alpha  occ. eigenvalues --   -0.73900  -0.72273  -0.71925  -0.71136  -0.69669
 Alpha  occ. eigenvalues --   -0.68829  -0.67244  -0.66537  -0.66407  -0.65867
 Alpha  occ. eigenvalues --   -0.65043  -0.63198  -0.62712  -0.62260  -0.62051
 Alpha  occ. eigenvalues --   -0.61381  -0.60542  -0.59457  -0.59065  -0.58598
 Alpha  occ. eigenvalues --   -0.57524  -0.57298  -0.56701  -0.56437  -0.55875
 Alpha  occ. eigenvalues --   -0.55294  -0.55075  -0.54749  -0.54340  -0.53829
 Alpha  occ. eigenvalues --   -0.53768  -0.53326  -0.52970  -0.52602  -0.52120
 Alpha  occ. eigenvalues --   -0.50669  -0.50332  -0.50272  -0.50006  -0.49579
 Alpha  occ. eigenvalues --   -0.49049  -0.48551  -0.47028  -0.46977  -0.46667
 Alpha  occ. eigenvalues --   -0.46467  -0.45855  -0.45342  -0.45034  -0.44840
 Alpha  occ. eigenvalues --   -0.44391  -0.44254  -0.43581  -0.42891  -0.42122
 Alpha  occ. eigenvalues --   -0.41017  -0.40853  -0.40006  -0.39037  -0.38466
 Alpha  occ. eigenvalues --   -0.35704  -0.34834  -0.34322  -0.33928  -0.33261
 Alpha  occ. eigenvalues --   -0.32515  -0.31221
 Alpha virt. eigenvalues --   -0.14045  -0.13241  -0.12100  -0.10274  -0.09328
 Alpha virt. eigenvalues --   -0.08541  -0.06718  -0.06286  -0.05284  -0.04120
 Alpha virt. eigenvalues --   -0.03317  -0.02892  -0.02807  -0.01487  -0.01003
 Alpha virt. eigenvalues --   -0.00143   0.00334   0.00682   0.01345   0.01578
 Alpha virt. eigenvalues --    0.01897   0.02487   0.02781   0.03288   0.03816
 Alpha virt. eigenvalues --    0.04037   0.04401   0.04422   0.05029   0.05527
 Alpha virt. eigenvalues --    0.06195   0.06272   0.06615   0.06876   0.07164
 Alpha virt. eigenvalues --    0.07677   0.07906   0.08536   0.08712   0.08842
 Alpha virt. eigenvalues --    0.09271   0.09617   0.09745   0.10098   0.10279
 Alpha virt. eigenvalues --    0.10623   0.10927   0.11339   0.11862   0.12404
 Alpha virt. eigenvalues --    0.13022   0.13682   0.14233   0.14381   0.14781
 Alpha virt. eigenvalues --    0.14977   0.15660   0.16317   0.16545   0.17141
 Alpha virt. eigenvalues --    0.17584   0.19222   0.19947   0.20355   0.20771
 Alpha virt. eigenvalues --    0.20990   0.22748   0.23156   0.23916   0.25056
 Alpha virt. eigenvalues --    0.25630   0.27347   0.29095   0.29682   0.31296
 Alpha virt. eigenvalues --    0.32334   0.34394   0.35263   0.35678   0.37823
 Alpha virt. eigenvalues --    0.38270   0.39195   0.39646   0.40507   0.41448
 Alpha virt. eigenvalues --    0.42030   0.42312   0.43251   0.43474   0.43585
 Alpha virt. eigenvalues --    0.43623   0.44118   0.44587   0.44823   0.45645
 Alpha virt. eigenvalues --    0.46412   0.46815   0.47285   0.47640   0.48029
 Alpha virt. eigenvalues --    0.48332   0.48970   0.49396   0.49834   0.50323
 Alpha virt. eigenvalues --    0.50622   0.50998   0.51439   0.51568   0.51989
 Alpha virt. eigenvalues --    0.52541   0.52907   0.53235   0.53565   0.54480
 Alpha virt. eigenvalues --    0.54908   0.55595   0.55885   0.56495   0.56967
 Alpha virt. eigenvalues --    0.57035   0.57710   0.58640   0.58983   0.60254
 Alpha virt. eigenvalues --    0.60668   0.61260   0.62239   0.62692   0.63247
 Alpha virt. eigenvalues --    0.63715   0.64981   0.65178   0.65434   0.65758
 Alpha virt. eigenvalues --    0.66435   0.66791   0.66987   0.67763   0.68111
 Alpha virt. eigenvalues --    0.68758   0.69206   0.70106   0.70795   0.71037
 Alpha virt. eigenvalues --    0.71854   0.72293   0.72816   0.73219   0.73660
 Alpha virt. eigenvalues --    0.73927   0.74281   0.74540   0.75185   0.75414
 Alpha virt. eigenvalues --    0.75812   0.76122   0.76553   0.76619   0.77122
 Alpha virt. eigenvalues --    0.77316   0.78248   0.78327   0.78845   0.79102
 Alpha virt. eigenvalues --    0.79763   0.80532   0.80915   0.81735   0.82131
 Alpha virt. eigenvalues --    0.82438   0.82616   0.83296   0.83434   0.83619
 Alpha virt. eigenvalues --    0.83803   0.83940   0.84295   0.84686   0.85221
 Alpha virt. eigenvalues --    0.85625   0.86178   0.86400   0.87008   0.87689
 Alpha virt. eigenvalues --    0.88462   0.88839   0.89228   0.89724   0.90415
 Alpha virt. eigenvalues --    0.91030   0.91897   0.92043   0.92575   0.93943
 Alpha virt. eigenvalues --    0.94223   0.94979   0.95641   0.95857   0.96572
 Alpha virt. eigenvalues --    0.97203   0.98502   0.99296   1.00667   1.01047
 Alpha virt. eigenvalues --    1.01981   1.02940   1.03034   1.04399   1.05311
 Alpha virt. eigenvalues --    1.06965   1.07729   1.08508   1.09536   1.10580
 Alpha virt. eigenvalues --    1.11839   1.12932   1.13254   1.13645   1.14731
 Alpha virt. eigenvalues --    1.15605   1.16359   1.17258   1.18629   1.20807
 Alpha virt. eigenvalues --    1.22093   1.23026   1.23250   1.23858   1.25285
 Alpha virt. eigenvalues --    1.25862   1.26711   1.27159   1.28105   1.29518
 Alpha virt. eigenvalues --    1.29779   1.30766   1.31251   1.32298   1.32693
 Alpha virt. eigenvalues --    1.32945   1.33819   1.34832   1.35165   1.36691
 Alpha virt. eigenvalues --    1.37381   1.38160   1.39398   1.39822   1.40737
 Alpha virt. eigenvalues --    1.41558   1.41736   1.42697   1.44317   1.45844
 Alpha virt. eigenvalues --    1.46599   1.47653   1.48810   1.49518   1.51041
 Alpha virt. eigenvalues --    1.51253   1.52354   1.53574   1.56034   1.56503
 Alpha virt. eigenvalues --    1.57561   1.58731   1.59267   1.60229   1.61348
 Alpha virt. eigenvalues --    1.62359   1.63228   1.63560   1.64249   1.64689
 Alpha virt. eigenvalues --    1.65930   1.66769   1.67705   1.67809   1.68298
 Alpha virt. eigenvalues --    1.69345   1.70062   1.70784   1.71460   1.71944
 Alpha virt. eigenvalues --    1.72512   1.73020   1.73875   1.74343   1.75448
 Alpha virt. eigenvalues --    1.75789   1.76945   1.77008   1.78381   1.79113
 Alpha virt. eigenvalues --    1.79708   1.80314   1.81031   1.81680   1.82490
 Alpha virt. eigenvalues --    1.82854   1.83308   1.84031   1.84535   1.85731
 Alpha virt. eigenvalues --    1.85985   1.86410   1.86754   1.87279   1.88539
 Alpha virt. eigenvalues --    1.89131   1.89550   1.90454   1.91010   1.91784
 Alpha virt. eigenvalues --    1.92506   1.92711   1.94040   1.94225   1.95417
 Alpha virt. eigenvalues --    1.95528   1.96191   1.97189   1.99133   2.00155
 Alpha virt. eigenvalues --    2.00539   2.00784   2.01795   2.02847   2.03144
 Alpha virt. eigenvalues --    2.03996   2.04549   2.05491   2.06509   2.06898
 Alpha virt. eigenvalues --    2.07970   2.09429   2.11063   2.12195   2.13002
 Alpha virt. eigenvalues --    2.14481   2.14657   2.15527   2.15723   2.16216
 Alpha virt. eigenvalues --    2.17404   2.19850   2.20477   2.20758   2.21156
 Alpha virt. eigenvalues --    2.21390   2.22835   2.23144   2.23467   2.24220
 Alpha virt. eigenvalues --    2.25000   2.25563   2.27399   2.27893   2.28813
 Alpha virt. eigenvalues --    2.30433   2.30816   2.32256   2.33334   2.34161
 Alpha virt. eigenvalues --    2.34845   2.36163   2.37067   2.38021   2.38764
 Alpha virt. eigenvalues --    2.40106   2.40585   2.41675   2.42026   2.43652
 Alpha virt. eigenvalues --    2.43713   2.45348   2.46735   2.47047   2.48826
 Alpha virt. eigenvalues --    2.49604   2.50566   2.52330   2.52744   2.53297
 Alpha virt. eigenvalues --    2.54654   2.55372   2.55722   2.56727   2.57067
 Alpha virt. eigenvalues --    2.57776   2.59342   2.60221   2.60468   2.62471
 Alpha virt. eigenvalues --    2.63354   2.64745   2.65536   2.67485   2.68860
 Alpha virt. eigenvalues --    2.70694   2.71184   2.73224   2.74678   2.75811
 Alpha virt. eigenvalues --    2.79481   2.81689   2.84405   2.87613   2.88367
 Alpha virt. eigenvalues --    2.91039   2.93469   2.94081   2.96146   2.98130
 Alpha virt. eigenvalues --    2.98524   3.00286   3.05806   3.07290   3.13092
 Alpha virt. eigenvalues --    3.32496   3.69315   3.76133   3.79343   3.83067
 Alpha virt. eigenvalues --    3.87786   3.92322   3.92764   3.96697   3.99259
 Alpha virt. eigenvalues --    4.01361   4.02129   4.05326   4.07528   4.10197
 Alpha virt. eigenvalues --    4.11949   4.13081   4.17712   4.18230   4.21639
 Alpha virt. eigenvalues --    4.23665   4.26458   4.30393   4.32271   4.34082
 Alpha virt. eigenvalues --    4.35217   4.38241   4.43132   4.44888   4.45371
 Alpha virt. eigenvalues --    4.50243   4.54754   4.59094   4.63839   4.68548
          Condensed to atoms (all electrons):
 Mulliken charges:
               1
     1  N   -0.763199
     2  C   -0.120792
     3  C    0.664919
     4  O   -0.535544
     5  C   -0.411617
     6  C    0.066254
     7  C   -0.013856
     8  C    0.110379
     9  C    0.308779
    10  C   -0.236370
    11  N   -0.677681
    12  C   -0.163206
    13  C   -0.132215
    14  C   -0.151555
    15  H    0.415575
    16  H    0.229162
    17  H    0.196433
    18  H    0.187711
    19  H    0.175274
    20  H    0.350239
    21  H    0.093976
    22  H    0.154866
    23  H    0.151798
    24  H    0.161576
    25  H    0.458421
    26  H    0.406101
    27  N   -0.618863
    28  C   -0.059697
    29  C    0.618690
    30  O   -0.471455
    31  C   -0.060883
    32  C   -0.269146
    33  C   -0.476891
    34  C   -0.454817
    35  H    0.350909
    36  H    0.166854
    37  H    0.172571
    38  H    0.126217
    39  H    0.166051
    40  H    0.126445
    41  H    0.131026
    42  H    0.184433
    43  H    0.164613
    44  H    0.162095
    45  H    0.148096
    46  N   -0.616813
    47  C   -0.036212
    48  C    0.665275
    49  O   -0.533781
    50  C   -0.291255
    51  C   -0.300299
    52  C   -0.143797
    53  N   -0.630890
    54  C    0.560514
    55  N   -0.616691
    56  N   -0.755164
    57  O   -0.548272
    58  H    0.415547
    59  H    0.354436
    60  H    0.211973
    61  H    0.167207
    62  H    0.149892
    63  H    0.175989
    64  H    0.138813
    65  H    0.165734
    66  H    0.157703
    67  H    0.331650
    68  H    0.286148
    69  H    0.315638
    70  H    0.344977
 Sum of Mulliken charges =   1.00000
 Mulliken charges with hydrogens summed into heavy atoms:
               1
     1  N    0.516898
     2  C    0.108370
     3  C    0.664919
     4  O   -0.535544
     5  C   -0.027473
     6  C    0.066254
     7  C    0.161418
     8  C    0.110379
     9  C    0.308779
    10  C   -0.142394
    11  N   -0.327442
    12  C   -0.008340
    13  C    0.019584
    14  C    0.010020
    27  N   -0.267953
    28  C    0.107157
    29  C    0.618690
    30  O   -0.471455
    31  C    0.111688
    32  C    0.023121
    33  C   -0.034987
    34  C    0.019987
    46  N   -0.262377
    47  C    0.175762
    48  C    0.665275
    49  O   -0.533781
    50  C    0.025845
    51  C    0.014502
    52  C    0.179640
    53  N   -0.299239
    54  C    0.560514
    55  N   -0.330543
    56  N   -0.094549
    57  O   -0.132726
 Electronic spatial extent (au):  <R**2>=        8525041.2716
 Charge=              1.0000 electrons
 Dipole moment (field-independent basis, Debye):
    X=           -459.3671    Y=            -63.6909    Z=             13.8513  Tot=            463.9683
 Quadrupole moment (field-independent basis, Debye-Ang):
   XX=          43768.7961   YY=            657.1178   ZZ=           -151.3171
   XY=           6083.7269   XZ=          -1346.1552   YZ=           -170.1955
 Traceless Quadrupole moment (field-independent basis, Debye-Ang):
   XX=          29010.5972   YY=         -14101.0812   ZZ=         -14909.5160
   XY=           6083.7269   XZ=          -1346.1552   YZ=           -170.1955
 Octapole moment (field-independent basis, Debye-Ang**2):
  XXX=       -4154581.5176  YYY=          -3071.9607  ZZZ=          -2654.7575  XYY=         -62553.8732
  XXY=        -578826.7357  XXZ=         129920.9992  XZZ=          14322.9235  YZZ=           2307.6292
  YYZ=           1123.9838  XYZ=          16505.1035
 Hexadecapole moment (field-independent basis, Debye-Ang**3):
 XXXX=      392832910.7471 YYYY=         -95554.5403 ZZZZ=         -33448.4748 XXXY=       54850451.9951
 XXXZ=      -12455411.9811 YYYX=         284713.9981 YYYZ=          15772.9964 ZZZX=         252100.9534
 ZZZY=          38131.4424 XXYY=        5920908.8136 XXZZ=       -1361859.3795 YYZZ=         -42190.3384
 XXYZ=       -1588399.5605 YYXZ=        -109446.5362 ZZXY=        -219381.8527
 N-N= 4.042296622992D+03 E-N=-1.173680974800D+04  KE= 1.567341436352D+03
 Unable to Open any file for archive entry.
 1\1\GINC-LAC-315\SP\RB3LYP\6-31G(d)\C23H36N7O4(1+)\KENGMITH\24-May-202
 2\0\\# B3LYP/6-31G* empiricaldispersion=gd3 guess=read geom=check nosy
 mm integral(ultrafinegrid)\\Candidate Structure: Conf:879 Charge calc 
 in gas phase\\1,1\N,0,-93.4407973089,-13.6805825833,2.4087965444\C,0,-
 93.905262808,-12.3413666177,2.9451658869\C,0,-93.8970827523,-12.595437
 9455,4.4766540577\O,0,-92.9209296441,-13.2060008442,4.9159444369\C,0,-
 95.1360078737,-11.7953857304,2.1967302686\C,0,-96.4161095923,-12.57153
 11424,2.2885591455\C,0,-97.5370607272,-12.1937024159,2.9947482709\C,0,
 -96.7392902322,-13.8198717464,1.6404235432\C,0,-98.0644632768,-14.1556
 40966,2.0303822001\C,0,-96.0673400187,-14.6787169419,0.7497240862\N,0,
 -98.5187159913,-13.1475478155,2.8577282903\C,0,-98.700298755,-15.32731
 30573,1.6072634271\C,0,-96.6929757103,-15.8415881824,0.3219665381\C,0,
 -97.9936030828,-16.1699130405,0.7585207096\H,0,-92.61620138,-13.927911
 7578,2.9796641376\H,0,-93.0677664271,-11.6576845334,2.7667856321\H,0,-
 95.2868144494,-10.7743820378,2.5692054522\H,0,-94.8407666938,-11.67025
 9874,1.1446176748\H,0,-97.7268233258,-11.2868697803,3.5557592093\H,0,-
 99.4555241683,-13.0748490781,3.2255369469\H,0,-95.0885675811,-14.42205
 66465,0.3492379255\H,0,-99.7113920548,-15.5650944069,1.924682863\H,0,-
 96.1836751783,-16.502960508,-0.3722673117\H,0,-98.4581890396,-17.08577
 28335,0.4068248167\H,0,-94.1542895747,-14.4116637289,2.6115060644\H,0,
 -93.2073969571,-13.6590785438,1.4136699892\N,0,-94.9368233664,-12.1496
 697907,5.1887588573\C,0,-95.0469735614,-12.1067213028,6.658027201\C,0,
 -94.2364073807,-13.2395120575,7.3409533581\O,0,-93.2759031258,-12.9717
 672444,8.0403199109\C,0,-94.6624972848,-10.7193595968,7.2287923576\C,0
 ,-95.1607234472,-10.603471091,8.6865081873\C,0,-95.228952525,-9.587221
 6927,6.3580360942\C,0,-94.5289960666,-9.4416887688,9.460698387\H,0,-95
 .7086218987,-11.7461769421,4.6785560024\H,0,-96.1067929621,-12.2807150
 435,6.8728974607\H,0,-93.5681430477,-10.6655249055,7.2290472434\H,0,-9
 6.2562353581,-10.4969360108,8.6779858827\H,0,-94.9351847884,-11.531387
 6036,9.2203661906\H,0,-94.7852147562,-9.5700041298,5.3562419241\H,0,-9
 6.320494485,-9.6721038164,6.2528057272\H,0,-95.0243308426,-8.614720997
 7,6.8122579132\H,0,-93.4391442492,-9.5502038437,9.4962746299\H,0,-94.8
 963096723,-9.4232937465,10.4918734424\H,0,-94.7587451533,-8.4677701468
 ,9.0150353659\N,0,-94.6879210973,-14.5458622426,7.2875349429\C,0,-95.5
 568595776,-15.3180264743,6.3871243544\C,0,-94.7762169289,-15.700717626
 4,5.1281282191\O,0,-94.9904274782,-15.2874808014,3.9973001852\C,0,-96.
 9293465351,-14.7073003707,6.0795870671\C,0,-97.8805656231,-15.60229599
 97,5.2568242358\C,0,-97.9682765363,-17.0682024942,5.6905748784\N,0,-96
 .772598641,-17.7831155187,5.2566264997\C,0,-96.4668531562,-19.05021562
 54,5.7957414466\N,0,-97.1190693691,-19.7254004437,6.6631676113\N,0,-95
 .2727306768,-19.5402571412,5.2561156522\O,0,-93.7538903631,-16.5221816
 999,5.4166271275\H,0,-93.2411351471,-16.6781370894,4.6020460288\H,0,-9
 4.0385120952,-15.1311464768,7.8038611162\H,0,-95.7180316896,-16.258756
 6813,6.9164448455\H,0,-97.3850896119,-14.4674052682,7.0473644954\H,0,-
 96.809740281,-13.7753543888,5.5240748607\H,0,-97.5866809411,-15.566338
 5893,4.2040806195\H,0,-98.8809554216,-15.1564818308,5.3118955403\H,0,-
 98.0249563778,-17.1399291479,6.78368757\H,0,-98.8893301355,-17.5232317
 206,5.2941194505\H,0,-96.6179073893,-17.745635593,4.2531549943\H,0,-98
 .0432191821,-19.3354035774,6.8479468749\H,0,-94.5083313177,-18.8753570
 026,5.3246271201\H,0,-95.0302400322,-20.4290537563,5.682111782\\Versio
 n=ES64L-G16RevC.01\HF=-1582.196785\RMSD=9.774e-10\Dipole=0.1118686,1.7
 677223,-3.5778557\Quadrupole=21568.6679512,-10483.8082258,-11084.85972
 54,4523.1018165,-1000.8334282,-126.5361887\PG=C01 [X(C23H36N7O4)]\\@
 The archive entry for this job was punched.


 IN-LAWS ARE LIKE SEEDS. YOU DON'T NEED THEM
 BUT THEY COME WITH THE TOMATO.
 Job cpu time:       0 days  0 hours  5 minutes  0.1 seconds.
 Elapsed time:       0 days  0 hours  1 minutes 16.4 seconds.
 File lengths (MBytes):  RWF=   4776 Int=      0 D2E=      0 Chk=     40 Scr=     16
 Normal termination of Gaussian 16 at Tue May 24 23:13:24 2022.
