 Entering Gaussian System, Link 0=/opt/software/Gaussian/g16-AVX-C.01/g16/g16
 Input=charge-conf-696.com
 Output=charge-conf-696.log
 Initial command:
 /opt/software/Gaussian/g16-AVX-C.01/g16/l1.exe "/mnt/gs18/scratch/users/kengmith/Gau-16348.inp" -scrdir="/mnt/gs18/scratch/users/kengmith/"
 Entering Link 1 = /opt/software/Gaussian/g16-AVX-C.01/g16/l1.exe PID=     16375.
  
 Copyright (c) 1988-2019, Gaussian, Inc.  All Rights Reserved.
  
 This is part of the Gaussian(R) 16 program.  It is based on
 the Gaussian(R) 09 system (copyright 2009, Gaussian, Inc.),
 the Gaussian(R) 03 system (copyright 2003, Gaussian, Inc.),
 the Gaussian(R) 98 system (copyright 1998, Gaussian, Inc.),
 the Gaussian(R) 94 system (copyright 1995, Gaussian, Inc.),
 the Gaussian 92(TM) system (copyright 1992, Gaussian, Inc.),
 the Gaussian 90(TM) system (copyright 1990, Gaussian, Inc.),
 the Gaussian 88(TM) system (copyright 1988, Gaussian, Inc.),
 the Gaussian 86(TM) system (copyright 1986, Carnegie Mellon
 University), and the Gaussian 82(TM) system (copyright 1983,
 Carnegie Mellon University). Gaussian is a federally registered
 trademark of Gaussian, Inc.
  
 This software contains proprietary and confidential information,
 including trade secrets, belonging to Gaussian, Inc.
  
 This software is provided under written license and may be
 used, copied, transmitted, or stored only in accord with that
 written license.
  
 The following legend is applicable only to US Government
 contracts under FAR:
  
                    RESTRICTED RIGHTS LEGEND
  
 Use, reproduction and disclosure by the US Government is
 subject to restrictions as set forth in subparagraphs (a)
 and (c) of the Commercial Computer Software - Restricted
 Rights clause in FAR 52.227-19.
  
 Gaussian, Inc.
 340 Quinnipiac St., Bldg. 40, Wallingford CT 06492
  
  
 ---------------------------------------------------------------
 Warning -- This program may not be used in any manner that
 competes with the business of Gaussian, Inc. or will provide
 assistance to any competitor of Gaussian, Inc.  The licensee
 of this program is prohibited from giving any competitor of
 Gaussian, Inc. access to this program.  By using this program,
 the user acknowledges that Gaussian, Inc. is engaged in the
 business of creating and licensing software in the field of
 computational chemistry and represents and warrants to the
 licensee that it is not a competitor of Gaussian, Inc. and that
 it will not use this program in any manner prohibited above.
 ---------------------------------------------------------------
  

 Cite this work as:
 Gaussian 16, Revision C.01,
 M. J. Frisch, G. W. Trucks, H. B. Schlegel, G. E. Scuseria, 
 M. A. Robb, J. R. Cheeseman, G. Scalmani, V. Barone, 
 G. A. Petersson, H. Nakatsuji, X. Li, M. Caricato, A. V. Marenich, 
 J. Bloino, B. G. Janesko, R. Gomperts, B. Mennucci, H. P. Hratchian, 
 J. V. Ortiz, A. F. Izmaylov, J. L. Sonnenberg, D. Williams-Young, 
 F. Ding, F. Lipparini, F. Egidi, J. Goings, B. Peng, A. Petrone, 
 T. Henderson, D. Ranasinghe, V. G. Zakrzewski, J. Gao, N. Rega, 
 G. Zheng, W. Liang, M. Hada, M. Ehara, K. Toyota, R. Fukuda, 
 J. Hasegawa, M. Ishida, T. Nakajima, Y. Honda, O. Kitao, H. Nakai, 
 T. Vreven, K. Throssell, J. A. Montgomery, Jr., J. E. Peralta, 
 F. Ogliaro, M. J. Bearpark, J. J. Heyd, E. N. Brothers, K. N. Kudin, 
 V. N. Staroverov, T. A. Keith, R. Kobayashi, J. Normand, 
 K. Raghavachari, A. P. Rendell, J. C. Burant, S. S. Iyengar, 
 J. Tomasi, M. Cossi, J. M. Millam, M. Klene, C. Adamo, R. Cammi, 
 J. W. Ochterski, R. L. Martin, K. Morokuma, O. Farkas, 
 J. B. Foresman, and D. J. Fox, Gaussian, Inc., Wallingford CT, 2019.
 
 ******************************************
 Gaussian 16:  ES64L-G16RevC.01  3-Jul-2019
                24-May-2022 
 ******************************************
 %mem=8gb
 %nproc=4
 Will use up to    4 processors via shared memory.
 %chk=conf-696.chk
 ----------------------------------------------------------------------
 # B3LYP/6-31G* empiricaldispersion=gd3 guess=read geom=check nosymm in
 tegral(ultrafinegrid)
 ----------------------------------------------------------------------
 1/29=2,38=1,172=1/1;
 2/12=2,15=1,40=1/2;
 3/5=1,6=6,7=1,11=2,14=-4,25=1,30=1,74=-5,75=-5,116=-2,124=31/1,2,3;
 4/5=1/1;
 5/5=2,38=6/2;
 6/7=2,8=2,9=2,10=2,28=1/1;
 99/5=1,9=1/99;
 ------------------------------------------------------
 Candidate Structure: Conf:696 Charge calc in gas phase
 ------------------------------------------------------
 Structure from the checkpoint file:  "conf-696.chk"
 Charge =  1 Multiplicity = 1
 Redundant internal coordinates found in file.  (old form).
 N,0,-96.6595636481,-13.2894606615,6.7634945568
 C,0,-95.6150954033,-14.3732807889,6.6379999079
 C,0,-94.5562510199,-13.7344224385,5.7140515892
 O,0,-94.306017229,-12.5427322063,5.88075898
 C,0,-96.2829932984,-15.6966374217,6.2254297794
 C,0,-97.4816991423,-15.9948051145,7.0760291035
 C,0,-98.7914622854,-16.0341487542,6.6537032821
 C,0,-97.4984116127,-16.2049146495,8.5048990744
 C,0,-98.8594721697,-16.3703785367,8.8806226502
 C,0,-96.5029491643,-16.2782231572,9.4979260812
 N,0,-99.6190367968,-16.2592885304,7.7305406154
 C,0,-99.247496059,-16.596828314,10.2052632413
 C,0,-96.884276444,-16.5003170318,10.8140491114
 C,0,-98.2429141341,-16.6556677639,11.1631026561
 H,0,-97.1145300835,-13.1879884257,5.8272712274
 H,0,-95.1695924888,-14.469049476,7.6327564681
 H,0,-96.571020392,-15.6365383644,5.1719450293
 H,0,-95.5278052898,-16.4882490215,6.3288371505
 H,0,-99.1940756245,-15.926824211,5.6554561303
 H,0,-100.6187340648,-16.3860556573,7.6795880325
 H,0,-95.4499072454,-16.1885945091,9.2415548404
 H,0,-100.2919202926,-16.7248592184,10.4743313656
 H,0,-96.1270813373,-16.5645478571,11.589527785
 H,0,-98.5078297279,-16.8311093791,12.2012280758
 H,0,-97.3507631948,-13.5254570476,7.4822060919
 H,0,-96.1675325072,-12.407369693,6.9643561163
 N,0,-94.0103401279,-14.516598832,4.7665309706
 C,0,-92.9360990273,-14.0941196841,3.8569461827
 C,0,-93.1334321449,-12.6266708708,3.3977070406
 O,0,-92.2628395094,-11.7965681282,3.5879240774
 C,0,-91.5194884517,-14.3115400884,4.4458188409
 C,0,-90.4729922059,-14.2719693827,3.310110177
 C,0,-91.4427868428,-15.6338454629,5.2234478924
 C,0,-89.0349229233,-14.0911689405,3.8069547212
 H,0,-94.2518152096,-15.4966960429,4.7569156458
 H,0,-93.038103742,-14.7339316772,2.9725168113
 H,0,-91.3256573861,-13.4777070943,5.1291851164
 H,0,-90.553360364,-15.2009714704,2.7248852137
 H,0,-90.70644936,-13.4459988146,2.6319254646
 H,0,-91.7198645847,-16.488199515,4.5894895784
 H,0,-90.4239395966,-15.8108880805,5.5771168939
 H,0,-92.0928274179,-15.6353133739,6.1050139596
 H,0,-88.9372351332,-13.1547072,4.3676513739
 H,0,-88.3382192101,-14.0496623793,2.9632518433
 H,0,-88.7119339147,-14.9111816231,4.457527476
 N,0,-94.2592960603,-12.240362028,2.6883188056
 C,0,-95.4915672157,-12.8384068087,2.1615123895
 C,0,-96.6331748754,-12.6500464555,3.1848103291
 O,0,-96.8234467531,-13.4619970832,4.0887297658
 C,0,-95.4082239126,-14.2911285141,1.6768710751
 C,0,-96.7021410065,-14.8314533738,1.0326656089
 C,0,-97.2213427739,-14.1208440374,-0.2324065821
 N,0,-97.8264656967,-12.8161088493,0.029533673
 C,0,-97.2150684544,-11.6061923978,-0.2300627089
 N,0,-96.2214988757,-11.3182027851,-0.9792183114
 N,0,-97.7367128644,-10.5531622541,0.5911349962
 O,0,-97.3922150276,-11.573182604,3.1071023015
 H,0,-97.3303988647,-11.0712852355,2.2305224316
 H,0,-94.1673867413,-11.2547360839,2.4667088221
 H,0,-95.7038802001,-12.2188161893,1.2932321456
 H,0,-94.577678735,-14.3572590707,0.9642202657
 H,0,-95.1754165501,-14.9399708774,2.5241112367
 H,0,-97.5030338368,-14.8484323769,1.7852028327
 H,0,-96.5225030007,-15.8806154364,0.7673972654
 H,0,-96.4102822913,-13.9870152911,-0.9538806296
 H,0,-97.9655434966,-14.7599584413,-0.7203862277
 H,0,-98.5304039207,-12.8130958374,0.7569822235
 H,0,-95.8515041153,-12.1224756535,-1.4840303832
 H,0,-98.7545838433,-10.4885723816,0.5563121836
 H,0,-97.3426259804,-9.6728629541,0.2622059799
 Recover connectivity data from disk.
                           ----------------------------
                           !    Current Parameters    !
                           ! (Angstroms and Degrees)  !
 --------------------------                            --------------------------
 ! Name  Definition              Value                                          !
 --------------------------------------------------------------------------------
 ! R1    R(1,2)                  1.5104                                         !
 ! R2    R(1,15)                 1.0459                                         !
 ! R3    R(1,25)                 1.0247                                         !
 ! R4    R(1,26)                 1.0298                                         !
 ! R5    R(2,3)                  1.5437                                         !
 ! R6    R(2,5)                  1.5387                                         !
 ! R7    R(2,16)                 1.0942                                         !
 ! R8    R(3,4)                  1.229                                          !
 ! R9    R(3,27)                 1.3445                                         !
 ! R10   R(5,6)                  1.4998                                         !
 ! R11   R(5,17)                 1.0938                                         !
 ! R12   R(5,18)                 1.0989                                         !
 ! R13   R(6,7)                  1.3767                                         !
 ! R14   R(6,8)                  1.4443                                         !
 ! R15   R(7,11)                 1.3766                                         !
 ! R16   R(7,19)                 1.0817                                         !
 ! R17   R(8,9)                  1.4216                                         !
 ! R18   R(8,10)                 1.408                                          !
 ! R19   R(9,11)                 1.3827                                         !
 ! R20   R(9,12)                 1.3988                                         !
 ! R21   R(10,13)                1.3881                                         !
 ! R22   R(10,21)                1.0875                                         !
 ! R23   R(11,20)                1.009                                          !
 ! R24   R(12,14)                1.3893                                         !
 ! R25   R(12,22)                1.0861                                         !
 ! R26   R(13,14)                1.4113                                         !
 ! R27   R(13,23)                1.0857                                         !
 ! R28   R(14,24)                1.0857                                         !
 ! R29   R(27,28)                1.4696                                         !
 ! R30   R(27,35)                1.0095                                         !
 ! R31   R(28,29)                1.5502                                         !
 ! R32   R(28,31)                1.5495                                         !
 ! R33   R(28,36)                1.0963                                         !
 ! R34   R(29,30)                1.2179                                         !
 ! R35   R(29,46)                1.3857                                         !
 ! R36   R(31,32)                1.5448                                         !
 ! R37   R(31,33)                1.5359                                         !
 ! R38   R(31,37)                1.0954                                         !
 ! R39   R(32,34)                1.5322                                         !
 ! R40   R(32,38)                1.1009                                         !
 ! R41   R(32,39)                1.0939                                         !
 ! R42   R(33,40)                1.0994                                         !
 ! R43   R(33,41)                1.0929                                         !
 ! R44   R(33,42)                1.0953                                         !
 ! R45   R(34,43)                1.0958                                         !
 ! R46   R(34,44)                1.095                                          !
 ! R47   R(34,45)                1.0954                                         !
 ! R48   R(46,47)                1.4675                                         !
 ! R49   R(46,59)                1.0144                                         !
 ! R50   R(47,48)                1.5446                                         !
 ! R51   R(47,50)                1.5337                                         !
 ! R52   R(47,60)                1.0876                                         !
 ! R53   R(48,49)                1.2299                                         !
 ! R54   R(48,57)                1.3198                                         !
 ! R55   R(50,51)                1.5431                                         !
 ! R56   R(50,61)                1.0964                                         !
 ! R57   R(50,62)                1.0923                                         !
 ! R58   R(51,52)                1.5411                                         !
 ! R59   R(51,63)                1.0991                                         !
 ! R60   R(51,64)                1.097                                          !
 ! R61   R(52,53)                1.4619                                         !
 ! R62   R(52,65)                1.0937                                         !
 ! R63   R(52,66)                1.0956                                         !
 ! R64   R(53,54)                1.3803                                         !
 ! R65   R(53,67)                1.0123                                         !
 ! R66   R(54,55)                1.2772                                         !
 ! R67   R(54,56)                1.4336                                         !
 ! R68   R(55,68)                1.0191                                         !
 ! R69   R(56,69)                1.0205                                         !
 ! R70   R(56,70)                1.019                                          !
 ! R71   R(57,58)                1.012                                          !
 ! A1    A(2,1,15)             107.2215                                         !
 ! A2    A(2,1,25)             111.0676                                         !
 ! A3    A(2,1,26)             107.4843                                         !
 ! A4    A(15,1,25)            110.9023                                         !
 ! A5    A(15,1,26)            107.418                                          !
 ! A6    A(25,1,26)            112.5044                                         !
 ! A7    A(1,2,3)              103.1256                                         !
 ! A8    A(1,2,5)              109.8318                                         !
 ! A9    A(1,2,16)             105.5946                                         !
 ! A10   A(3,2,5)              119.5502                                         !
 ! A11   A(3,2,16)             107.5236                                         !
 ! A12   A(5,2,16)             110.1959                                         !
 ! A13   A(2,3,4)              117.3706                                         !
 ! A14   A(2,3,27)             117.3587                                         !
 ! A15   A(4,3,27)             125.2408                                         !
 ! A16   A(2,5,6)              111.4598                                         !
 ! A17   A(2,5,17)             108.9833                                         !
 ! A18   A(2,5,18)             107.2183                                         !
 ! A19   A(6,5,17)             110.2859                                         !
 ! A20   A(6,5,18)             110.6509                                         !
 ! A21   A(17,5,18)            108.1296                                         !
 ! A22   A(5,6,7)              126.3049                                         !
 ! A23   A(5,6,8)              126.8162                                         !
 ! A24   A(7,6,8)              106.7568                                         !
 ! A25   A(6,7,11)             109.6718                                         !
 ! A26   A(6,7,19)             129.3716                                         !
 ! A27   A(11,7,19)            120.9532                                         !
 ! A28   A(6,8,9)              106.8263                                         !
 ! A29   A(6,8,10)             134.1968                                         !
 ! A30   A(9,8,10)             118.9751                                         !
 ! A31   A(8,9,11)             107.262                                          !
 ! A32   A(8,9,12)             122.3248                                         !
 ! A33   A(11,9,12)            130.413                                          !
 ! A34   A(8,10,13)            118.8688                                         !
 ! A35   A(8,10,21)            120.9342                                         !
 ! A36   A(13,10,21)           120.1789                                         !
 ! A37   A(7,11,9)             109.4825                                         !
 ! A38   A(7,11,20)            125.2162                                         !
 ! A39   A(9,11,20)            125.1814                                         !
 ! A40   A(9,12,14)            117.3345                                         !
 ! A41   A(9,12,22)            121.363                                          !
 ! A42   A(14,12,22)           121.3023                                         !
 ! A43   A(10,13,14)           121.1011                                         !
 ! A44   A(10,13,23)           119.6745                                         !
 ! A45   A(14,13,23)           119.2223                                         !
 ! A46   A(12,14,13)           121.3938                                         !
 ! A47   A(12,14,24)           119.3183                                         !
 ! A48   A(13,14,24)           119.2868                                         !
 ! A49   A(3,27,28)            124.4536                                         !
 ! A50   A(3,27,35)            118.3226                                         !
 ! A51   A(28,27,35)           116.6201                                         !
 ! A52   A(27,28,29)           111.249                                          !
 ! A53   A(27,28,31)           113.1243                                         !
 ! A54   A(27,28,36)           105.2785                                         !
 ! A55   A(29,28,31)           111.2101                                         !
 ! A56   A(29,28,36)           107.5536                                         !
 ! A57   A(31,28,36)           108.0449                                         !
 ! A58   A(28,29,30)           120.5268                                         !
 ! A59   A(28,29,46)           121.2644                                         !
 ! A60   A(30,29,46)           118.0839                                         !
 ! A61   A(28,31,32)           109.6539                                         !
 ! A62   A(28,31,33)           111.0312                                         !
 ! A63   A(28,31,37)           106.9818                                         !
 ! A64   A(32,31,33)           111.1265                                         !
 ! A65   A(32,31,37)           108.6189                                         !
 ! A66   A(33,31,37)           109.3089                                         !
 ! A67   A(31,32,34)           113.6052                                         !
 ! A68   A(31,32,38)           108.6467                                         !
 ! A69   A(31,32,39)           109.3015                                         !
 ! A70   A(34,32,38)           109.9056                                         !
 ! A71   A(34,32,39)           108.1944                                         !
 ! A72   A(38,32,39)           106.9787                                         !
 ! A73   A(31,33,40)           111.377                                          !
 ! A74   A(31,33,41)           110.4781                                         !
 ! A75   A(31,33,42)           112.2722                                         !
 ! A76   A(40,33,41)           107.1978                                         !
 ! A77   A(40,33,42)           108.2708                                         !
 ! A78   A(41,33,42)           107.0127                                         !
 ! A79   A(32,34,43)           110.5131                                         !
 ! A80   A(32,34,44)           110.5979                                         !
 ! A81   A(32,34,45)           112.3949                                         !
 ! A82   A(43,34,44)           107.7661                                         !
 ! A83   A(43,34,45)           108.0316                                         !
 ! A84   A(44,34,45)           107.3603                                         !
 ! A85   A(29,46,47)           138.8005                                         !
 ! A86   A(29,46,59)           108.0055                                         !
 ! A87   A(47,46,59)           113.1793                                         !
 ! A88   A(46,47,48)           109.4562                                         !
 ! A89   A(46,47,50)           116.988                                          !
 ! A90   A(46,47,60)           102.6118                                         !
 ! A91   A(48,47,50)           111.4084                                         !
 ! A92   A(48,47,60)           108.3695                                         !
 ! A93   A(50,47,60)           107.334                                          !
 ! A94   A(47,48,49)           121.3827                                         !
 ! A95   A(47,48,57)           119.0491                                         !
 ! A96   A(49,48,57)           119.5369                                         !
 ! A97   A(47,50,51)           114.7097                                         !
 ! A98   A(47,50,61)           107.6798                                         !
 ! A99   A(47,50,62)           109.2171                                         !
 ! A100  A(51,50,61)           110.0429                                         !
 ! A101  A(51,50,62)           107.1303                                         !
 ! A102  A(61,50,62)           107.8726                                         !
 ! A103  A(50,51,52)           117.629                                          !
 ! A104  A(50,51,63)           109.304                                          !
 ! A105  A(50,51,64)           107.3693                                         !
 ! A106  A(52,51,63)           108.8857                                         !
 ! A107  A(52,51,64)           107.3178                                         !
 ! A108  A(63,51,64)           105.6713                                         !
 ! A109  A(51,52,53)           113.8228                                         !
 ! A110  A(51,52,65)           110.3703                                         !
 ! A111  A(51,52,66)           108.9945                                         !
 ! A112  A(53,52,65)           108.4176                                         !
 ! A113  A(53,52,66)           108.6183                                         !
 ! A114  A(65,52,66)           106.3361                                         !
 ! A115  A(52,53,54)           124.4232                                         !
 ! A116  A(52,53,67)           114.7882                                         !
 ! A117  A(54,53,67)           116.141                                          !
 ! A118  A(53,54,55)           130.7339                                         !
 ! A119  A(53,54,56)           112.0217                                         !
 ! A120  A(55,54,56)           116.9621                                         !
 ! A121  A(54,55,68)           113.2671                                         !
 ! A122  A(54,56,69)           112.9457                                         !
 ! A123  A(54,56,70)           107.9934                                         !
 ! A124  A(69,56,70)           108.6651                                         !
 ! A125  A(48,57,58)           114.8687                                         !
 ! D1    D(15,1,2,3)            68.2438                                         !
 ! D2    D(15,1,2,5)           -60.2507                                         !
 ! D3    D(15,1,2,16)         -179.0459                                         !
 ! D4    D(25,1,2,3)          -170.4453                                         !
 ! D5    D(25,1,2,5)            61.0602                                         !
 ! D6    D(25,1,2,16)          -57.735                                          !
 ! D7    D(26,1,2,3)           -46.9834                                         !
 ! D8    D(26,1,2,5)          -175.4779                                         !
 ! D9    D(26,1,2,16)           65.7269                                         !
 ! D10   D(1,2,3,4)             39.1549                                         !
 ! D11   D(1,2,3,27)          -138.9654                                         !
 ! D12   D(5,2,3,4)            161.3392                                         !
 ! D13   D(5,2,3,27)           -16.7811                                         !
 ! D14   D(16,2,3,4)           -72.1358                                         !
 ! D15   D(16,2,3,27)          109.7439                                         !
 ! D16   D(1,2,5,6)            -48.3976                                         !
 ! D17   D(1,2,5,17)            73.5527                                         !
 ! D18   D(1,2,5,18)          -169.6323                                         !
 ! D19   D(3,2,5,6)           -167.2112                                         !
 ! D20   D(3,2,5,17)           -45.2609                                         !
 ! D21   D(3,2,5,18)            71.5541                                         !
 ! D22   D(16,2,5,6)            67.5253                                         !
 ! D23   D(16,2,5,17)         -170.5244                                         !
 ! D24   D(16,2,5,18)          -53.7094                                         !
 ! D25   D(2,3,27,28)         -176.2705                                         !
 ! D26   D(2,3,27,35)           -5.4986                                         !
 ! D27   D(4,3,27,28)            5.7734                                         !
 ! D28   D(4,3,27,35)          176.5453                                         !
 ! D29   D(2,5,6,7)            113.8425                                         !
 ! D30   D(2,5,6,8)            -61.601                                          !
 ! D31   D(17,5,6,7)            -7.3516                                         !
 ! D32   D(17,5,6,8)           177.2048                                         !
 ! D33   D(18,5,6,7)          -126.9445                                         !
 ! D34   D(18,5,6,8)            57.612                                          !
 ! D35   D(5,6,7,11)          -176.3622                                         !
 ! D36   D(5,6,7,19)             4.315                                          !
 ! D37   D(8,6,7,11)            -0.1705                                         !
 ! D38   D(8,6,7,19)          -179.4932                                         !
 ! D39   D(5,6,8,9)            176.3962                                         !
 ! D40   D(5,6,8,10)            -4.1134                                         !
 ! D41   D(7,6,8,9)              0.2298                                         !
 ! D42   D(7,6,8,10)           179.7202                                         !
 ! D43   D(6,7,11,9)             0.0438                                         !
 ! D44   D(6,7,11,20)         -176.1391                                         !
 ! D45   D(19,7,11,9)          179.4333                                         !
 ! D46   D(19,7,11,20)           3.2504                                         !
 ! D47   D(6,8,9,11)            -0.2043                                         !
 ! D48   D(6,8,9,12)           179.9329                                         !
 ! D49   D(10,8,9,11)         -179.7867                                         !
 ! D50   D(10,8,9,12)            0.3506                                         !
 ! D51   D(6,8,10,13)         -179.9003                                         !
 ! D52   D(6,8,10,21)           -1.448                                          !
 ! D53   D(9,8,10,13)           -0.4579                                         !
 ! D54   D(9,8,10,21)          177.9944                                         !
 ! D55   D(8,9,11,7)             0.1041                                         !
 ! D56   D(8,9,11,20)          176.2888                                         !
 ! D57   D(12,9,11,7)          179.9518                                         !
 ! D58   D(12,9,11,20)          -3.8636                                         !
 ! D59   D(8,9,12,14)            0.0416                                         !
 ! D60   D(8,9,12,22)         -179.7627                                         !
 ! D61   D(11,9,12,14)        -179.7862                                         !
 ! D62   D(11,9,12,22)           0.4095                                         !
 ! D63   D(8,10,13,14)           0.1904                                         !
 ! D64   D(8,10,13,23)         179.6704                                         !
 ! D65   D(21,10,13,14)       -178.2738                                         !
 ! D66   D(21,10,13,23)          1.2061                                         !
 ! D67   D(9,12,14,13)          -0.3225                                         !
 ! D68   D(9,12,14,24)        -179.9301                                         !
 ! D69   D(22,12,14,13)        179.4818                                         !
 ! D70   D(22,12,14,24)         -0.1258                                         !
 ! D71   D(10,13,14,12)          0.2126                                         !
 ! D72   D(10,13,14,24)        179.8203                                         !
 ! D73   D(23,13,14,12)       -179.2697                                         !
 ! D74   D(23,13,14,24)          0.338                                          !
 ! D75   D(3,27,28,29)         -38.8347                                         !
 ! D76   D(3,27,28,31)          87.1911                                         !
 ! D77   D(3,27,28,36)        -155.0457                                         !
 ! D78   D(35,27,28,29)        150.2507                                         !
 ! D79   D(35,27,28,31)        -83.7234                                         !
 ! D80   D(35,27,28,36)         34.0398                                         !
 ! D81   D(27,28,29,30)        123.0393                                         !
 ! D82   D(27,28,29,46)        -61.1009                                         !
 ! D83   D(31,28,29,30)         -4.0386                                         !
 ! D84   D(31,28,29,46)        171.8212                                         !
 ! D85   D(36,28,29,30)       -122.1546                                         !
 ! D86   D(36,28,29,46)         53.7052                                         !
 ! D87   D(27,28,31,32)        162.3781                                         !
 ! D88   D(27,28,31,33)         39.1921                                         !
 ! D89   D(27,28,31,37)        -80.0058                                         !
 ! D90   D(29,28,31,32)        -71.5753                                         !
 ! D91   D(29,28,31,33)        165.2387                                         !
 ! D92   D(29,28,31,37)         46.0408                                         !
 ! D93   D(36,28,31,32)         46.2437                                         !
 ! D94   D(36,28,31,33)        -76.9423                                         !
 ! D95   D(36,28,31,37)        163.8598                                         !
 ! D96   D(28,29,46,47)          0.2734                                         !
 ! D97   D(28,29,46,59)       -178.1568                                         !
 ! D98   D(30,29,46,47)        176.2313                                         !
 ! D99   D(30,29,46,59)         -2.1989                                         !
 ! D100  D(28,31,32,34)        164.1426                                         !
 ! D101  D(28,31,32,38)        -73.2003                                         !
 ! D102  D(28,31,32,39)         43.2057                                         !
 ! D103  D(33,31,32,34)        -72.7276                                         !
 ! D104  D(33,31,32,38)         49.9295                                         !
 ! D105  D(33,31,32,39)        166.3355                                         !
 ! D106  D(37,31,32,34)         47.5537                                         !
 ! D107  D(37,31,32,38)        170.2107                                         !
 ! D108  D(37,31,32,39)        -73.3833                                         !
 ! D109  D(28,31,33,40)         57.1598                                         !
 ! D110  D(28,31,33,41)        176.1798                                         !
 ! D111  D(28,31,33,42)        -64.45                                           !
 ! D112  D(32,31,33,40)        -65.1756                                         !
 ! D113  D(32,31,33,41)         53.8445                                         !
 ! D114  D(32,31,33,42)        173.2147                                         !
 ! D115  D(37,31,33,40)        174.9526                                         !
 ! D116  D(37,31,33,41)        -66.0274                                         !
 ! D117  D(37,31,33,42)         53.3429                                         !
 ! D118  D(31,32,34,43)        -59.6076                                         !
 ! D119  D(31,32,34,44)       -178.8598                                         !
 ! D120  D(31,32,34,45)         61.1649                                         !
 ! D121  D(38,32,34,43)        178.4316                                         !
 ! D122  D(38,32,34,44)         59.1794                                         !
 ! D123  D(38,32,34,45)        -60.796                                          !
 ! D124  D(39,32,34,43)         61.9487                                         !
 ! D125  D(39,32,34,44)        -57.3035                                         !
 ! D126  D(39,32,34,45)       -177.2788                                         !
 ! D127  D(29,46,47,48)         94.13                                           !
 ! D128  D(29,46,47,50)        -33.7731                                         !
 ! D129  D(29,46,47,60)       -150.9386                                         !
 ! D130  D(59,46,47,48)        -87.494                                          !
 ! D131  D(59,46,47,50)        144.6029                                         !
 ! D132  D(59,46,47,60)         27.4374                                         !
 ! D133  D(46,47,48,49)        -87.2698                                         !
 ! D134  D(46,47,48,57)         90.6826                                         !
 ! D135  D(50,47,48,49)         43.6844                                         !
 ! D136  D(50,47,48,57)       -138.3633                                         !
 ! D137  D(60,47,48,49)        161.5498                                         !
 ! D138  D(60,47,48,57)        -20.4978                                         !
 ! D139  D(46,47,50,51)       -175.4363                                         !
 ! D140  D(46,47,50,61)        -52.5725                                         !
 ! D141  D(46,47,50,62)         64.3144                                         !
 ! D142  D(48,47,50,51)         57.6109                                         !
 ! D143  D(48,47,50,61)       -179.5252                                         !
 ! D144  D(48,47,50,62)        -62.6383                                         !
 ! D145  D(60,47,50,51)        -60.877                                          !
 ! D146  D(60,47,50,61)         61.9868                                         !
 ! D147  D(60,47,50,62)        178.8737                                         !
 ! D148  D(47,48,57,58)         15.9237                                         !
 ! D149  D(49,48,57,58)       -166.0855                                         !
 ! D150  D(47,50,51,52)         61.0545                                         !
 ! D151  D(47,50,51,63)        -63.727                                          !
 ! D152  D(47,50,51,64)       -177.897                                          !
 ! D153  D(61,50,51,52)        -60.5283                                         !
 ! D154  D(61,50,51,63)        174.6901                                         !
 ! D155  D(61,50,51,64)         60.5201                                         !
 ! D156  D(62,50,51,52)       -177.548                                          !
 ! D157  D(62,50,51,63)         57.6705                                         !
 ! D158  D(62,50,51,64)        -56.4996                                         !
 ! D159  D(50,51,52,53)        -73.6955                                         !
 ! D160  D(50,51,52,65)         48.4687                                         !
 ! D161  D(50,51,52,66)        164.9                                            !
 ! D162  D(63,51,52,53)         51.2937                                         !
 ! D163  D(63,51,52,65)        173.4579                                         !
 ! D164  D(63,51,52,66)        -70.1108                                         !
 ! D165  D(64,51,52,53)        165.2294                                         !
 ! D166  D(64,51,52,65)        -72.6064                                         !
 ! D167  D(64,51,52,66)         43.8249                                         !
 ! D168  D(51,52,53,54)        103.8808                                         !
 ! D169  D(51,52,53,67)        -50.9162                                         !
 ! D170  D(65,52,53,54)        -19.3543                                         !
 ! D171  D(65,52,53,67)       -174.1512                                         !
 ! D172  D(66,52,53,54)       -134.5057                                         !
 ! D173  D(66,52,53,67)         70.6973                                         !
 ! D174  D(52,53,54,55)         17.917                                          !
 ! D175  D(52,53,54,56)       -155.6781                                         !
 ! D176  D(67,53,54,55)        172.4087                                         !
 ! D177  D(67,53,54,56)         -1.1865                                         !
 ! D178  D(53,54,55,68)          2.2601                                         !
 ! D179  D(56,54,55,68)        175.5973                                         !
 ! D180  D(53,54,56,69)        -51.9563                                         !
 ! D181  D(53,54,56,70)       -172.149                                          !
 ! D182  D(55,54,56,69)        133.4857                                         !
 ! D183  D(55,54,56,70)         13.293                                          !
 --------------------------------------------------------------------------------
 Symmetry turned off by external request.
 Stoichiometry    C23H36N7O4(1+)
 Framework group  C1[X(C23H36N7O4)]
 Deg. of freedom   204
 Full point group                 C1      NOp   1
                          Input orientation:                          
 ---------------------------------------------------------------------
 Center     Atomic      Atomic             Coordinates (Angstroms)
 Number     Number       Type             X           Y           Z
 ---------------------------------------------------------------------
      1          7           0      -96.659564  -13.289461    6.763495
      2          6           0      -95.615095  -14.373281    6.638000
      3          6           0      -94.556251  -13.734422    5.714052
      4          8           0      -94.306017  -12.542732    5.880759
      5          6           0      -96.282993  -15.696637    6.225430
      6          6           0      -97.481699  -15.994805    7.076029
      7          6           0      -98.791462  -16.034149    6.653703
      8          6           0      -97.498412  -16.204915    8.504899
      9          6           0      -98.859472  -16.370379    8.880623
     10          6           0      -96.502949  -16.278223    9.497926
     11          7           0      -99.619037  -16.259289    7.730541
     12          6           0      -99.247496  -16.596828   10.205263
     13          6           0      -96.884276  -16.500317   10.814049
     14          6           0      -98.242914  -16.655668   11.163103
     15          1           0      -97.114530  -13.187988    5.827271
     16          1           0      -95.169592  -14.469049    7.632756
     17          1           0      -96.571020  -15.636538    5.171945
     18          1           0      -95.527805  -16.488249    6.328837
     19          1           0      -99.194076  -15.926824    5.655456
     20          1           0     -100.618734  -16.386056    7.679588
     21          1           0      -95.449907  -16.188595    9.241555
     22          1           0     -100.291920  -16.724859   10.474331
     23          1           0      -96.127081  -16.564548   11.589528
     24          1           0      -98.507830  -16.831109   12.201228
     25          1           0      -97.350763  -13.525457    7.482206
     26          1           0      -96.167533  -12.407370    6.964356
     27          7           0      -94.010340  -14.516599    4.766531
     28          6           0      -92.936099  -14.094120    3.856946
     29          6           0      -93.133432  -12.626671    3.397707
     30          8           0      -92.262840  -11.796568    3.587924
     31          6           0      -91.519488  -14.311540    4.445819
     32          6           0      -90.472992  -14.271969    3.310110
     33          6           0      -91.442787  -15.633845    5.223448
     34          6           0      -89.034923  -14.091169    3.806955
     35          1           0      -94.251815  -15.496696    4.756916
     36          1           0      -93.038104  -14.733932    2.972517
     37          1           0      -91.325657  -13.477707    5.129185
     38          1           0      -90.553360  -15.200971    2.724885
     39          1           0      -90.706449  -13.445999    2.631925
     40          1           0      -91.719865  -16.488200    4.589490
     41          1           0      -90.423940  -15.810888    5.577117
     42          1           0      -92.092827  -15.635313    6.105014
     43          1           0      -88.937235  -13.154707    4.367651
     44          1           0      -88.338219  -14.049662    2.963252
     45          1           0      -88.711934  -14.911182    4.457527
     46          7           0      -94.259296  -12.240362    2.688319
     47          6           0      -95.491567  -12.838407    2.161512
     48          6           0      -96.633175  -12.650046    3.184810
     49          8           0      -96.823447  -13.461997    4.088730
     50          6           0      -95.408224  -14.291129    1.676871
     51          6           0      -96.702141  -14.831453    1.032666
     52          6           0      -97.221343  -14.120844   -0.232407
     53          7           0      -97.826466  -12.816109    0.029534
     54          6           0      -97.215068  -11.606192   -0.230063
     55          7           0      -96.221499  -11.318203   -0.979218
     56          7           0      -97.736713  -10.553162    0.591135
     57          8           0      -97.392215  -11.573183    3.107102
     58          1           0      -97.330399  -11.071285    2.230522
     59          1           0      -94.167387  -11.254736    2.466709
     60          1           0      -95.703880  -12.218816    1.293232
     61          1           0      -94.577679  -14.357259    0.964220
     62          1           0      -95.175417  -14.939971    2.524111
     63          1           0      -97.503034  -14.848432    1.785203
     64          1           0      -96.522503  -15.880615    0.767397
     65          1           0      -96.410282  -13.987015   -0.953881
     66          1           0      -97.965543  -14.759958   -0.720386
     67          1           0      -98.530404  -12.813096    0.756982
     68          1           0      -95.851504  -12.122476   -1.484030
     69          1           0      -98.754584  -10.488572    0.556312
     70          1           0      -97.342626   -9.672863    0.262206
 ---------------------------------------------------------------------
 Rotational constants (GHZ):           0.1468078           0.0747190           0.0553553
 Standard basis: 6-31G(d) (6D, 7F)
   582 basis functions,  1096 primitive gaussians,   582 cartesian basis functions
   127 alpha electrons      127 beta electrons
       nuclear repulsion energy      3821.0045523847 Hartrees.
 NAtoms=   70 NActive=   70 NUniq=   70 SFac= 1.00D+00 NAtFMM=   60 NAOKFM=T Big=T
 Integral buffers will be    131072 words long.
 Raffenetti 2 integral format.
 Two-electron integral symmetry is turned off.
 Nuclear repulsion after empirical dispersion term =     3820.9105368161 Hartrees.
 One-electron integrals computed using PRISM.
 NBasis=   582 RedAO= T EigKep=  3.78D-04  NBF=   582
 NBsUse=   582 1.00D-06 EigRej= -1.00D+00 NBFU=   582
 Initial guess from the checkpoint file:  "conf-696.chk"
 B after Tr=     0.000000    0.000000    0.000000
         Rot=    1.000000    0.000000    0.000000    0.000000 Ang=   0.00 deg.
 Requested convergence on RMS density matrix=1.00D-08 within 128 cycles.
 Requested convergence on MAX density matrix=1.00D-06.
 Requested convergence on             energy=1.00D-06.
 No special actions if energy rises.
 SCF Done:  E(RB3LYP) =  -1582.21254824     A.U. after    1 cycles
            NFock=  1  Conv=0.66D-08     -V/T= 2.0095

 **********************************************************************

            Population analysis using the SCF Density.

 **********************************************************************

 Alpha  occ. eigenvalues --  -19.30131 -19.26368 -19.24076 -19.20621 -14.56948
 Alpha  occ. eigenvalues --  -14.48800 -14.48379 -14.47137 -14.46807 -14.45992
 Alpha  occ. eigenvalues --  -14.39809 -10.44317 -10.41723 -10.39644 -10.38829
 Alpha  occ. eigenvalues --  -10.38459 -10.35449 -10.33977 -10.33562 -10.32929
 Alpha  occ. eigenvalues --  -10.32639 -10.31869 -10.30697 -10.30449 -10.29547
 Alpha  occ. eigenvalues --  -10.28725 -10.28403 -10.28253 -10.27622 -10.27413
 Alpha  occ. eigenvalues --  -10.27396 -10.26107 -10.25213 -10.23637  -1.21848
 Alpha  occ. eigenvalues --   -1.16878  -1.13398  -1.13086  -1.11472  -1.09246
 Alpha  occ. eigenvalues --   -1.08300  -1.05158  -1.01973  -1.00561  -0.95698
 Alpha  occ. eigenvalues --   -0.93879  -0.92693  -0.90882  -0.89884  -0.87378
 Alpha  occ. eigenvalues --   -0.85093  -0.83266  -0.82919  -0.81839  -0.79546
 Alpha  occ. eigenvalues --   -0.78893  -0.78443  -0.74179  -0.72839  -0.72328
 Alpha  occ. eigenvalues --   -0.72054  -0.71875  -0.70715  -0.70146  -0.69703
 Alpha  occ. eigenvalues --   -0.69108  -0.67670  -0.66730  -0.66234  -0.64621
 Alpha  occ. eigenvalues --   -0.64345  -0.63720  -0.62950  -0.62396  -0.61938
 Alpha  occ. eigenvalues --   -0.61204  -0.58898  -0.58614  -0.58111  -0.57838
 Alpha  occ. eigenvalues --   -0.56765  -0.56487  -0.56199  -0.55951  -0.55434
 Alpha  occ. eigenvalues --   -0.54932  -0.54587  -0.53697  -0.53451  -0.52770
 Alpha  occ. eigenvalues --   -0.52654  -0.52535  -0.51795  -0.51275  -0.51190
 Alpha  occ. eigenvalues --   -0.50761  -0.50569  -0.49639  -0.49302  -0.48975
 Alpha  occ. eigenvalues --   -0.48788  -0.47935  -0.47490  -0.46281  -0.45907
 Alpha  occ. eigenvalues --   -0.45676  -0.45536  -0.44900  -0.44793  -0.43426
 Alpha  occ. eigenvalues --   -0.43239  -0.43120  -0.42975  -0.41928  -0.41401
 Alpha  occ. eigenvalues --   -0.40052  -0.39806  -0.39129  -0.38523  -0.37348
 Alpha  occ. eigenvalues --   -0.37127  -0.36952  -0.34588  -0.34408  -0.33876
 Alpha  occ. eigenvalues --   -0.32148  -0.30679
 Alpha virt. eigenvalues --   -0.12716  -0.11200  -0.10508  -0.07921  -0.07082
 Alpha virt. eigenvalues --   -0.06331  -0.05869  -0.04727  -0.04623  -0.03569
 Alpha virt. eigenvalues --   -0.02624  -0.02017  -0.01379  -0.00940  -0.00759
 Alpha virt. eigenvalues --   -0.00366   0.00598   0.01240   0.02129   0.02501
 Alpha virt. eigenvalues --    0.02736   0.03309   0.03591   0.03894   0.04213
 Alpha virt. eigenvalues --    0.04467   0.04782   0.05410   0.05586   0.05907
 Alpha virt. eigenvalues --    0.06525   0.06775   0.06942   0.07337   0.07460
 Alpha virt. eigenvalues --    0.07923   0.08351   0.08831   0.09450   0.09573
 Alpha virt. eigenvalues --    0.09817   0.10182   0.10682   0.11400   0.11632
 Alpha virt. eigenvalues --    0.11937   0.12020   0.12215   0.12495   0.12605
 Alpha virt. eigenvalues --    0.13443   0.13731   0.14278   0.15067   0.15159
 Alpha virt. eigenvalues --    0.16353   0.16602   0.16809   0.17175   0.17586
 Alpha virt. eigenvalues --    0.18508   0.19304   0.20650   0.21471   0.21974
 Alpha virt. eigenvalues --    0.22544   0.23827   0.24718   0.25265   0.27035
 Alpha virt. eigenvalues --    0.27170   0.28284   0.29728   0.30300   0.32487
 Alpha virt. eigenvalues --    0.33471   0.35342   0.35995   0.37030   0.38417
 Alpha virt. eigenvalues --    0.39264   0.39833   0.40103   0.41195   0.41736
 Alpha virt. eigenvalues --    0.42080   0.42229   0.43451   0.44062   0.44296
 Alpha virt. eigenvalues --    0.44592   0.45338   0.45561   0.46055   0.46358
 Alpha virt. eigenvalues --    0.46632   0.47131   0.48017   0.48417   0.48635
 Alpha virt. eigenvalues --    0.49200   0.49968   0.50086   0.50264   0.50628
 Alpha virt. eigenvalues --    0.50855   0.51155   0.51531   0.51986   0.52335
 Alpha virt. eigenvalues --    0.52833   0.53101   0.53180   0.53462   0.54012
 Alpha virt. eigenvalues --    0.54178   0.54597   0.55286   0.56612   0.57191
 Alpha virt. eigenvalues --    0.57747   0.58067   0.58501   0.58858   0.59183
 Alpha virt. eigenvalues --    0.59558   0.60760   0.61040   0.61728   0.62746
 Alpha virt. eigenvalues --    0.63747   0.64140   0.64828   0.65207   0.65972
 Alpha virt. eigenvalues --    0.66513   0.67140   0.67913   0.68684   0.68957
 Alpha virt. eigenvalues --    0.69763   0.70250   0.71242   0.71610   0.72143
 Alpha virt. eigenvalues --    0.72544   0.73088   0.73413   0.73606   0.73902
 Alpha virt. eigenvalues --    0.74653   0.75362   0.75546   0.75696   0.76000
 Alpha virt. eigenvalues --    0.76168   0.76631   0.76841   0.76918   0.77770
 Alpha virt. eigenvalues --    0.77973   0.78173   0.78399   0.79067   0.79402
 Alpha virt. eigenvalues --    0.79866   0.80327   0.80703   0.81697   0.82270
 Alpha virt. eigenvalues --    0.82478   0.82860   0.83353   0.83579   0.83956
 Alpha virt. eigenvalues --    0.84176   0.84572   0.85236   0.85609   0.86085
 Alpha virt. eigenvalues --    0.86538   0.86862   0.87636   0.87845   0.88276
 Alpha virt. eigenvalues --    0.88666   0.88968   0.89184   0.89865   0.90167
 Alpha virt. eigenvalues --    0.90627   0.91356   0.92199   0.92789   0.93338
 Alpha virt. eigenvalues --    0.93624   0.94528   0.94755   0.95517   0.97182
 Alpha virt. eigenvalues --    0.97834   0.98246   0.99253   1.00845   1.01437
 Alpha virt. eigenvalues --    1.02758   1.02981   1.04201   1.04658   1.05300
 Alpha virt. eigenvalues --    1.05951   1.07965   1.08887   1.09488   1.12207
 Alpha virt. eigenvalues --    1.12717   1.12934   1.14381   1.14951   1.15536
 Alpha virt. eigenvalues --    1.16563   1.17163   1.18779   1.19879   1.21058
 Alpha virt. eigenvalues --    1.21760   1.22016   1.23394   1.23762   1.24401
 Alpha virt. eigenvalues --    1.24856   1.26084   1.26993   1.27599   1.28034
 Alpha virt. eigenvalues --    1.29073   1.30168   1.30590   1.31596   1.31886
 Alpha virt. eigenvalues --    1.32621   1.34160   1.34360   1.35835   1.37200
 Alpha virt. eigenvalues --    1.37554   1.38871   1.39356   1.40354   1.40948
 Alpha virt. eigenvalues --    1.41343   1.41985   1.44215   1.45604   1.47657
 Alpha virt. eigenvalues --    1.48315   1.49555   1.49875   1.50272   1.51309
 Alpha virt. eigenvalues --    1.51381   1.52113   1.54124   1.54830   1.56619
 Alpha virt. eigenvalues --    1.57565   1.59147   1.60260   1.60865   1.62521
 Alpha virt. eigenvalues --    1.63150   1.63756   1.64457   1.64751   1.65482
 Alpha virt. eigenvalues --    1.65848   1.67214   1.67518   1.68205   1.68905
 Alpha virt. eigenvalues --    1.69199   1.70339   1.70696   1.70956   1.71808
 Alpha virt. eigenvalues --    1.72400   1.73984   1.74438   1.74918   1.75938
 Alpha virt. eigenvalues --    1.76599   1.77350   1.77803   1.79538   1.79702
 Alpha virt. eigenvalues --    1.79985   1.81213   1.81691   1.81904   1.82334
 Alpha virt. eigenvalues --    1.84031   1.84213   1.84886   1.85435   1.85715
 Alpha virt. eigenvalues --    1.86206   1.87090   1.87528   1.88338   1.88709
 Alpha virt. eigenvalues --    1.89509   1.90147   1.90982   1.91112   1.92319
 Alpha virt. eigenvalues --    1.92851   1.93130   1.93959   1.94246   1.94639
 Alpha virt. eigenvalues --    1.95222   1.96961   1.97598   1.97871   1.98994
 Alpha virt. eigenvalues --    2.00331   2.02102   2.02591   2.02851   2.04016
 Alpha virt. eigenvalues --    2.04388   2.05334   2.05846   2.06592   2.08487
 Alpha virt. eigenvalues --    2.08660   2.10149   2.11314   2.13691   2.14091
 Alpha virt. eigenvalues --    2.15325   2.15699   2.16146   2.16500   2.17696
 Alpha virt. eigenvalues --    2.18244   2.18404   2.18961   2.20785   2.21444
 Alpha virt. eigenvalues --    2.22661   2.22867   2.23144   2.23766   2.24245
 Alpha virt. eigenvalues --    2.25532   2.26238   2.27845   2.28652   2.29344
 Alpha virt. eigenvalues --    2.30260   2.30714   2.32682   2.33706   2.34079
 Alpha virt. eigenvalues --    2.34799   2.36085   2.36774   2.37425   2.38808
 Alpha virt. eigenvalues --    2.39191   2.40279   2.41991   2.43651   2.44276
 Alpha virt. eigenvalues --    2.45425   2.45578   2.46264   2.47705   2.48672
 Alpha virt. eigenvalues --    2.48992   2.50012   2.51049   2.51744   2.52897
 Alpha virt. eigenvalues --    2.54134   2.56034   2.57109   2.57429   2.58349
 Alpha virt. eigenvalues --    2.58859   2.59204   2.60588   2.61325   2.62927
 Alpha virt. eigenvalues --    2.63766   2.64645   2.66037   2.67426   2.68159
 Alpha virt. eigenvalues --    2.69789   2.71730   2.72445   2.75359   2.77225
 Alpha virt. eigenvalues --    2.79519   2.82743   2.86114   2.86517   2.88345
 Alpha virt. eigenvalues --    2.90494   2.91621   2.93604   2.96524   2.97829
 Alpha virt. eigenvalues --    2.99861   3.02975   3.08084   3.08988   3.14774
 Alpha virt. eigenvalues --    3.34422   3.71248   3.77468   3.80961   3.86442
 Alpha virt. eigenvalues --    3.88174   3.92007   3.93089   3.94204   4.00138
 Alpha virt. eigenvalues --    4.01403   4.02998   4.06529   4.07596   4.10877
 Alpha virt. eigenvalues --    4.12158   4.14456   4.16730   4.20257   4.22382
 Alpha virt. eigenvalues --    4.25310   4.28367   4.29938   4.32052   4.32598
 Alpha virt. eigenvalues --    4.34067   4.35364   4.40232   4.43438   4.45074
 Alpha virt. eigenvalues --    4.49616   4.56886   4.61745   4.66203   4.70006
          Condensed to atoms (all electrons):
 Mulliken charges:
               1
     1  N   -0.743889
     2  C   -0.115593
     3  C    0.669958
     4  O   -0.526400
     5  C   -0.390878
     6  C    0.001325
     7  C    0.002797
     8  C    0.076232
     9  C    0.310302
    10  C   -0.221760
    11  N   -0.680265
    12  C   -0.154994
    13  C   -0.134505
    14  C   -0.147913
    15  H    0.427012
    16  H    0.223704
    17  H    0.193241
    18  H    0.180943
    19  H    0.167871
    20  H    0.347161
    21  H    0.126827
    22  H    0.150175
    23  H    0.149876
    24  H    0.155350
    25  H    0.408479
    26  H    0.416278
    27  N   -0.620323
    28  C   -0.060927
    29  C    0.631462
    30  O   -0.473491
    31  C   -0.061755
    32  C   -0.267517
    33  C   -0.471228
    34  C   -0.454054
    35  H    0.352281
    36  H    0.162816
    37  H    0.174205
    38  H    0.124105
    39  H    0.161629
    40  H    0.133348
    41  H    0.178975
    42  H    0.128178
    43  H    0.163736
    44  H    0.158262
    45  H    0.147743
    46  N   -0.630655
    47  C   -0.047256
    48  C    0.630378
    49  O   -0.532600
    50  C   -0.287690
    51  C   -0.296103
    52  C   -0.145847
    53  N   -0.575488
    54  C    0.534674
    55  N   -0.600513
    56  N   -0.801462
    57  O   -0.587794
    58  H    0.466904
    59  H    0.350752
    60  H    0.185065
    61  H    0.168355
    62  H    0.154943
    63  H    0.150432
    64  H    0.168024
    65  H    0.167586
    66  H    0.182313
    67  H    0.325471
    68  H    0.299185
    69  H    0.351171
    70  H    0.371379
 Sum of Mulliken charges =   1.00000
 Mulliken charges with hydrogens summed into heavy atoms:
               1
     1  N    0.507879
     2  C    0.108111
     3  C    0.669958
     4  O   -0.526400
     5  C   -0.016694
     6  C    0.001325
     7  C    0.170668
     8  C    0.076232
     9  C    0.310302
    10  C   -0.094934
    11  N   -0.333103
    12  C   -0.004820
    13  C    0.015371
    14  C    0.007438
    27  N   -0.268043
    28  C    0.101889
    29  C    0.631462
    30  O   -0.473491
    31  C    0.112450
    32  C    0.018217
    33  C   -0.030727
    34  C    0.015687
    46  N   -0.279903
    47  C    0.137809
    48  C    0.630378
    49  O   -0.532600
    50  C    0.035607
    51  C    0.022353
    52  C    0.204052
    53  N   -0.250018
    54  C    0.534674
    55  N   -0.301329
    56  N   -0.078912
    57  O   -0.120890
 Electronic spatial extent (au):  <R**2>=        8512980.1689
 Charge=              1.0000 electrons
 Dipole moment (field-independent basis, Debye):
    X=           -468.8660    Y=            -69.9445    Z=             22.1508  Tot=            474.5716
 Quadrupole moment (field-independent basis, Debye-Ang):
   XX=          45593.9680   YY=            830.5399   ZZ=            -33.0411
   XY=           6808.7888   XZ=          -2166.0386   YZ=           -335.2215
 Traceless Quadrupole moment (field-independent basis, Debye-Ang):
   XX=          30130.1457   YY=         -14633.2823   ZZ=         -15496.8634
   XY=           6808.7888   XZ=          -2166.0386   YZ=           -335.2215
 Octapole moment (field-independent basis, Debye-Ang**2):
  XXX=       -4417764.7381  YYY=          -6793.2468  ZZZ=          -1334.0604  XYY=         -81001.4171
  XXY=        -660467.8042  XXZ=         211022.6143  XZZ=           2776.4954  YZZ=            257.4550
  YYZ=           4148.1103  XYZ=          32744.3788
 Hexadecapole moment (field-independent basis, Debye-Ang**3):
 XXXX=      426581565.1996 YYYY=         -16845.5599 ZZZZ=         -25305.5053 XXXY=       63852090.9712
 XXXZ=      -20486229.3702 YYYX=         670716.0004 YYYZ=         -34780.4146 ZZZX=         125301.1245
 ZZZY=          19492.8992 XXYY=        7865853.8138 XXZZ=        -234849.7714 YYZZ=          -7681.2847
 XXYZ=       -3187222.2425 YYXZ=        -406454.2835 ZZXY=         -18938.5660
 N-N= 3.820910536816D+03 E-N=-1.129556738727D+04  KE= 1.567332509745D+03
 Unable to Open any file for archive entry.
 1\1\GINC-QML-000\SP\RB3LYP\6-31G(d)\C23H36N7O4(1+)\KENGMITH\24-May-202
 2\0\\# B3LYP/6-31G* empiricaldispersion=gd3 guess=read geom=check nosy
 mm integral(ultrafinegrid)\\Candidate Structure: Conf:696 Charge calc 
 in gas phase\\1,1\N,0,-96.6595636481,-13.2894606615,6.7634945568\C,0,-
 95.6150954033,-14.3732807889,6.6379999079\C,0,-94.5562510199,-13.73442
 24385,5.7140515892\O,0,-94.306017229,-12.5427322063,5.88075898\C,0,-96
 .2829932984,-15.6966374217,6.2254297794\C,0,-97.4816991423,-15.9948051
 145,7.0760291035\C,0,-98.7914622854,-16.0341487542,6.6537032821\C,0,-9
 7.4984116127,-16.2049146495,8.5048990744\C,0,-98.8594721697,-16.370378
 5367,8.8806226502\C,0,-96.5029491643,-16.2782231572,9.4979260812\N,0,-
 99.6190367968,-16.2592885304,7.7305406154\C,0,-99.247496059,-16.596828
 314,10.2052632413\C,0,-96.884276444,-16.5003170318,10.8140491114\C,0,-
 98.2429141341,-16.6556677639,11.1631026561\H,0,-97.1145300835,-13.1879
 884257,5.8272712274\H,0,-95.1695924888,-14.469049476,7.6327564681\H,0,
 -96.571020392,-15.6365383644,5.1719450293\H,0,-95.5278052898,-16.48824
 90215,6.3288371505\H,0,-99.1940756245,-15.926824211,5.6554561303\H,0,-
 100.6187340648,-16.3860556573,7.6795880325\H,0,-95.4499072454,-16.1885
 945091,9.2415548404\H,0,-100.2919202926,-16.7248592184,10.4743313656\H
 ,0,-96.1270813373,-16.5645478571,11.589527785\H,0,-98.5078297279,-16.8
 311093791,12.2012280758\H,0,-97.3507631948,-13.5254570476,7.4822060919
 \H,0,-96.1675325072,-12.407369693,6.9643561163\N,0,-94.0103401279,-14.
 516598832,4.7665309706\C,0,-92.9360990273,-14.0941196841,3.8569461827\
 C,0,-93.1334321449,-12.6266708708,3.3977070406\O,0,-92.2628395094,-11.
 7965681282,3.5879240774\C,0,-91.5194884517,-14.3115400884,4.4458188409
 \C,0,-90.4729922059,-14.2719693827,3.310110177\C,0,-91.4427868428,-15.
 6338454629,5.2234478924\C,0,-89.0349229233,-14.0911689405,3.8069547212
 \H,0,-94.2518152096,-15.4966960429,4.7569156458\H,0,-93.038103742,-14.
 7339316772,2.9725168113\H,0,-91.3256573861,-13.4777070943,5.1291851164
 \H,0,-90.553360364,-15.2009714704,2.7248852137\H,0,-90.70644936,-13.44
 59988146,2.6319254646\H,0,-91.7198645847,-16.488199515,4.5894895784\H,
 0,-90.4239395966,-15.8108880805,5.5771168939\H,0,-92.0928274179,-15.63
 53133739,6.1050139596\H,0,-88.9372351332,-13.1547072,4.3676513739\H,0,
 -88.3382192101,-14.0496623793,2.9632518433\H,0,-88.7119339147,-14.9111
 816231,4.457527476\N,0,-94.2592960603,-12.240362028,2.6883188056\C,0,-
 95.4915672157,-12.8384068087,2.1615123895\C,0,-96.6331748754,-12.65004
 64555,3.1848103291\O,0,-96.8234467531,-13.4619970832,4.0887297658\C,0,
 -95.4082239126,-14.2911285141,1.6768710751\C,0,-96.7021410065,-14.8314
 533738,1.0326656089\C,0,-97.2213427739,-14.1208440374,-0.2324065821\N,
 0,-97.8264656967,-12.8161088493,0.029533673\C,0,-97.2150684544,-11.606
 1923978,-0.2300627089\N,0,-96.2214988757,-11.3182027851,-0.9792183114\
 N,0,-97.7367128644,-10.5531622541,0.5911349962\O,0,-97.3922150276,-11.
 573182604,3.1071023015\H,0,-97.3303988647,-11.0712852355,2.2305224316\
 H,0,-94.1673867413,-11.2547360839,2.4667088221\H,0,-95.7038802001,-12.
 2188161893,1.2932321456\H,0,-94.577678735,-14.3572590707,0.9642202657\
 H,0,-95.1754165501,-14.9399708774,2.5241112367\H,0,-97.5030338368,-14.
 8484323769,1.7852028327\H,0,-96.5225030007,-15.8806154364,0.7673972654
 \H,0,-96.4102822913,-13.9870152911,-0.9538806296\H,0,-97.9655434966,-1
 4.7599584413,-0.7203862277\H,0,-98.5304039207,-12.8130958374,0.7569822
 235\H,0,-95.8515041153,-12.1224756535,-1.4840303832\H,0,-98.7545838433
 ,-10.4885723816,0.5563121836\H,0,-97.3426259804,-9.6728629541,0.262205
 9799\\Version=ES64L-G16RevC.01\HF=-1582.2125482\RMSD=6.564e-09\Dipole=
 -3.7365365,-0.9439517,0.0037831\Quadrupole=22401.0248521,-10879.486751
 9,-11521.5381003,5062.1676281,-1610.396605,-249.228992\PG=C01 [X(C23H3
 6N7O4)]\\@
 The archive entry for this job was punched.


 Time has a wonderful way of weeding out the trivial.
                                -- Richard Ben Sapir
 Job cpu time:       0 days  0 hours  2 minutes 22.6 seconds.
 Elapsed time:       0 days  0 hours  0 minutes 36.2 seconds.
 File lengths (MBytes):  RWF=    296 Int=      0 D2E=      0 Chk=     40 Scr=     16
 Normal termination of Gaussian 16 at Tue May 24 23:12:43 2022.
