 Entering Gaussian System, Link 0=/opt/software/Gaussian/g16-AVX-C.01/g16/g16
 Input=charge-conf-102.com
 Output=charge-conf-102.log
 Initial command:
 /opt/software/Gaussian/g16-AVX-C.01/g16/l1.exe "/mnt/gs18/scratch/users/kengmith/Gau-39442.inp" -scrdir="/mnt/gs18/scratch/users/kengmith/"
 Entering Link 1 = /opt/software/Gaussian/g16-AVX-C.01/g16/l1.exe PID=     39457.
  
 Copyright (c) 1988-2019, Gaussian, Inc.  All Rights Reserved.
  
 This is part of the Gaussian(R) 16 program.  It is based on
 the Gaussian(R) 09 system (copyright 2009, Gaussian, Inc.),
 the Gaussian(R) 03 system (copyright 2003, Gaussian, Inc.),
 the Gaussian(R) 98 system (copyright 1998, Gaussian, Inc.),
 the Gaussian(R) 94 system (copyright 1995, Gaussian, Inc.),
 the Gaussian 92(TM) system (copyright 1992, Gaussian, Inc.),
 the Gaussian 90(TM) system (copyright 1990, Gaussian, Inc.),
 the Gaussian 88(TM) system (copyright 1988, Gaussian, Inc.),
 the Gaussian 86(TM) system (copyright 1986, Carnegie Mellon
 University), and the Gaussian 82(TM) system (copyright 1983,
 Carnegie Mellon University). Gaussian is a federally registered
 trademark of Gaussian, Inc.
  
 This software contains proprietary and confidential information,
 including trade secrets, belonging to Gaussian, Inc.
  
 This software is provided under written license and may be
 used, copied, transmitted, or stored only in accord with that
 written license.
  
 The following legend is applicable only to US Government
 contracts under FAR:
  
                    RESTRICTED RIGHTS LEGEND
  
 Use, reproduction and disclosure by the US Government is
 subject to restrictions as set forth in subparagraphs (a)
 and (c) of the Commercial Computer Software - Restricted
 Rights clause in FAR 52.227-19.
  
 Gaussian, Inc.
 340 Quinnipiac St., Bldg. 40, Wallingford CT 06492
  
  
 ---------------------------------------------------------------
 Warning -- This program may not be used in any manner that
 competes with the business of Gaussian, Inc. or will provide
 assistance to any competitor of Gaussian, Inc.  The licensee
 of this program is prohibited from giving any competitor of
 Gaussian, Inc. access to this program.  By using this program,
 the user acknowledges that Gaussian, Inc. is engaged in the
 business of creating and licensing software in the field of
 computational chemistry and represents and warrants to the
 licensee that it is not a competitor of Gaussian, Inc. and that
 it will not use this program in any manner prohibited above.
 ---------------------------------------------------------------
  

 Cite this work as:
 Gaussian 16, Revision C.01,
 M. J. Frisch, G. W. Trucks, H. B. Schlegel, G. E. Scuseria, 
 M. A. Robb, J. R. Cheeseman, G. Scalmani, V. Barone, 
 G. A. Petersson, H. Nakatsuji, X. Li, M. Caricato, A. V. Marenich, 
 J. Bloino, B. G. Janesko, R. Gomperts, B. Mennucci, H. P. Hratchian, 
 J. V. Ortiz, A. F. Izmaylov, J. L. Sonnenberg, D. Williams-Young, 
 F. Ding, F. Lipparini, F. Egidi, J. Goings, B. Peng, A. Petrone, 
 T. Henderson, D. Ranasinghe, V. G. Zakrzewski, J. Gao, N. Rega, 
 G. Zheng, W. Liang, M. Hada, M. Ehara, K. Toyota, R. Fukuda, 
 J. Hasegawa, M. Ishida, T. Nakajima, Y. Honda, O. Kitao, H. Nakai, 
 T. Vreven, K. Throssell, J. A. Montgomery, Jr., J. E. Peralta, 
 F. Ogliaro, M. J. Bearpark, J. J. Heyd, E. N. Brothers, K. N. Kudin, 
 V. N. Staroverov, T. A. Keith, R. Kobayashi, J. Normand, 
 K. Raghavachari, A. P. Rendell, J. C. Burant, S. S. Iyengar, 
 J. Tomasi, M. Cossi, J. M. Millam, M. Klene, C. Adamo, R. Cammi, 
 J. W. Ochterski, R. L. Martin, K. Morokuma, O. Farkas, 
 J. B. Foresman, and D. J. Fox, Gaussian, Inc., Wallingford CT, 2019.
 
 ******************************************
 Gaussian 16:  ES64L-G16RevC.01  3-Jul-2019
                24-May-2022 
 ******************************************
 %mem=8gb
 %nproc=4
 Will use up to    4 processors via shared memory.
 %chk=conf-102.chk
 ----------------------------------------------------------------------
 # B3LYP/6-31G* empiricaldispersion=gd3 guess=read geom=check nosymm in
 tegral(ultrafinegrid)
 ----------------------------------------------------------------------
 1/29=2,38=1,172=1/1;
 2/12=2,15=1,40=1/2;
 3/5=1,6=6,7=1,11=2,14=-4,25=1,30=1,74=-5,75=-5,116=-2,124=31/1,2,3;
 4/5=1/1;
 5/5=2,38=6/2;
 6/7=2,8=2,9=2,10=2,28=1/1;
 99/5=1,9=1/99;
 ------------------------------------------------------
 Candidate Structure: Conf:102 Charge calc in gas phase
 ------------------------------------------------------
 Structure from the checkpoint file:  "conf-102.chk"
 Charge =  1 Multiplicity = 1
 Redundant internal coordinates found in file.  (old form).
 N,0,-97.4319912759,-12.9440201736,3.7143764495
 C,0,-97.2414936019,-14.4376593782,3.6286820122
 C,0,-97.0829091334,-14.8638539172,5.1053007705
 O,0,-97.6004149073,-14.1612074112,5.9740810689
 C,0,-96.0877494386,-14.7719788828,2.6560309313
 C,0,-96.0750155012,-13.8614837907,1.4648390739
 C,0,-95.0444727074,-13.024262275,1.1036594552
 C,0,-97.1614990402,-13.6032952028,0.5479444577
 C,0,-96.710687747,-12.5950260046,-0.3494292836
 C,0,-98.4668205735,-14.1137403975,0.3974613464
 N,0,-95.418551632,-12.2686430977,0.0166634966
 C,0,-97.5163742229,-12.0925071544,-1.3759368859
 C,0,-99.2714208967,-13.6115193338,-0.6170463864
 C,0,-98.8001660489,-12.6111874756,-1.4932725886
 H,0,-97.7710840387,-12.5626941767,2.8240853207
 H,0,-98.1900232864,-14.8336284236,3.2539352181
 H,0,-95.1395185949,-14.6834443486,3.1931457352
 H,0,-96.2107742715,-15.8210913109,2.3535241481
 H,0,-94.0636599347,-12.9154047378,1.5463362032
 H,0,-94.8219871182,-11.6184360399,-0.4731794672
 H,0,-98.8328963362,-14.9143214478,1.0360370544
 H,0,-97.1528854942,-11.3280007983,-2.0562444573
 H,0,-100.2756593871,-14.0023473395,-0.7492313154
 H,0,-99.4520614408,-12.243951426,-2.2797773756
 H,0,-98.0762638455,-12.7669595525,4.5000983187
 H,0,-96.5185196306,-12.5240001927,3.9701050956
 N,0,-96.3413115272,-15.9595441389,5.3301500676
 C,0,-96.1314675454,-16.5989460009,6.6411696173
 C,0,-96.0204373297,-15.5567349464,7.7855078756
 O,0,-96.7958630054,-15.591013148,8.7235909563
 C,0,-97.1994983046,-17.6740868983,6.9622624893
 C,0,-96.6842782317,-18.5947668437,8.0912003654
 C,0,-97.564801503,-18.4866200666,5.710595645
 C,0,-97.7866384709,-19.4284587901,8.7525418393
 H,0,-96.0441054835,-16.4989715093,4.5286136049
 H,0,-95.1558439862,-17.0938755889,6.5613320292
 H,0,-98.0882053416,-17.1441369055,7.3221235812
 H,0,-95.9085176217,-19.2574882893,7.6785280663
 H,0,-96.205725619,-17.9869487084,8.8646235472
 H,0,-98.2571293653,-19.2920018828,5.9677653226
 H,0,-98.0575650723,-17.8761929668,4.945554163
 H,0,-96.6767561367,-18.9544103571,5.2620149506
 H,0,-98.5492353359,-18.7767995609,9.1937297953
 H,0,-97.3712660589,-20.0470942222,9.5546511621
 H,0,-98.2831790196,-20.1014505412,8.0450392764
 N,0,-94.9471261969,-14.6803720443,7.844756774
 C,0,-94.0011572448,-14.090892199,6.8867024528
 C,0,-94.6809028544,-12.9308278778,6.1514921944
 O,0,-94.9575506712,-12.8843588306,4.9578479436
 C,0,-93.2718748522,-15.075093722,5.9633591943
 C,0,-92.2168516743,-14.4544034123,5.0230713952
 C,0,-91.2373057605,-13.4788162033,5.6837916989
 N,0,-91.9025014626,-12.211330538,5.9707062797
 C,0,-91.3292692703,-11.2972194866,6.8824829474
 N,0,-90.2407500222,-11.4054820415,7.5423082863
 N,0,-92.1399704415,-10.1649723413,7.0161997578
 O,0,-95.0135908044,-11.9493031886,7.0020232213
 H,0,-95.5128943499,-11.2666411955,6.5161733119
 H,0,-95.0486730847,-14.1192188624,8.6848624245
 H,0,-93.2499352491,-13.6111272309,7.5168128255
 H,0,-92.7921725233,-15.8111567829,6.6188610415
 H,0,-93.9913857616,-15.6124626154,5.3445698342
 H,0,-92.7207965488,-13.943407057,4.1930602796
 H,0,-91.6465984338,-15.2777574994,4.5778106852
 H,0,-90.8862413821,-13.894357436,6.6359982627
 H,0,-90.3489397711,-13.3465242095,5.047561312
 H,0,-92.2617870533,-11.7428871629,5.1442681155
 H,0,-89.6686288467,-12.1903105611,7.2310643192
 H,0,-93.1063372509,-10.3932122503,7.2289059768
 H,0,-91.7495083352,-9.5286593969,7.703920445
 Recover connectivity data from disk.
                           ----------------------------
                           !    Current Parameters    !
                           ! (Angstroms and Degrees)  !
 --------------------------                            --------------------------
 ! Name  Definition              Value                                          !
 --------------------------------------------------------------------------------
 ! R1    R(1,2)                  1.5082                                         !
 ! R2    R(1,15)                 1.0262                                         !
 ! R3    R(1,25)                 1.0314                                         !
 ! R4    R(1,26)                 1.0374                                         !
 ! R5    R(2,3)                  1.5451                                         !
 ! R6    R(2,5)                  1.5456                                         !
 ! R7    R(2,16)                 1.094                                          !
 ! R8    R(3,4)                  1.2314                                         !
 ! R9    R(3,27)                 1.342                                          !
 ! R10   R(5,6)                  1.4994                                         !
 ! R11   R(5,17)                 1.0934                                         !
 ! R12   R(5,18)                 1.0988                                         !
 ! R13   R(6,7)                  1.376                                          !
 ! R14   R(6,8)                  1.4449                                         !
 ! R15   R(7,11)                 1.3757                                         !
 ! R16   R(7,19)                 1.0816                                         !
 ! R17   R(8,9)                  1.4231                                         !
 ! R18   R(8,10)                 1.4096                                         !
 ! R19   R(9,11)                 1.3821                                         !
 ! R20   R(9,12)                 1.3983                                         !
 ! R21   R(10,13)                1.3888                                         !
 ! R22   R(10,21)                1.0875                                         !
 ! R23   R(11,20)                1.0093                                         !
 ! R24   R(12,14)                1.3896                                         !
 ! R25   R(12,22)                1.086                                          !
 ! R26   R(13,14)                1.4109                                         !
 ! R27   R(13,23)                1.0857                                         !
 ! R28   R(14,24)                1.0856                                         !
 ! R29   R(27,28)                1.4736                                         !
 ! R30   R(27,35)                1.0108                                         !
 ! R31   R(28,29)                1.5518                                         !
 ! R32   R(28,31)                1.5491                                         !
 ! R33   R(28,36)                1.0969                                         !
 ! R34   R(29,30)                1.2176                                         !
 ! R35   R(29,46)                1.3869                                         !
 ! R36   R(31,32)                1.5452                                         !
 ! R37   R(31,33)                1.5363                                         !
 ! R38   R(31,37)                1.0955                                         !
 ! R39   R(32,34)                1.5322                                         !
 ! R40   R(32,38)                1.1006                                         !
 ! R41   R(32,39)                1.0939                                         !
 ! R42   R(33,40)                1.0927                                         !
 ! R43   R(33,41)                1.0958                                         !
 ! R44   R(33,42)                1.0994                                         !
 ! R45   R(34,43)                1.0958                                         !
 ! R46   R(34,44)                1.0948                                         !
 ! R47   R(34,45)                1.0955                                         !
 ! R48   R(46,47)                1.4698                                         !
 ! R49   R(46,59)                1.0154                                         !
 ! R50   R(47,48)                1.5324                                         !
 ! R51   R(47,50)                1.534                                          !
 ! R52   R(47,60)                1.0916                                         !
 ! R53   R(48,49)                1.2262                                         !
 ! R54   R(48,57)                1.3407                                         !
 ! R55   R(50,51)                1.5435                                         !
 ! R56   R(50,61)                1.0962                                         !
 ! R57   R(50,62)                1.0906                                         !
 ! R58   R(51,52)                1.5323                                         !
 ! R59   R(51,63)                1.0973                                         !
 ! R60   R(51,64)                1.0961                                         !
 ! R61   R(52,53)                1.4599                                         !
 ! R62   R(52,65)                1.0966                                         !
 ! R63   R(52,66)                1.1007                                         !
 ! R64   R(53,54)                1.4126                                         !
 ! R65   R(53,67)                1.0156                                         !
 ! R66   R(54,55)                1.2775                                         !
 ! R67   R(54,56)                1.399                                          !
 ! R68   R(55,68)                1.0199                                         !
 ! R69   R(56,69)                1.0155                                         !
 ! R70   R(56,70)                1.015                                          !
 ! R71   R(57,58)                0.9754                                         !
 ! A1    A(2,1,15)             111.1287                                         !
 ! A2    A(2,1,25)             106.9897                                         !
 ! A3    A(2,1,26)             107.6833                                         !
 ! A4    A(15,1,25)            112.9994                                         !
 ! A5    A(15,1,26)            110.7554                                         !
 ! A6    A(25,1,26)            107.0216                                         !
 ! A7    A(1,2,3)              103.4058                                         !
 ! A8    A(1,2,5)              110.1365                                         !
 ! A9    A(1,2,16)             105.5688                                         !
 ! A10   A(3,2,5)              117.7192                                         !
 ! A11   A(3,2,16)             108.4522                                         !
 ! A12   A(5,2,16)             110.6914                                         !
 ! A13   A(2,3,4)              118.2777                                         !
 ! A14   A(2,3,27)             116.2348                                         !
 ! A15   A(4,3,27)             125.4435                                         !
 ! A16   A(2,5,6)              112.0207                                         !
 ! A17   A(2,5,17)             108.7062                                         !
 ! A18   A(2,5,18)             107.2297                                         !
 ! A19   A(6,5,17)             109.4958                                         !
 ! A20   A(6,5,18)             111.2252                                         !
 ! A21   A(17,5,18)            108.039                                          !
 ! A22   A(5,6,7)              125.7586                                         !
 ! A23   A(5,6,8)              127.3195                                         !
 ! A24   A(7,6,8)              106.7302                                         !
 ! A25   A(6,7,11)             109.752                                          !
 ! A26   A(6,7,19)             129.2694                                         !
 ! A27   A(11,7,19)            120.9783                                         !
 ! A28   A(6,8,9)              106.7711                                         !
 ! A29   A(6,8,10)             134.373                                          !
 ! A30   A(9,8,10)             118.8548                                         !
 ! A31   A(8,9,11)             107.2448                                         !
 ! A32   A(8,9,12)             122.3441                                         !
 ! A33   A(11,9,12)            130.4101                                         !
 ! A34   A(8,10,13)            118.9145                                         !
 ! A35   A(8,10,21)            121.0367                                         !
 ! A36   A(13,10,21)           120.0075                                         !
 ! A37   A(7,11,9)             109.5006                                         !
 ! A38   A(7,11,20)            125.2143                                         !
 ! A39   A(9,11,20)            125.1836                                         !
 ! A40   A(9,12,14)            117.3972                                         !
 ! A41   A(9,12,22)            121.3315                                         !
 ! A42   A(14,12,22)           121.2713                                         !
 ! A43   A(10,13,14)           121.1014                                         !
 ! A44   A(10,13,23)           119.646                                          !
 ! A45   A(14,13,23)           119.2475                                         !
 ! A46   A(12,14,13)           121.3862                                         !
 ! A47   A(12,14,24)           119.3215                                         !
 ! A48   A(13,14,24)           119.2909                                         !
 ! A49   A(3,27,28)            125.5903                                         !
 ! A50   A(3,27,35)            117.7304                                         !
 ! A51   A(28,27,35)           115.5964                                         !
 ! A52   A(27,28,29)           112.0138                                         !
 ! A53   A(27,28,31)           112.7905                                         !
 ! A54   A(27,28,36)           104.9323                                         !
 ! A55   A(29,28,31)           111.2605                                         !
 ! A56   A(29,28,36)           107.0423                                         !
 ! A57   A(31,28,36)           108.3702                                         !
 ! A58   A(28,29,30)           120.2442                                         !
 ! A59   A(28,29,46)           120.7477                                         !
 ! A60   A(30,29,46)           118.5378                                         !
 ! A61   A(28,31,32)           109.5779                                         !
 ! A62   A(28,31,33)           111.2309                                         !
 ! A63   A(28,31,37)           106.9566                                         !
 ! A64   A(32,31,33)           111.0632                                         !
 ! A65   A(32,31,37)           108.586                                          !
 ! A66   A(33,31,37)           109.3036                                         !
 ! A67   A(31,32,34)           113.5573                                         !
 ! A68   A(31,32,38)           108.6545                                         !
 ! A69   A(31,32,39)           109.3515                                         !
 ! A70   A(34,32,38)           109.9575                                         !
 ! A71   A(34,32,39)           108.1739                                         !
 ! A72   A(38,32,39)           106.9374                                         !
 ! A73   A(31,33,40)           110.4083                                         !
 ! A74   A(31,33,41)           112.4025                                         !
 ! A75   A(31,33,42)           111.4317                                         !
 ! A76   A(40,33,41)           106.8565                                         !
 ! A77   A(40,33,42)           107.109                                          !
 ! A78   A(41,33,42)           108.3852                                         !
 ! A79   A(32,34,43)           110.5415                                         !
 ! A80   A(32,34,44)           110.5316                                         !
 ! A81   A(32,34,45)           112.4341                                         !
 ! A82   A(43,34,44)           107.7631                                         !
 ! A83   A(43,34,45)           108.0544                                         !
 ! A84   A(44,34,45)           107.3379                                         !
 ! A85   A(29,46,47)           136.3584                                         !
 ! A86   A(29,46,59)           107.8884                                         !
 ! A87   A(47,46,59)           112.46                                           !
 ! A88   A(46,47,48)           109.3207                                         !
 ! A89   A(46,47,50)           116.1693                                         !
 ! A90   A(46,47,60)           104.0601                                         !
 ! A91   A(48,47,50)           114.0666                                         !
 ! A92   A(48,47,60)           104.4475                                         !
 ! A93   A(50,47,60)           107.5941                                         !
 ! A94   A(47,48,49)           126.5705                                         !
 ! A95   A(47,48,57)           111.095                                          !
 ! A96   A(49,48,57)           122.265                                          !
 ! A97   A(47,50,51)           115.6986                                         !
 ! A98   A(47,50,61)           106.1964                                         !
 ! A99   A(47,50,62)           110.1217                                         !
 ! A100  A(51,50,61)           109.5841                                         !
 ! A101  A(51,50,62)           107.6646                                         !
 ! A102  A(61,50,62)           107.2865                                         !
 ! A103  A(50,51,52)           115.487                                          !
 ! A104  A(50,51,63)           109.5212                                         !
 ! A105  A(50,51,64)           107.5185                                         !
 ! A106  A(52,51,63)           108.861                                          !
 ! A107  A(52,51,64)           108.7144                                         !
 ! A108  A(63,51,64)           106.3489                                         !
 ! A109  A(51,52,53)           110.2575                                         !
 ! A110  A(51,52,65)           109.7433                                         !
 ! A111  A(51,52,66)           110.0746                                         !
 ! A112  A(53,52,65)           107.7099                                         !
 ! A113  A(53,52,66)           112.1483                                         !
 ! A114  A(65,52,66)           106.8024                                         !
 ! A115  A(52,53,54)           120.2492                                         !
 ! A116  A(52,53,67)           113.6848                                         !
 ! A117  A(54,53,67)           111.7338                                         !
 ! A118  A(53,54,55)           128.6309                                         !
 ! A119  A(53,54,56)           110.5035                                         !
 ! A120  A(55,54,56)           120.864                                          !
 ! A121  A(54,55,68)           112.6799                                         !
 ! A122  A(54,56,69)           112.9287                                         !
 ! A123  A(54,56,70)           110.4387                                         !
 ! A124  A(69,56,70)           111.4107                                         !
 ! A125  A(48,57,58)           108.8696                                         !
 ! D1    D(15,1,2,3)          -166.426                                          !
 ! D2    D(15,1,2,5)            66.9407                                         !
 ! D3    D(15,1,2,16)          -52.5864                                         !
 ! D4    D(25,1,2,3)           -42.6417                                         !
 ! D5    D(25,1,2,5)          -169.275                                          !
 ! D6    D(25,1,2,16)           71.198                                          !
 ! D7    D(26,1,2,3)            72.1097                                         !
 ! D8    D(26,1,2,5)           -54.5236                                         !
 ! D9    D(26,1,2,16)         -174.0507                                         !
 ! D10   D(1,2,3,4)             26.2796                                         !
 ! D11   D(1,2,3,27)          -151.438                                          !
 ! D12   D(5,2,3,4)            147.9489                                         !
 ! D13   D(5,2,3,27)           -29.7687                                         !
 ! D14   D(16,2,3,4)           -85.4603                                         !
 ! D15   D(16,2,3,27)           96.8221                                         !
 ! D16   D(1,2,5,6)            -38.1716                                         !
 ! D17   D(1,2,5,17)            82.9613                                         !
 ! D18   D(1,2,5,18)          -160.468                                          !
 ! D19   D(3,2,5,6)           -156.311                                          !
 ! D20   D(3,2,5,17)           -35.1781                                         !
 ! D21   D(3,2,5,18)            81.3926                                         !
 ! D22   D(16,2,5,6)            78.1923                                         !
 ! D23   D(16,2,5,17)         -160.6748                                         !
 ! D24   D(16,2,5,18)          -44.1041                                         !
 ! D25   D(2,3,27,28)         -175.5892                                         !
 ! D26   D(2,3,27,35)           -8.0541                                         !
 ! D27   D(4,3,27,28)            6.8782                                         !
 ! D28   D(4,3,27,35)          174.4133                                         !
 ! D29   D(2,5,6,7)            119.7693                                         !
 ! D30   D(2,5,6,8)            -54.5193                                         !
 ! D31   D(17,5,6,7)            -0.9068                                         !
 ! D32   D(17,5,6,8)          -175.1954                                         !
 ! D33   D(18,5,6,7)          -120.2411                                         !
 ! D34   D(18,5,6,8)            65.4702                                         !
 ! D35   D(5,6,7,11)          -175.613                                          !
 ! D36   D(5,6,7,19)             4.5758                                         !
 ! D37   D(8,6,7,11)            -0.3534                                         !
 ! D38   D(8,6,7,19)           179.8354                                         !
 ! D39   D(5,6,8,9)            175.3989                                         !
 ! D40   D(5,6,8,10)            -4.2176                                         !
 ! D41   D(7,6,8,9)              0.2362                                         !
 ! D42   D(7,6,8,10)          -179.3804                                         !
 ! D43   D(6,7,11,9)             0.3415                                         !
 ! D44   D(6,7,11,20)         -176.1459                                         !
 ! D45   D(19,7,11,9)         -179.829                                          !
 ! D46   D(19,7,11,20)           3.6836                                         !
 ! D47   D(6,8,9,11)            -0.0355                                         !
 ! D48   D(6,8,9,12)          -179.7083                                         !
 ! D49   D(10,8,9,11)          179.6516                                         !
 ! D50   D(10,8,9,12)           -0.0212                                         !
 ! D51   D(6,8,10,13)          179.2795                                         !
 ! D52   D(6,8,10,21)           -3.0574                                         !
 ! D53   D(9,8,10,13)           -0.3013                                         !
 ! D54   D(9,8,10,21)          177.3618                                         !
 ! D55   D(8,9,11,7)            -0.1814                                         !
 ! D56   D(8,9,11,20)          176.3074                                         !
 ! D57   D(12,9,11,7)          179.4556                                         !
 ! D58   D(12,9,11,20)          -4.0557                                         !
 ! D59   D(8,9,12,14)            0.3554                                         !
 ! D60   D(8,9,12,22)         -179.5394                                         !
 ! D61   D(11,9,12,14)        -179.2342                                         !
 ! D62   D(11,9,12,22)           0.871                                          !
 ! D63   D(8,10,13,14)           0.2869                                         !
 ! D64   D(8,10,13,23)         179.46                                           !
 ! D65   D(21,10,13,14)       -177.4009                                         !
 ! D66   D(21,10,13,23)          1.7723                                         !
 ! D67   D(9,12,14,13)          -0.3736                                         !
 ! D68   D(9,12,14,24)        -179.954                                          !
 ! D69   D(22,12,14,13)        179.5214                                         !
 ! D70   D(22,12,14,24)         -0.0591                                         !
 ! D71   D(10,13,14,12)          0.0588                                         !
 ! D72   D(10,13,14,24)        179.6393                                         !
 ! D73   D(23,13,14,12)       -179.1176                                         !
 ! D74   D(23,13,14,24)          0.4629                                         !
 ! D75   D(3,27,28,29)         -36.8365                                         !
 ! D76   D(3,27,28,31)          89.6137                                         !
 ! D77   D(3,27,28,36)        -152.6215                                         !
 ! D78   D(35,27,28,29)        155.3937                                         !
 ! D79   D(35,27,28,31)        -78.1561                                         !
 ! D80   D(35,27,28,36)         39.6088                                         !
 ! D81   D(27,28,29,30)        121.4742                                         !
 ! D82   D(27,28,29,46)        -66.5089                                         !
 ! D83   D(31,28,29,30)         -5.8015                                         !
 ! D84   D(31,28,29,46)        166.2154                                         !
 ! D85   D(36,28,29,30)       -124.029                                          !
 ! D86   D(36,28,29,46)         47.9879                                         !
 ! D87   D(27,28,31,32)        162.017                                          !
 ! D88   D(27,28,31,33)         38.8287                                         !
 ! D89   D(27,28,31,37)        -80.4604                                         !
 ! D90   D(29,28,31,32)        -71.1312                                         !
 ! D91   D(29,28,31,33)        165.6805                                         !
 ! D92   D(29,28,31,37)         46.3914                                         !
 ! D93   D(36,28,31,32)         46.293                                          !
 ! D94   D(36,28,31,33)        -76.8953                                         !
 ! D95   D(36,28,31,37)        163.8156                                         !
 ! D96   D(28,29,46,47)         25.5215                                         !
 ! D97   D(28,29,46,59)       -177.5337                                         !
 ! D98   D(30,29,46,47)       -162.328                                          !
 ! D99   D(30,29,46,59)         -5.3831                                         !
 ! D100  D(28,31,32,34)        163.7638                                         !
 ! D101  D(28,31,32,38)        -73.5394                                         !
 ! D102  D(28,31,32,39)         42.8492                                         !
 ! D103  D(33,31,32,34)        -72.9489                                         !
 ! D104  D(33,31,32,38)         49.7479                                         !
 ! D105  D(33,31,32,39)        166.1365                                         !
 ! D106  D(37,31,32,34)         47.2657                                         !
 ! D107  D(37,31,32,38)        169.9625                                         !
 ! D108  D(37,31,32,39)        -73.6489                                         !
 ! D109  D(28,31,33,40)        175.4311                                         !
 ! D110  D(28,31,33,41)        -65.3581                                         !
 ! D111  D(28,31,33,42)         56.5328                                         !
 ! D112  D(32,31,33,40)         53.0976                                         !
 ! D113  D(32,31,33,41)        172.3084                                         !
 ! D114  D(32,31,33,42)        -65.8007                                         !
 ! D115  D(37,31,33,40)        -66.6904                                         !
 ! D116  D(37,31,33,41)         52.5204                                         !
 ! D117  D(37,31,33,42)        174.4113                                         !
 ! D118  D(31,32,34,43)        -59.7481                                         !
 ! D119  D(31,32,34,44)       -178.9725                                         !
 ! D120  D(31,32,34,45)         61.1003                                         !
 ! D121  D(38,32,34,43)        178.2761                                         !
 ! D122  D(38,32,34,44)         59.0518                                         !
 ! D123  D(38,32,34,45)        -60.8755                                         !
 ! D124  D(39,32,34,43)         61.8258                                         !
 ! D125  D(39,32,34,44)        -57.3985                                         !
 ! D126  D(39,32,34,45)       -177.3258                                         !
 ! D127  D(29,46,47,48)         78.947                                          !
 ! D128  D(29,46,47,50)        -51.8797                                         !
 ! D129  D(29,46,47,60)       -169.9311                                         !
 ! D130  D(59,46,47,48)        -77.2699                                         !
 ! D131  D(59,46,47,50)        151.9034                                         !
 ! D132  D(59,46,47,60)         33.852                                          !
 ! D133  D(46,47,48,49)       -113.9296                                         !
 ! D134  D(46,47,48,57)         63.0745                                         !
 ! D135  D(50,47,48,49)         18.0159                                         !
 ! D136  D(50,47,48,57)       -164.98                                           !
 ! D137  D(60,47,48,49)        135.205                                          !
 ! D138  D(60,47,48,57)        -47.7909                                         !
 ! D139  D(46,47,50,51)       -176.3144                                         !
 ! D140  D(46,47,50,61)        -54.5021                                         !
 ! D141  D(46,47,50,62)         61.3445                                         !
 ! D142  D(48,47,50,51)         55.1349                                         !
 ! D143  D(48,47,50,61)        176.9472                                         !
 ! D144  D(48,47,50,62)        -67.2062                                         !
 ! D145  D(60,47,50,51)        -60.2236                                         !
 ! D146  D(60,47,50,61)         61.5886                                         !
 ! D147  D(60,47,50,62)        177.4352                                         !
 ! D148  D(47,48,57,58)       -174.9848                                         !
 ! D149  D(49,48,57,58)          2.1699                                         !
 ! D150  D(47,50,51,52)         47.3843                                         !
 ! D151  D(47,50,51,63)        -75.9123                                         !
 ! D152  D(47,50,51,64)        168.9315                                         !
 ! D153  D(61,50,51,52)        -72.6003                                         !
 ! D154  D(61,50,51,63)        164.1032                                         !
 ! D155  D(61,50,51,64)         48.9469                                         !
 ! D156  D(62,50,51,52)        171.021                                          !
 ! D157  D(62,50,51,63)         47.7244                                         !
 ! D158  D(62,50,51,64)        -67.4318                                         !
 ! D159  D(50,51,52,53)        -74.1686                                         !
 ! D160  D(50,51,52,65)         44.3187                                         !
 ! D161  D(50,51,52,66)        161.5866                                         !
 ! D162  D(63,51,52,53)         49.4755                                         !
 ! D163  D(63,51,52,65)        167.9629                                         !
 ! D164  D(63,51,52,66)        -74.7692                                         !
 ! D165  D(64,51,52,53)        164.9297                                         !
 ! D166  D(64,51,52,65)        -76.583                                          !
 ! D167  D(64,51,52,66)         40.6849                                         !
 ! D168  D(51,52,53,54)        163.0766                                         !
 ! D169  D(51,52,53,67)        -60.5465                                         !
 ! D170  D(65,52,53,54)         43.351                                          !
 ! D171  D(65,52,53,67)        179.7279                                         !
 ! D172  D(66,52,53,54)        -73.8819                                         !
 ! D173  D(66,52,53,67)         62.495                                          !
 ! D174  D(52,53,54,55)          0.2703                                         !
 ! D175  D(52,53,54,56)       -179.2686                                         !
 ! D176  D(67,53,54,55)       -136.8745                                         !
 ! D177  D(67,53,54,56)         43.5866                                         !
 ! D178  D(53,54,55,68)         10.7958                                         !
 ! D179  D(56,54,55,68)       -169.7074                                         !
 ! D180  D(53,54,56,69)         51.8509                                         !
 ! D181  D(53,54,56,70)        177.3462                                         !
 ! D182  D(55,54,56,69)       -127.7295                                         !
 ! D183  D(55,54,56,70)         -2.2341                                         !
 --------------------------------------------------------------------------------
 Symmetry turned off by external request.
 Stoichiometry    C23H36N7O4(1+)
 Framework group  C1[X(C23H36N7O4)]
 Deg. of freedom   204
 Full point group                 C1      NOp   1
                          Input orientation:                          
 ---------------------------------------------------------------------
 Center     Atomic      Atomic             Coordinates (Angstroms)
 Number     Number       Type             X           Y           Z
 ---------------------------------------------------------------------
      1          7           0      -97.431991  -12.944020    3.714376
      2          6           0      -97.241494  -14.437659    3.628682
      3          6           0      -97.082909  -14.863854    5.105301
      4          8           0      -97.600415  -14.161207    5.974081
      5          6           0      -96.087749  -14.771979    2.656031
      6          6           0      -96.075016  -13.861484    1.464839
      7          6           0      -95.044473  -13.024262    1.103659
      8          6           0      -97.161499  -13.603295    0.547944
      9          6           0      -96.710688  -12.595026   -0.349429
     10          6           0      -98.466821  -14.113740    0.397461
     11          7           0      -95.418552  -12.268643    0.016663
     12          6           0      -97.516374  -12.092507   -1.375937
     13          6           0      -99.271421  -13.611519   -0.617046
     14          6           0      -98.800166  -12.611187   -1.493273
     15          1           0      -97.771084  -12.562694    2.824085
     16          1           0      -98.190023  -14.833628    3.253935
     17          1           0      -95.139519  -14.683444    3.193146
     18          1           0      -96.210774  -15.821091    2.353524
     19          1           0      -94.063660  -12.915405    1.546336
     20          1           0      -94.821987  -11.618436   -0.473179
     21          1           0      -98.832896  -14.914321    1.036037
     22          1           0      -97.152885  -11.328001   -2.056244
     23          1           0     -100.275659  -14.002347   -0.749231
     24          1           0      -99.452061  -12.243951   -2.279777
     25          1           0      -98.076264  -12.766960    4.500098
     26          1           0      -96.518520  -12.524000    3.970105
     27          7           0      -96.341312  -15.959544    5.330150
     28          6           0      -96.131468  -16.598946    6.641170
     29          6           0      -96.020437  -15.556735    7.785508
     30          8           0      -96.795863  -15.591013    8.723591
     31          6           0      -97.199498  -17.674087    6.962262
     32          6           0      -96.684278  -18.594767    8.091200
     33          6           0      -97.564802  -18.486620    5.710596
     34          6           0      -97.786638  -19.428459    8.752542
     35          1           0      -96.044105  -16.498972    4.528614
     36          1           0      -95.155844  -17.093876    6.561332
     37          1           0      -98.088205  -17.144137    7.322124
     38          1           0      -95.908518  -19.257488    7.678528
     39          1           0      -96.205726  -17.986949    8.864624
     40          1           0      -98.257129  -19.292002    5.967765
     41          1           0      -98.057565  -17.876193    4.945554
     42          1           0      -96.676756  -18.954410    5.262015
     43          1           0      -98.549235  -18.776800    9.193730
     44          1           0      -97.371266  -20.047094    9.554651
     45          1           0      -98.283179  -20.101451    8.045039
     46          7           0      -94.947126  -14.680372    7.844757
     47          6           0      -94.001157  -14.090892    6.886702
     48          6           0      -94.680903  -12.930828    6.151492
     49          8           0      -94.957551  -12.884359    4.957848
     50          6           0      -93.271875  -15.075094    5.963359
     51          6           0      -92.216852  -14.454403    5.023071
     52          6           0      -91.237306  -13.478816    5.683792
     53          7           0      -91.902501  -12.211331    5.970706
     54          6           0      -91.329269  -11.297219    6.882483
     55          7           0      -90.240750  -11.405482    7.542308
     56          7           0      -92.139970  -10.164972    7.016200
     57          8           0      -95.013591  -11.949303    7.002023
     58          1           0      -95.512894  -11.266641    6.516173
     59          1           0      -95.048673  -14.119219    8.684862
     60          1           0      -93.249935  -13.611127    7.516813
     61          1           0      -92.792173  -15.811157    6.618861
     62          1           0      -93.991386  -15.612463    5.344570
     63          1           0      -92.720797  -13.943407    4.193060
     64          1           0      -91.646598  -15.277757    4.577811
     65          1           0      -90.886241  -13.894357    6.635998
     66          1           0      -90.348940  -13.346524    5.047561
     67          1           0      -92.261787  -11.742887    5.144268
     68          1           0      -89.668629  -12.190311    7.231064
     69          1           0      -93.106337  -10.393212    7.228906
     70          1           0      -91.749508   -9.528659    7.703920
 ---------------------------------------------------------------------
 Rotational constants (GHZ):           0.1258390           0.0867069           0.0577886
 Standard basis: 6-31G(d) (6D, 7F)
   582 basis functions,  1096 primitive gaussians,   582 cartesian basis functions
   127 alpha electrons      127 beta electrons
       nuclear repulsion energy      3844.9345480374 Hartrees.
 NAtoms=   70 NActive=   70 NUniq=   70 SFac= 1.00D+00 NAtFMM=   60 NAOKFM=T Big=T
 Integral buffers will be    131072 words long.
 Raffenetti 2 integral format.
 Two-electron integral symmetry is turned off.
 Nuclear repulsion after empirical dispersion term =     3844.8397847239 Hartrees.
 One-electron integrals computed using PRISM.
 NBasis=   582 RedAO= T EigKep=  3.77D-04  NBF=   582
 NBsUse=   582 1.00D-06 EigRej= -1.00D+00 NBFU=   582
 Initial guess from the checkpoint file:  "conf-102.chk"
 B after Tr=     0.000000    0.000000    0.000000
         Rot=    1.000000    0.000000    0.000000    0.000000 Ang=   0.00 deg.
 Requested convergence on RMS density matrix=1.00D-08 within 128 cycles.
 Requested convergence on MAX density matrix=1.00D-06.
 Requested convergence on             energy=1.00D-06.
 No special actions if energy rises.
 SCF Done:  E(RB3LYP) =  -1582.20063507     A.U. after    1 cycles
            NFock=  1  Conv=0.92D-08     -V/T= 2.0095

 **********************************************************************

            Population analysis using the SCF Density.

 **********************************************************************

 Alpha  occ. eigenvalues --  -19.33557 -19.28814 -19.26032 -19.21534 -14.58863
 Alpha  occ. eigenvalues --  -14.50455 -14.49495 -14.46469 -14.44203 -14.41620
 Alpha  occ. eigenvalues --  -14.36836 -10.46339 -10.43551 -10.40221 -10.39582
 Alpha  occ. eigenvalues --  -10.36059 -10.35987 -10.34953 -10.34027 -10.34003
 Alpha  occ. eigenvalues --  -10.33132 -10.31978 -10.30695 -10.30618 -10.30093
 Alpha  occ. eigenvalues --  -10.29878 -10.29810 -10.29458 -10.28820 -10.28683
 Alpha  occ. eigenvalues --  -10.28315 -10.27022 -10.25853 -10.24178  -1.24742
 Alpha  occ. eigenvalues --   -1.18744  -1.15693  -1.13979  -1.13320  -1.09468
 Alpha  occ. eigenvalues --   -1.06804  -1.05799  -1.02695  -0.97399  -0.95148
 Alpha  occ. eigenvalues --   -0.94028  -0.92211  -0.90991  -0.90504  -0.88678
 Alpha  occ. eigenvalues --   -0.85405  -0.84504  -0.83977  -0.82855  -0.80238
 Alpha  occ. eigenvalues --   -0.79917  -0.79415  -0.74751  -0.74442  -0.73892
 Alpha  occ. eigenvalues --   -0.73244  -0.72059  -0.71777  -0.70322  -0.69914
 Alpha  occ. eigenvalues --   -0.68329  -0.67375  -0.66783  -0.65643  -0.65037
 Alpha  occ. eigenvalues --   -0.64901  -0.63540  -0.63042  -0.62724  -0.62375
 Alpha  occ. eigenvalues --   -0.62130  -0.59816  -0.59422  -0.58882  -0.57958
 Alpha  occ. eigenvalues --   -0.57367  -0.57298  -0.56951  -0.56050  -0.55635
 Alpha  occ. eigenvalues --   -0.55370  -0.55123  -0.53959  -0.53889  -0.53848
 Alpha  occ. eigenvalues --   -0.53651  -0.53166  -0.53019  -0.52489  -0.52160
 Alpha  occ. eigenvalues --   -0.50695  -0.50574  -0.49840  -0.49760  -0.49406
 Alpha  occ. eigenvalues --   -0.49243  -0.48527  -0.47463  -0.46613  -0.46400
 Alpha  occ. eigenvalues --   -0.46218  -0.46126  -0.45498  -0.45064  -0.44487
 Alpha  occ. eigenvalues --   -0.44257  -0.44190  -0.43778  -0.42867  -0.42598
 Alpha  occ. eigenvalues --   -0.40861  -0.40640  -0.40022  -0.38764  -0.38362
 Alpha  occ. eigenvalues --   -0.35927  -0.35065  -0.34701  -0.33656  -0.33401
 Alpha  occ. eigenvalues --   -0.31899  -0.31656
 Alpha virt. eigenvalues --   -0.14079  -0.12594  -0.11804  -0.09397  -0.08607
 Alpha virt. eigenvalues --   -0.07878  -0.06521  -0.05329  -0.04817  -0.04332
 Alpha virt. eigenvalues --   -0.03545  -0.03009  -0.02086  -0.01914  -0.01539
 Alpha virt. eigenvalues --   -0.00555   0.00065   0.00328   0.00962   0.01471
 Alpha virt. eigenvalues --    0.01556   0.02167   0.02491   0.03144   0.03817
 Alpha virt. eigenvalues --    0.04378   0.04735   0.04987   0.05575   0.05919
 Alpha virt. eigenvalues --    0.05956   0.06702   0.06822   0.07305   0.07601
 Alpha virt. eigenvalues --    0.07935   0.08384   0.08715   0.09061   0.09265
 Alpha virt. eigenvalues --    0.09557   0.09781   0.09941   0.10521   0.10806
 Alpha virt. eigenvalues --    0.10961   0.11388   0.11668   0.11804   0.12986
 Alpha virt. eigenvalues --    0.13545   0.14053   0.14486   0.14768   0.15208
 Alpha virt. eigenvalues --    0.15698   0.16197   0.16535   0.16803   0.17219
 Alpha virt. eigenvalues --    0.18419   0.19372   0.20015   0.20267   0.20900
 Alpha virt. eigenvalues --    0.21598   0.22866   0.23511   0.24384   0.25531
 Alpha virt. eigenvalues --    0.25756   0.26720   0.29077   0.29381   0.31416
 Alpha virt. eigenvalues --    0.32358   0.34386   0.34995   0.35717   0.37695
 Alpha virt. eigenvalues --    0.38283   0.39349   0.40318   0.40914   0.41667
 Alpha virt. eigenvalues --    0.42166   0.42690   0.42876   0.43291   0.43884
 Alpha virt. eigenvalues --    0.44212   0.44939   0.45137   0.45865   0.45938
 Alpha virt. eigenvalues --    0.46609   0.47314   0.47442   0.47544   0.47989
 Alpha virt. eigenvalues --    0.48481   0.49154   0.49691   0.50039   0.50400
 Alpha virt. eigenvalues --    0.50494   0.50789   0.51072   0.51639   0.52061
 Alpha virt. eigenvalues --    0.52129   0.52322   0.52939   0.53571   0.53930
 Alpha virt. eigenvalues --    0.54235   0.54664   0.55419   0.56130   0.56456
 Alpha virt. eigenvalues --    0.57072   0.57231   0.57502   0.58239   0.59320
 Alpha virt. eigenvalues --    0.59870   0.60532   0.61813   0.62048   0.62178
 Alpha virt. eigenvalues --    0.63336   0.63428   0.65034   0.65280   0.66069
 Alpha virt. eigenvalues --    0.66259   0.66500   0.67126   0.67382   0.68523
 Alpha virt. eigenvalues --    0.68852   0.69319   0.69876   0.70423   0.70990
 Alpha virt. eigenvalues --    0.71746   0.71838   0.72618   0.72940   0.73226
 Alpha virt. eigenvalues --    0.73778   0.73948   0.74552   0.74821   0.75153
 Alpha virt. eigenvalues --    0.76078   0.76223   0.76533   0.76785   0.77261
 Alpha virt. eigenvalues --    0.77399   0.77913   0.78246   0.78767   0.79045
 Alpha virt. eigenvalues --    0.79828   0.80358   0.80726   0.81154   0.81706
 Alpha virt. eigenvalues --    0.82402   0.82601   0.82931   0.83231   0.83415
 Alpha virt. eigenvalues --    0.83943   0.84117   0.84524   0.84767   0.85215
 Alpha virt. eigenvalues --    0.85753   0.86327   0.86908   0.87193   0.87798
 Alpha virt. eigenvalues --    0.88119   0.88318   0.88634   0.88874   0.89922
 Alpha virt. eigenvalues --    0.90601   0.91909   0.92115   0.92869   0.93104
 Alpha virt. eigenvalues --    0.93671   0.94126   0.94574   0.95026   0.96843
 Alpha virt. eigenvalues --    0.97305   0.97470   0.98790   0.99502   1.01283
 Alpha virt. eigenvalues --    1.01710   1.02363   1.02972   1.03667   1.04257
 Alpha virt. eigenvalues --    1.06091   1.06719   1.07845   1.08278   1.09206
 Alpha virt. eigenvalues --    1.10315   1.12450   1.13396   1.13780   1.14494
 Alpha virt. eigenvalues --    1.15272   1.16338   1.17039   1.17770   1.18733
 Alpha virt. eigenvalues --    1.20484   1.21908   1.22637   1.23458   1.23780
 Alpha virt. eigenvalues --    1.24665   1.26351   1.27076   1.27587   1.28910
 Alpha virt. eigenvalues --    1.29349   1.29904   1.30360   1.30869   1.31131
 Alpha virt. eigenvalues --    1.31976   1.33240   1.33709   1.35080   1.36121
 Alpha virt. eigenvalues --    1.38240   1.38506   1.39046   1.39461   1.39866
 Alpha virt. eigenvalues --    1.40269   1.40966   1.42671   1.45615   1.46196
 Alpha virt. eigenvalues --    1.47245   1.47586   1.48214   1.49098   1.50175
 Alpha virt. eigenvalues --    1.50560   1.52334   1.53450   1.54695   1.55769
 Alpha virt. eigenvalues --    1.56792   1.57666   1.59914   1.60145   1.61555
 Alpha virt. eigenvalues --    1.62709   1.63581   1.63919   1.64360   1.65011
 Alpha virt. eigenvalues --    1.65780   1.66505   1.66834   1.67225   1.68260
 Alpha virt. eigenvalues --    1.69683   1.69822   1.71270   1.71529   1.71856
 Alpha virt. eigenvalues --    1.72432   1.73346   1.73776   1.75398   1.76119
 Alpha virt. eigenvalues --    1.76551   1.76784   1.76992   1.78203   1.78962
 Alpha virt. eigenvalues --    1.80004   1.80283   1.80841   1.82148   1.82565
 Alpha virt. eigenvalues --    1.82976   1.83717   1.84176   1.84633   1.85340
 Alpha virt. eigenvalues --    1.86088   1.86476   1.87111   1.88024   1.89006
 Alpha virt. eigenvalues --    1.89292   1.89779   1.89977   1.90864   1.91158
 Alpha virt. eigenvalues --    1.92122   1.92784   1.93194   1.93553   1.94652
 Alpha virt. eigenvalues --    1.96062   1.96312   1.97402   1.98391   1.99614
 Alpha virt. eigenvalues --    2.00179   2.01893   2.02231   2.02412   2.03402
 Alpha virt. eigenvalues --    2.04049   2.05137   2.05577   2.06349   2.07066
 Alpha virt. eigenvalues --    2.08338   2.09986   2.10647   2.12929   2.14078
 Alpha virt. eigenvalues --    2.14614   2.15041   2.15721   2.15997   2.16732
 Alpha virt. eigenvalues --    2.16779   2.18983   2.19811   2.20613   2.20809
 Alpha virt. eigenvalues --    2.21933   2.22762   2.23293   2.23439   2.23850
 Alpha virt. eigenvalues --    2.24957   2.26009   2.27036   2.28505   2.28621
 Alpha virt. eigenvalues --    2.30229   2.31215   2.32203   2.32883   2.34381
 Alpha virt. eigenvalues --    2.35446   2.35699   2.37370   2.37381   2.39205
 Alpha virt. eigenvalues --    2.39341   2.40462   2.42791   2.42901   2.43457
 Alpha virt. eigenvalues --    2.44364   2.45397   2.45934   2.47564   2.48322
 Alpha virt. eigenvalues --    2.49183   2.50069   2.50483   2.52251   2.53037
 Alpha virt. eigenvalues --    2.54670   2.55156   2.55904   2.56528   2.57377
 Alpha virt. eigenvalues --    2.57901   2.58312   2.60046   2.60155   2.62689
 Alpha virt. eigenvalues --    2.63186   2.63753   2.65381   2.66908   2.67618
 Alpha virt. eigenvalues --    2.70715   2.71359   2.72346   2.74337   2.76877
 Alpha virt. eigenvalues --    2.78487   2.81857   2.85449   2.86843   2.89568
 Alpha virt. eigenvalues --    2.90400   2.93351   2.93596   2.94462   2.97242
 Alpha virt. eigenvalues --    2.97607   3.01836   3.05546   3.07218   3.13667
 Alpha virt. eigenvalues --    3.33038   3.70135   3.75622   3.78453   3.82614
 Alpha virt. eigenvalues --    3.87192   3.90304   3.92289   3.96478   3.99037
 Alpha virt. eigenvalues --    3.99793   4.02205   4.04277   4.06888   4.09529
 Alpha virt. eigenvalues --    4.11343   4.13989   4.16103   4.20025   4.20781
 Alpha virt. eigenvalues --    4.22751   4.24850   4.28822   4.30261   4.34083
 Alpha virt. eigenvalues --    4.34662   4.37537   4.40997   4.43780   4.45748
 Alpha virt. eigenvalues --    4.49795   4.54328   4.58727   4.62151   4.69137
          Condensed to atoms (all electrons):
 Mulliken charges:
               1
     1  N   -0.747078
     2  C   -0.125050
     3  C    0.668460
     4  O   -0.536076
     5  C   -0.392873
     6  C    0.009870
     7  C    0.012391
     8  C    0.052847
     9  C    0.315214
    10  C   -0.236278
    11  N   -0.679644
    12  C   -0.153581
    13  C   -0.131879
    14  C   -0.148052
    15  H    0.414735
    16  H    0.227743
    17  H    0.200072
    18  H    0.183094
    19  H    0.172724
    20  H    0.350860
    21  H    0.129230
    22  H    0.155756
    23  H    0.153995
    24  H    0.160342
    25  H    0.415124
    26  H    0.424289
    27  N   -0.623502
    28  C   -0.058371
    29  C    0.618287
    30  O   -0.467630
    31  C   -0.062300
    32  C   -0.268710
    33  C   -0.475697
    34  C   -0.454920
    35  H    0.355174
    36  H    0.171972
    37  H    0.173360
    38  H    0.128380
    39  H    0.164223
    40  H    0.183354
    41  H    0.124817
    42  H    0.137173
    43  H    0.163918
    44  H    0.161576
    45  H    0.148227
    46  N   -0.617413
    47  C   -0.035554
    48  C    0.665133
    49  O   -0.543130
    50  C   -0.287672
    51  C   -0.292893
    52  C   -0.145548
    53  N   -0.630043
    54  C    0.559284
    55  N   -0.613523
    56  N   -0.755970
    57  O   -0.544079
    58  H    0.419928
    59  H    0.354789
    60  H    0.214254
    61  H    0.174678
    62  H    0.143567
    63  H    0.145624
    64  H    0.163375
    65  H    0.169014
    66  H    0.163853
    67  H    0.325923
    68  H    0.287864
    69  H    0.316479
    70  H    0.346492
 Sum of Mulliken charges =   1.00000
 Mulliken charges with hydrogens summed into heavy atoms:
               1
     1  N    0.507070
     2  C    0.102693
     3  C    0.668460
     4  O   -0.536076
     5  C   -0.009708
     6  C    0.009870
     7  C    0.185114
     8  C    0.052847
     9  C    0.315214
    10  C   -0.107048
    11  N   -0.328784
    12  C    0.002176
    13  C    0.022116
    14  C    0.012290
    27  N   -0.268329
    28  C    0.113602
    29  C    0.618287
    30  O   -0.467630
    31  C    0.111060
    32  C    0.023893
    33  C   -0.030353
    34  C    0.018801
    46  N   -0.262624
    47  C    0.178700
    48  C    0.665133
    49  O   -0.543130
    50  C    0.030574
    51  C    0.016106
    52  C    0.187320
    53  N   -0.304120
    54  C    0.559284
    55  N   -0.325659
    56  N   -0.092998
    57  O   -0.124151
 Electronic spatial extent (au):  <R**2>=        8504244.6528
 Charge=              1.0000 electrons
 Dipole moment (field-independent basis, Debye):
    X=           -461.1478    Y=            -65.7855    Z=             14.2089  Tot=            466.0332
 Quadrupole moment (field-independent basis, Debye-Ang):
   XX=          44091.4669   YY=            734.5700   ZZ=           -142.6737
   XY=           6305.8502   XZ=          -1356.8340   YZ=           -211.6223
 Traceless Quadrupole moment (field-independent basis, Debye-Ang):
   XX=          29197.0125   YY=         -14159.8844   ZZ=         -15037.1281
   XY=           6305.8502   XZ=          -1356.8340   YZ=           -211.6223
 Octapole moment (field-independent basis, Debye-Ang**2):
  XXX=       -4198403.5339  YYY=          -5225.6651  ZZZ=          -2666.3262  XYY=         -70367.7161
  XXY=        -601908.1824  XXZ=         128598.4794  XZZ=          13648.2261  YZZ=           2008.1283
  YYZ=           2372.5840  XYZ=          20129.7580
 Hexadecapole moment (field-independent basis, Debye-Ang**3):
 XXXX=      398115921.6806 YYYY=         -39524.9191 ZZZZ=         -38143.3316 XXXY=       57210751.4822
 XXXZ=      -12097212.4224 YYYX=         499752.5685 YYYZ=         -12228.2260 ZZZX=         253253.8770
 ZZZY=          39283.6335 XXYY=        6703180.2979 XXZZ=       -1313661.1368 YYZZ=         -34382.8488
 XXYZ=       -1900999.8149 YYXZ=        -225261.4001 ZZXY=        -193211.4000
 N-N= 3.844839784724D+03 E-N=-1.134209218194D+04  KE= 1.567316633205D+03
 Unable to Open any file for archive entry.
 1\1\GINC-QML-003\SP\RB3LYP\6-31G(d)\C23H36N7O4(1+)\KENGMITH\24-May-202
 2\0\\# B3LYP/6-31G* empiricaldispersion=gd3 guess=read geom=check nosy
 mm integral(ultrafinegrid)\\Candidate Structure: Conf:102 Charge calc 
 in gas phase\\1,1\N,0,-97.4319912759,-12.9440201736,3.7143764495\C,0,-
 97.2414936019,-14.4376593782,3.6286820122\C,0,-97.0829091334,-14.86385
 39172,5.1053007705\O,0,-97.6004149073,-14.1612074112,5.9740810689\C,0,
 -96.0877494386,-14.7719788828,2.6560309313\C,0,-96.0750155012,-13.8614
 837907,1.4648390739\C,0,-95.0444727074,-13.024262275,1.1036594552\C,0,
 -97.1614990402,-13.6032952028,0.5479444577\C,0,-96.710687747,-12.59502
 60046,-0.3494292836\C,0,-98.4668205735,-14.1137403975,0.3974613464\N,0
 ,-95.418551632,-12.2686430977,0.0166634966\C,0,-97.5163742229,-12.0925
 071544,-1.3759368859\C,0,-99.2714208967,-13.6115193338,-0.6170463864\C
 ,0,-98.8001660489,-12.6111874756,-1.4932725886\H,0,-97.7710840387,-12.
 5626941767,2.8240853207\H,0,-98.1900232864,-14.8336284236,3.2539352181
 \H,0,-95.1395185949,-14.6834443486,3.1931457352\H,0,-96.2107742715,-15
 .8210913109,2.3535241481\H,0,-94.0636599347,-12.9154047378,1.546336203
 2\H,0,-94.8219871182,-11.6184360399,-0.4731794672\H,0,-98.8328963362,-
 14.9143214478,1.0360370544\H,0,-97.1528854942,-11.3280007983,-2.056244
 4573\H,0,-100.2756593871,-14.0023473395,-0.7492313154\H,0,-99.45206144
 08,-12.243951426,-2.2797773756\H,0,-98.0762638455,-12.7669595525,4.500
 0983187\H,0,-96.5185196306,-12.5240001927,3.9701050956\N,0,-96.3413115
 272,-15.9595441389,5.3301500676\C,0,-96.1314675454,-16.5989460009,6.64
 11696173\C,0,-96.0204373297,-15.5567349464,7.7855078756\O,0,-96.795863
 0054,-15.591013148,8.7235909563\C,0,-97.1994983046,-17.6740868983,6.96
 22624893\C,0,-96.6842782317,-18.5947668437,8.0912003654\C,0,-97.564801
 503,-18.4866200666,5.710595645\C,0,-97.7866384709,-19.4284587901,8.752
 5418393\H,0,-96.0441054835,-16.4989715093,4.5286136049\H,0,-95.1558439
 862,-17.0938755889,6.5613320292\H,0,-98.0882053416,-17.1441369055,7.32
 21235812\H,0,-95.9085176217,-19.2574882893,7.6785280663\H,0,-96.205725
 619,-17.9869487084,8.8646235472\H,0,-98.2571293653,-19.2920018828,5.96
 77653226\H,0,-98.0575650723,-17.8761929668,4.945554163\H,0,-96.6767561
 367,-18.9544103571,5.2620149506\H,0,-98.5492353359,-18.7767995609,9.19
 37297953\H,0,-97.3712660589,-20.0470942222,9.5546511621\H,0,-98.283179
 0196,-20.1014505412,8.0450392764\N,0,-94.9471261969,-14.6803720443,7.8
 44756774\C,0,-94.0011572448,-14.090892199,6.8867024528\C,0,-94.6809028
 544,-12.9308278778,6.1514921944\O,0,-94.9575506712,-12.8843588306,4.95
 78479436\C,0,-93.2718748522,-15.075093722,5.9633591943\C,0,-92.2168516
 743,-14.4544034123,5.0230713952\C,0,-91.2373057605,-13.4788162033,5.68
 37916989\N,0,-91.9025014626,-12.211330538,5.9707062797\C,0,-91.3292692
 703,-11.2972194866,6.8824829474\N,0,-90.2407500222,-11.4054820415,7.54
 23082863\N,0,-92.1399704415,-10.1649723413,7.0161997578\O,0,-95.013590
 8044,-11.9493031886,7.0020232213\H,0,-95.5128943499,-11.2666411955,6.5
 161733119\H,0,-95.0486730847,-14.1192188624,8.6848624245\H,0,-93.24993
 52491,-13.6111272309,7.5168128255\H,0,-92.7921725233,-15.8111567829,6.
 6188610415\H,0,-93.9913857616,-15.6124626154,5.3445698342\H,0,-92.7207
 965488,-13.943407057,4.1930602796\H,0,-91.6465984338,-15.2777574994,4.
 5778106852\H,0,-90.8862413821,-13.894357436,6.6359982627\H,0,-90.34893
 97711,-13.3465242095,5.047561312\H,0,-92.2617870533,-11.7428871629,5.1
 442681155\H,0,-89.6686288467,-12.1903105611,7.2310643192\H,0,-93.10633
 72509,-10.3932122503,7.2289059768\H,0,-91.7495083352,-9.5286593969,7.7
 03920445\\Version=ES64L-G16RevC.01\HF=-1582.2006351\RMSD=9.162e-09\Dip
 ole=-0.84967,0.9567545,-3.320441\Quadrupole=21707.2631798,-10527.52701
 14,-11179.7361685,4688.2450888,-1008.7727919,-157.3360242\PG=C01 [X(C2
 3H36N7O4)]\\@
 The archive entry for this job was punched.


 Time has a wonderful way of weeding out the trivial.
                                -- Richard Ben Sapir
 Job cpu time:       0 days  0 hours  2 minutes 21.0 seconds.
 Elapsed time:       0 days  0 hours  0 minutes 35.7 seconds.
 File lengths (MBytes):  RWF=    296 Int=      0 D2E=      0 Chk=     40 Scr=     16
 Normal termination of Gaussian 16 at Tue May 24 23:12:43 2022.
