 Entering Gaussian System, Link 0=/opt/software/Gaussian/g16-AVX-C.01/g16/g16
 Input=charge-conf-304.com
 Output=charge-conf-304.log
 Initial command:
 /opt/software/Gaussian/g16-AVX-C.01/g16/l1.exe "/mnt/gs18/scratch/users/kengmith/Gau-37603.inp" -scrdir="/mnt/gs18/scratch/users/kengmith/"
 Entering Link 1 = /opt/software/Gaussian/g16-AVX-C.01/g16/l1.exe PID=     37619.
  
 Copyright (c) 1988-2019, Gaussian, Inc.  All Rights Reserved.
  
 This is part of the Gaussian(R) 16 program.  It is based on
 the Gaussian(R) 09 system (copyright 2009, Gaussian, Inc.),
 the Gaussian(R) 03 system (copyright 2003, Gaussian, Inc.),
 the Gaussian(R) 98 system (copyright 1998, Gaussian, Inc.),
 the Gaussian(R) 94 system (copyright 1995, Gaussian, Inc.),
 the Gaussian 92(TM) system (copyright 1992, Gaussian, Inc.),
 the Gaussian 90(TM) system (copyright 1990, Gaussian, Inc.),
 the Gaussian 88(TM) system (copyright 1988, Gaussian, Inc.),
 the Gaussian 86(TM) system (copyright 1986, Carnegie Mellon
 University), and the Gaussian 82(TM) system (copyright 1983,
 Carnegie Mellon University). Gaussian is a federally registered
 trademark of Gaussian, Inc.
  
 This software contains proprietary and confidential information,
 including trade secrets, belonging to Gaussian, Inc.
  
 This software is provided under written license and may be
 used, copied, transmitted, or stored only in accord with that
 written license.
  
 The following legend is applicable only to US Government
 contracts under FAR:
  
                    RESTRICTED RIGHTS LEGEND
  
 Use, reproduction and disclosure by the US Government is
 subject to restrictions as set forth in subparagraphs (a)
 and (c) of the Commercial Computer Software - Restricted
 Rights clause in FAR 52.227-19.
  
 Gaussian, Inc.
 340 Quinnipiac St., Bldg. 40, Wallingford CT 06492
  
  
 ---------------------------------------------------------------
 Warning -- This program may not be used in any manner that
 competes with the business of Gaussian, Inc. or will provide
 assistance to any competitor of Gaussian, Inc.  The licensee
 of this program is prohibited from giving any competitor of
 Gaussian, Inc. access to this program.  By using this program,
 the user acknowledges that Gaussian, Inc. is engaged in the
 business of creating and licensing software in the field of
 computational chemistry and represents and warrants to the
 licensee that it is not a competitor of Gaussian, Inc. and that
 it will not use this program in any manner prohibited above.
 ---------------------------------------------------------------
  

 Cite this work as:
 Gaussian 16, Revision C.01,
 M. J. Frisch, G. W. Trucks, H. B. Schlegel, G. E. Scuseria, 
 M. A. Robb, J. R. Cheeseman, G. Scalmani, V. Barone, 
 G. A. Petersson, H. Nakatsuji, X. Li, M. Caricato, A. V. Marenich, 
 J. Bloino, B. G. Janesko, R. Gomperts, B. Mennucci, H. P. Hratchian, 
 J. V. Ortiz, A. F. Izmaylov, J. L. Sonnenberg, D. Williams-Young, 
 F. Ding, F. Lipparini, F. Egidi, J. Goings, B. Peng, A. Petrone, 
 T. Henderson, D. Ranasinghe, V. G. Zakrzewski, J. Gao, N. Rega, 
 G. Zheng, W. Liang, M. Hada, M. Ehara, K. Toyota, R. Fukuda, 
 J. Hasegawa, M. Ishida, T. Nakajima, Y. Honda, O. Kitao, H. Nakai, 
 T. Vreven, K. Throssell, J. A. Montgomery, Jr., J. E. Peralta, 
 F. Ogliaro, M. J. Bearpark, J. J. Heyd, E. N. Brothers, K. N. Kudin, 
 V. N. Staroverov, T. A. Keith, R. Kobayashi, J. Normand, 
 K. Raghavachari, A. P. Rendell, J. C. Burant, S. S. Iyengar, 
 J. Tomasi, M. Cossi, J. M. Millam, M. Klene, C. Adamo, R. Cammi, 
 J. W. Ochterski, R. L. Martin, K. Morokuma, O. Farkas, 
 J. B. Foresman, and D. J. Fox, Gaussian, Inc., Wallingford CT, 2019.
 
 ******************************************
 Gaussian 16:  ES64L-G16RevC.01  3-Jul-2019
                24-May-2022 
 ******************************************
 %mem=8gb
 %nproc=4
 Will use up to    4 processors via shared memory.
 %chk=conf-304.chk
 ----------------------------------------------------------------------
 # B3LYP/6-31G* empiricaldispersion=gd3 guess=read geom=check nosymm in
 tegral(ultrafinegrid)
 ----------------------------------------------------------------------
 1/29=2,38=1,172=1/1;
 2/12=2,15=1,40=1/2;
 3/5=1,6=6,7=1,11=2,14=-4,25=1,30=1,74=-5,75=-5,116=-2,124=31/1,2,3;
 4/5=1/1;
 5/5=2,38=6/2;
 6/7=2,8=2,9=2,10=2,28=1/1;
 99/5=1,9=1/99;
 ------------------------------------------------------
 Candidate Structure: Conf:304 Charge calc in gas phase
 ------------------------------------------------------
 Structure from the checkpoint file:  "conf-304.chk"
 Charge =  1 Multiplicity = 1
 Redundant internal coordinates found in file.  (old form).
 N,0,-94.4919879628,-12.1853087162,3.1742404926
 C,0,-93.8313580031,-13.4711206821,3.6180895331
 C,0,-94.7464167096,-14.5663390831,3.0308598913
 O,0,-95.3011079045,-14.3483436341,1.9537724914
 C,0,-93.5783178946,-13.4546367894,5.1468764699
 C,0,-93.3241421801,-12.070385978,5.6615690994
 C,0,-94.1299660029,-11.3848259948,6.5426190067
 C,0,-92.2872701073,-11.1577927238,5.2417979027
 C,0,-92.5211240361,-9.9311955254,5.9249307966
 C,0,-91.2001940696,-11.2471132554,4.3493276869
 N,0,-93.6465493431,-10.1079400215,6.7081613141
 C,0,-91.7014824779,-8.8122748466,5.7488134688
 C,0,-90.390125611,-10.1334185763,4.166329249
 C,0,-90.6388843396,-8.9306102978,4.8603737496
 H,0,-95.3767613702,-12.0681095729,3.6961185807
 H,0,-92.8827549844,-13.5055862772,3.0735212559
 H,0,-94.4426767238,-13.8640905586,5.6730936908
 H,0,-92.7244983609,-14.1188957671,5.3359271396
 H,0,-95.0249797989,-11.7235612821,7.0459371915
 H,0,-94.0284413873,-9.4209239016,7.3413682288
 H,0,-90.9728497962,-12.179683435,3.8369980648
 H,0,-91.887323631,-7.8859476082,6.2843363093
 H,0,-89.5435601642,-10.1897785893,3.4889126726
 H,0,-89.983299175,-8.0802894727,4.7003802871
 H,0,-93.8734547137,-11.3822993565,3.3467993145
 H,0,-94.7366497975,-12.2864585017,2.1786498046
 N,0,-94.9442469251,-15.6768363545,3.7685007915
 C,0,-95.6572294192,-16.851678215,3.2355240279
 C,0,-97.0818867657,-16.472091463,2.762994123
 O,0,-97.5311054485,-16.8968099104,1.7190657573
 C,0,-94.8777057371,-17.6182039504,2.1330623577
 C,0,-95.4072398178,-19.0685956601,2.0455082845
 C,0,-93.366618025,-17.6011442252,2.4059900344
 C,0,-95.0212653805,-19.7809575695,0.7453720921
 H,0,-94.3510511127,-15.8273505625,4.5735615613
 H,0,-95.7762698407,-17.5223538185,4.0933523808
 H,0,-95.0781247632,-17.1133431058,1.1826537646
 H,0,-95.0276383507,-19.6328172176,2.9109253032
 H,0,-96.4981682641,-19.0625973843,2.1222901736
 H,0,-92.9381924904,-16.5952164063,2.3363327546
 H,0,-93.1324315867,-18.0072303055,3.3995698585
 H,0,-92.8437671849,-18.2190238114,1.6718271469
 H,0,-95.4252820882,-19.2454197502,-0.1210852501
 H,0,-95.4275178026,-20.7973837869,0.7292724179
 H,0,-93.9360707014,-19.860625906,0.6193767475
 N,0,-97.8870515294,-15.6249785346,3.5409964303
 C,0,-97.8586548787,-15.27032483,4.9720746088
 C,0,-97.1163183804,-13.9476839181,5.1887437636
 O,0,-96.6949507373,-13.5475946219,6.2502943547
 C,0,-97.4405359507,-16.3858634186,5.9526288491
 C,0,-97.8014741747,-16.1596853709,7.4346735342
 C,0,-99.2721280629,-15.8388747357,7.7230945824
 N,0,-99.6092540883,-14.476406639,7.3089358811
 C,0,-100.9255685473,-14.0088233382,7.5089114938
 N,0,-101.9600106507,-14.6730372225,7.8588174361
 N,0,-101.015397084,-12.6329407107,7.2790385051
 O,0,-97.0048349726,-13.1756421101,4.0755560582
 H,0,-97.302622889,-13.7316975707,3.3148054507
 H,0,-98.8193355056,-15.633757023,3.1369220681
 H,0,-98.8923348337,-15.0054701272,5.2306112039
 H,0,-97.9294675135,-17.302490893,5.6010157028
 H,0,-96.3601873145,-16.5534651539,5.8933570337
 H,0,-97.1679466825,-15.3715536857,7.8527797025
 H,0,-97.5461027501,-17.0816510277,7.9698990562
 H,0,-99.9217344174,-16.5337639828,7.1750605001
 H,0,-99.4711182896,-15.9947964079,8.7948330018
 H,0,-98.9182354798,-13.7950632051,7.6121324801
 H,0,-101.7397212828,-15.6269101114,8.1421852947
 H,0,-100.55787752,-12.3154316513,6.4310619196
 H,0,-101.9794782246,-12.3213910298,7.3268205192
 Recover connectivity data from disk.
                           ----------------------------
                           !    Current Parameters    !
                           ! (Angstroms and Degrees)  !
 --------------------------                            --------------------------
 ! Name  Definition              Value                                          !
 --------------------------------------------------------------------------------
 ! R1    R(1,2)                  1.5122                                         !
 ! R2    R(1,15)                 1.0339                                         !
 ! R3    R(1,25)                 1.0282                                         !
 ! R4    R(1,26)                 1.0302                                         !
 ! R5    R(2,3)                  1.5433                                         !
 ! R6    R(2,5)                  1.5497                                         !
 ! R7    R(2,16)                 1.0943                                         !
 ! R8    R(3,4)                  1.231                                          !
 ! R9    R(3,27)                 1.3478                                         !
 ! R10   R(5,6)                  1.4986                                         !
 ! R11   R(5,17)                 1.0916                                         !
 ! R12   R(5,18)                 1.0982                                         !
 ! R13   R(6,7)                  1.3768                                         !
 ! R14   R(6,8)                  1.4437                                         !
 ! R15   R(7,11)                 1.3753                                         !
 ! R16   R(7,19)                 1.0813                                         !
 ! R17   R(8,9)                  1.4233                                         !
 ! R18   R(8,10)                 1.4093                                         !
 ! R19   R(9,11)                 1.3825                                         !
 ! R20   R(9,12)                 1.3981                                         !
 ! R21   R(10,13)                1.3892                                         !
 ! R22   R(10,21)                1.0881                                         !
 ! R23   R(11,20)                1.0093                                         !
 ! R24   R(12,14)                1.3901                                         !
 ! R25   R(12,22)                1.086                                          !
 ! R26   R(13,14)                1.4108                                         !
 ! R27   R(13,23)                1.0857                                         !
 ! R28   R(14,24)                1.0856                                         !
 ! R29   R(27,28)                1.474                                          !
 ! R30   R(27,35)                1.0113                                         !
 ! R31   R(28,29)                1.5482                                         !
 ! R32   R(28,31)                1.5526                                         !
 ! R33   R(28,36)                1.0954                                         !
 ! R34   R(29,30)                1.2132                                         !
 ! R35   R(29,46)                1.404                                          !
 ! R36   R(31,32)                1.5465                                         !
 ! R37   R(31,33)                1.5356                                         !
 ! R38   R(31,37)                1.0947                                         !
 ! R39   R(32,34)                1.5319                                         !
 ! R40   R(32,38)                1.1006                                         !
 ! R41   R(32,39)                1.0936                                         !
 ! R42   R(33,40)                1.0956                                         !
 ! R43   R(33,41)                1.0986                                         !
 ! R44   R(33,42)                1.0928                                         !
 ! R45   R(34,43)                1.0958                                         !
 ! R46   R(34,44)                1.0947                                         !
 ! R47   R(34,45)                1.0954                                         !
 ! R48   R(46,47)                1.4746                                         !
 ! R49   R(46,59)                1.0161                                         !
 ! R50   R(47,48)                1.5321                                         !
 ! R51   R(47,50)                1.543                                          !
 ! R52   R(47,60)                1.0979                                         !
 ! R53   R(48,49)                1.2102                                         !
 ! R54   R(48,57)                1.3593                                         !
 ! R55   R(50,51)                1.542                                          !
 ! R56   R(50,61)                1.0968                                         !
 ! R57   R(50,62)                1.0949                                         !
 ! R58   R(51,52)                1.5326                                         !
 ! R59   R(51,63)                1.0942                                         !
 ! R60   R(51,64)                1.0962                                         !
 ! R61   R(52,53)                1.4634                                         !
 ! R62   R(52,65)                1.0978                                         !
 ! R63   R(52,66)                1.1012                                         !
 ! R64   R(53,54)                1.4111                                         !
 ! R65   R(53,67)                1.0167                                         !
 ! R66   R(54,55)                1.2782                                         !
 ! R67   R(54,56)                1.3978                                         !
 ! R68   R(55,68)                1.0192                                         !
 ! R69   R(56,69)                1.0145                                         !
 ! R70   R(56,70)                1.0143                                         !
 ! R71   R(57,58)                0.9882                                         !
 ! A1    A(2,1,15)             108.7894                                         !
 ! A2    A(2,1,25)             110.6099                                         !
 ! A3    A(2,1,26)             107.6932                                         !
 ! A4    A(15,1,25)            109.9722                                         !
 ! A5    A(15,1,26)            107.2002                                         !
 ! A6    A(25,1,26)            112.4416                                         !
 ! A7    A(1,2,3)              103.4568                                         !
 ! A8    A(1,2,5)              110.6003                                         !
 ! A9    A(1,2,16)             105.0349                                         !
 ! A10   A(3,2,5)              118.669                                          !
 ! A11   A(3,2,16)             107.594                                          !
 ! A12   A(5,2,16)             110.4695                                         !
 ! A13   A(2,3,4)              118.3232                                         !
 ! A14   A(2,3,27)             117.6144                                         !
 ! A15   A(4,3,27)             123.963                                          !
 ! A16   A(2,5,6)              112.1079                                         !
 ! A17   A(2,5,17)             110.015                                          !
 ! A18   A(2,5,18)             106.8788                                         !
 ! A19   A(6,5,17)             108.3735                                         !
 ! A20   A(6,5,18)             111.5762                                         !
 ! A21   A(17,5,18)            107.8036                                         !
 ! A22   A(5,6,7)              125.4836                                         !
 ! A23   A(5,6,8)              127.292                                          !
 ! A24   A(7,6,8)              106.9581                                         !
 ! A25   A(6,7,11)             109.4872                                         !
 ! A26   A(6,7,19)             128.7819                                         !
 ! A27   A(11,7,19)            121.7203                                         !
 ! A28   A(6,8,9)              106.6906                                         !
 ! A29   A(6,8,10)             134.2721                                         !
 ! A30   A(9,8,10)             119.0309                                         !
 ! A31   A(8,9,11)             107.1866                                         !
 ! A32   A(8,9,12)             122.2011                                         !
 ! A33   A(11,9,12)            130.6099                                         !
 ! A34   A(8,10,13)            118.8407                                         !
 ! A35   A(8,10,21)            120.9087                                         !
 ! A36   A(13,10,21)           120.2143                                         !
 ! A37   A(7,11,9)             109.6721                                         !
 ! A38   A(7,11,20)            125.0615                                         !
 ! A39   A(9,11,20)            125.1976                                         !
 ! A40   A(9,12,14)            117.4189                                         !
 ! A41   A(9,12,22)            121.3448                                         !
 ! A42   A(14,12,22)           121.2363                                         !
 ! A43   A(10,13,14)           121.0545                                         !
 ! A44   A(10,13,23)           119.6856                                         !
 ! A45   A(14,13,23)           119.2552                                         !
 ! A46   A(12,14,13)           121.4511                                         !
 ! A47   A(12,14,24)           119.2842                                         !
 ! A48   A(13,14,24)           119.2641                                         !
 ! A49   A(3,27,28)            121.9942                                         !
 ! A50   A(3,27,35)            118.1799                                         !
 ! A51   A(28,27,35)           116.9339                                         !
 ! A52   A(27,28,29)           111.1028                                         !
 ! A53   A(27,28,31)           114.0413                                         !
 ! A54   A(27,28,36)           104.9165                                         !
 ! A55   A(29,28,31)           111.4889                                         !
 ! A56   A(29,28,36)           106.806                                          !
 ! A57   A(31,28,36)           107.9604                                         !
 ! A58   A(28,29,30)           121.1642                                         !
 ! A59   A(28,29,46)           120.4319                                         !
 ! A60   A(30,29,46)           118.4037                                         !
 ! A61   A(28,31,32)           109.3477                                         !
 ! A62   A(28,31,33)           111.2452                                         !
 ! A63   A(28,31,37)           107.2697                                         !
 ! A64   A(32,31,33)           110.9414                                         !
 ! A65   A(32,31,37)           108.7045                                         !
 ! A66   A(33,31,37)           109.2287                                         !
 ! A67   A(31,32,34)           113.4461                                         !
 ! A68   A(31,32,38)           108.5519                                         !
 ! A69   A(31,32,39)           109.4167                                         !
 ! A70   A(34,32,38)           110.0014                                         !
 ! A71   A(34,32,39)           108.2681                                         !
 ! A72   A(38,32,39)           106.9565                                         !
 ! A73   A(31,33,40)           112.563                                          !
 ! A74   A(31,33,41)           111.4932                                         !
 ! A75   A(31,33,42)           110.1897                                         !
 ! A76   A(40,33,41)           108.2722                                         !
 ! A77   A(40,33,42)           106.8184                                         !
 ! A78   A(41,33,42)           107.2543                                         !
 ! A79   A(32,34,43)           110.5433                                         !
 ! A80   A(32,34,44)           110.5322                                         !
 ! A81   A(32,34,45)           112.3988                                         !
 ! A82   A(43,34,44)           107.7769                                         !
 ! A83   A(43,34,45)           108.0508                                         !
 ! A84   A(44,34,45)           107.3632                                         !
 ! A85   A(29,46,47)           132.2088                                         !
 ! A86   A(29,46,59)           107.4933                                         !
 ! A87   A(47,46,59)           113.9325                                         !
 ! A88   A(46,47,48)           110.7438                                         !
 ! A89   A(46,47,50)           116.6197                                         !
 ! A90   A(46,47,60)           105.5692                                         !
 ! A91   A(48,47,50)           113.7638                                         !
 ! A92   A(48,47,60)           102.3927                                         !
 ! A93   A(50,47,60)           106.2533                                         !
 ! A94   A(47,48,49)           125.3211                                         !
 ! A95   A(47,48,57)           114.4717                                         !
 ! A96   A(49,48,57)           120.1352                                         !
 ! A97   A(47,50,51)           116.1871                                         !
 ! A98   A(47,50,61)           106.2423                                         !
 ! A99   A(47,50,62)           110.0999                                         !
 ! A100  A(51,50,61)           109.0478                                         !
 ! A101  A(51,50,62)           107.7847                                         !
 ! A102  A(61,50,62)           107.1328                                         !
 ! A103  A(50,51,52)           115.8598                                         !
 ! A104  A(50,51,63)           109.7164                                         !
 ! A105  A(50,51,64)           106.9396                                         !
 ! A106  A(52,51,63)           109.4444                                         !
 ! A107  A(52,51,64)           107.9208                                         !
 ! A108  A(63,51,64)           106.5192                                         !
 ! A109  A(51,52,53)           111.2652                                         !
 ! A110  A(51,52,65)           109.9599                                         !
 ! A111  A(51,52,66)           109.0823                                         !
 ! A112  A(53,52,65)           108.1631                                         !
 ! A113  A(53,52,66)           111.448                                          !
 ! A114  A(65,52,66)           106.8167                                         !
 ! A115  A(52,53,54)           118.9004                                         !
 ! A116  A(52,53,67)           112.5173                                         !
 ! A117  A(54,53,67)           111.696                                          !
 ! A118  A(53,54,55)           128.4289                                         !
 ! A119  A(53,54,56)           111.2714                                         !
 ! A120  A(55,54,56)           120.2989                                         !
 ! A121  A(54,55,68)           112.8025                                         !
 ! A122  A(54,56,69)           114.6157                                         !
 ! A123  A(54,56,70)           110.8343                                         !
 ! A124  A(69,56,70)           111.8328                                         !
 ! A125  A(48,57,58)           106.6265                                         !
 ! D1    D(15,1,2,3)            70.334                                          !
 ! D2    D(15,1,2,5)           -57.7583                                         !
 ! D3    D(15,1,2,16)         -176.9545                                         !
 ! D4    D(25,1,2,3)          -168.7748                                         !
 ! D5    D(25,1,2,5)            63.1329                                         !
 ! D6    D(25,1,2,16)          -56.0633                                         !
 ! D7    D(26,1,2,3)           -45.5405                                         !
 ! D8    D(26,1,2,5)          -173.6328                                         !
 ! D9    D(26,1,2,16)           67.171                                          !
 ! D10   D(1,2,3,4)             33.4081                                         !
 ! D11   D(1,2,3,27)          -143.1132                                         !
 ! D12   D(5,2,3,4)            156.3073                                         !
 ! D13   D(5,2,3,27)           -20.2141                                         !
 ! D14   D(16,2,3,4)           -77.4281                                         !
 ! D15   D(16,2,3,27)          106.0506                                         !
 ! D16   D(1,2,5,6)            -31.054                                          !
 ! D17   D(1,2,5,17)            89.6143                                         !
 ! D18   D(1,2,5,18)          -153.6046                                         !
 ! D19   D(3,2,5,6)           -150.3203                                         !
 ! D20   D(3,2,5,17)           -29.6521                                         !
 ! D21   D(3,2,5,18)            87.1291                                         !
 ! D22   D(16,2,5,6)            84.8022                                         !
 ! D23   D(16,2,5,17)         -154.5296                                         !
 ! D24   D(16,2,5,18)          -37.7484                                         !
 ! D25   D(2,3,27,28)         -172.1506                                         !
 ! D26   D(2,3,27,35)          -11.9973                                         !
 ! D27   D(4,3,27,28)           11.5418                                         !
 ! D28   D(4,3,27,35)          171.6951                                         !
 ! D29   D(2,5,6,7)            115.3135                                         !
 ! D30   D(2,5,6,8)            -57.9736                                         !
 ! D31   D(17,5,6,7)            -6.3006                                         !
 ! D32   D(17,5,6,8)          -179.5877                                         !
 ! D33   D(18,5,6,7)          -124.8424                                         !
 ! D34   D(18,5,6,8)            61.8705                                         !
 ! D35   D(5,6,7,11)          -175.1797                                         !
 ! D36   D(5,6,7,19)             3.6334                                         !
 ! D37   D(8,6,7,11)            -0.7591                                         !
 ! D38   D(8,6,7,19)           178.0541                                         !
 ! D39   D(5,6,8,9)            174.886                                          !
 ! D40   D(5,6,8,10)            -4.1448                                         !
 ! D41   D(7,6,8,9)              0.597                                          !
 ! D42   D(7,6,8,10)          -178.4337                                         !
 ! D43   D(6,7,11,9)             0.6398                                         !
 ! D44   D(6,7,11,20)         -176.4686                                         !
 ! D45   D(19,7,11,9)         -178.2726                                         !
 ! D46   D(19,7,11,20)           4.6191                                         !
 ! D47   D(6,8,9,11)            -0.2195                                         !
 ! D48   D(6,8,9,12)          -179.7223                                         !
 ! D49   D(10,8,9,11)          178.9867                                         !
 ! D50   D(10,8,9,12)           -0.5161                                         !
 ! D51   D(6,8,10,13)          179.0067                                         !
 ! D52   D(6,8,10,21)           -3.1783                                         !
 ! D53   D(9,8,10,13)            0.0685                                         !
 ! D54   D(9,8,10,21)          177.8835                                         !
 ! D55   D(8,9,11,7)            -0.2434                                         !
 ! D56   D(8,9,11,20)          176.8602                                         !
 ! D57   D(12,9,11,7)          179.2024                                         !
 ! D58   D(12,9,11,20)          -3.694                                          !
 ! D59   D(8,9,12,14)            0.6213                                         !
 ! D60   D(8,9,12,22)         -179.4202                                         !
 ! D61   D(11,9,12,14)        -178.7531                                         !
 ! D62   D(11,9,12,22)           1.2055                                         !
 ! D63   D(8,10,13,14)           0.2447                                         !
 ! D64   D(8,10,13,23)         179.4452                                         !
 ! D65   D(21,10,13,14)       -177.5858                                         !
 ! D66   D(21,10,13,23)          1.6147                                         !
 ! D67   D(9,12,14,13)          -0.2968                                         !
 ! D68   D(9,12,14,24)         179.9845                                         !
 ! D69   D(22,12,14,13)        179.7446                                         !
 ! D70   D(22,12,14,24)          0.0258                                         !
 ! D71   D(10,13,14,12)         -0.1318                                         !
 ! D72   D(10,13,14,24)        179.587                                          !
 ! D73   D(23,13,14,12)       -179.3357                                         !
 ! D74   D(23,13,14,24)          0.3831                                         !
 ! D75   D(3,27,28,29)         -57.5322                                         !
 ! D76   D(3,27,28,31)          69.489                                          !
 ! D77   D(3,27,28,36)        -172.5898                                         !
 ! D78   D(35,27,28,29)        142.0813                                         !
 ! D79   D(35,27,28,31)        -90.8975                                         !
 ! D80   D(35,27,28,36)         27.0237                                         !
 ! D81   D(27,28,29,30)        136.9034                                         !
 ! D82   D(27,28,29,46)        -43.2148                                         !
 ! D83   D(31,28,29,30)          8.497                                          !
 ! D84   D(31,28,29,46)       -171.6213                                         !
 ! D85   D(36,28,29,30)       -109.2188                                         !
 ! D86   D(36,28,29,46)         70.6629                                         !
 ! D87   D(27,28,31,32)        157.9464                                         !
 ! D88   D(27,28,31,33)         35.0624                                         !
 ! D89   D(27,28,31,37)        -84.3376                                         !
 ! D90   D(29,28,31,32)        -75.2327                                         !
 ! D91   D(29,28,31,33)        161.8833                                         !
 ! D92   D(29,28,31,37)         42.4833                                         !
 ! D93   D(36,28,31,32)         41.7849                                         !
 ! D94   D(36,28,31,33)        -81.0991                                         !
 ! D95   D(36,28,31,37)        159.5009                                         !
 ! D96   D(28,29,46,47)        -21.2488                                         !
 ! D97   D(28,29,46,59)       -170.5759                                         !
 ! D98   D(30,29,46,47)        158.6361                                         !
 ! D99   D(30,29,46,59)          9.309                                          !
 ! D100  D(28,31,32,34)        162.7933                                         !
 ! D101  D(28,31,32,38)        -74.6041                                         !
 ! D102  D(28,31,32,39)         41.7859                                         !
 ! D103  D(33,31,32,34)        -74.1421                                         !
 ! D104  D(33,31,32,38)         48.4606                                         !
 ! D105  D(33,31,32,39)        164.8505                                         !
 ! D106  D(37,31,32,34)         45.9812                                         !
 ! D107  D(37,31,32,38)        168.5839                                         !
 ! D108  D(37,31,32,39)        -75.0262                                         !
 ! D109  D(28,31,33,40)        -65.9433                                         !
 ! D110  D(28,31,33,41)         55.9613                                         !
 ! D111  D(28,31,33,42)        174.9378                                         !
 ! D112  D(32,31,33,40)        172.0931                                         !
 ! D113  D(32,31,33,41)        -66.0023                                         !
 ! D114  D(32,31,33,42)         52.9742                                         !
 ! D115  D(37,31,33,40)         52.2822                                         !
 ! D116  D(37,31,33,41)        174.1869                                         !
 ! D117  D(37,31,33,42)        -66.8367                                         !
 ! D118  D(31,32,34,43)        -60.1991                                         !
 ! D119  D(31,32,34,44)       -179.4421                                         !
 ! D120  D(31,32,34,45)         60.6218                                         !
 ! D121  D(38,32,34,43)        178.0033                                         !
 ! D122  D(38,32,34,44)         58.7603                                         !
 ! D123  D(38,32,34,45)        -61.1758                                         !
 ! D124  D(39,32,34,43)         61.4523                                         !
 ! D125  D(39,32,34,44)        -57.7908                                         !
 ! D126  D(39,32,34,45)       -177.7268                                         !
 ! D127  D(29,46,47,48)         96.9164                                         !
 ! D128  D(29,46,47,50)        -35.2908                                         !
 ! D129  D(29,46,47,60)       -152.9777                                         !
 ! D130  D(59,46,47,48)       -115.2452                                         !
 ! D131  D(59,46,47,50)        112.5476                                         !
 ! D132  D(59,46,47,60)         -5.1393                                         !
 ! D133  D(46,47,48,49)       -163.795                                          !
 ! D134  D(46,47,48,57)         19.3064                                         !
 ! D135  D(50,47,48,49)        -30.1434                                         !
 ! D136  D(50,47,48,57)        152.958                                          !
 ! D137  D(60,47,48,49)         84.0523                                         !
 ! D138  D(60,47,48,57)        -92.8464                                         !
 ! D139  D(46,47,50,51)       -162.6495                                         !
 ! D140  D(46,47,50,61)        -41.178                                          !
 ! D141  D(46,47,50,62)         74.502                                          !
 ! D142  D(48,47,50,51)         66.5398                                         !
 ! D143  D(48,47,50,61)       -171.9886                                         !
 ! D144  D(48,47,50,62)        -56.3087                                         !
 ! D145  D(60,47,50,51)        -45.3372                                         !
 ! D146  D(60,47,50,61)         76.1343                                         !
 ! D147  D(60,47,50,62)       -168.1857                                         !
 ! D148  D(47,48,57,58)         -9.8968                                         !
 ! D149  D(49,48,57,58)        173.0289                                         !
 ! D150  D(47,50,51,52)         53.152                                          !
 ! D151  D(47,50,51,63)        -71.367                                          !
 ! D152  D(47,50,51,64)        173.4889                                         !
 ! D153  D(61,50,51,52)        -66.8176                                         !
 ! D154  D(61,50,51,63)        168.6634                                         !
 ! D155  D(61,50,51,64)         53.5193                                         !
 ! D156  D(62,50,51,52)        177.2033                                         !
 ! D157  D(62,50,51,63)         52.6843                                         !
 ! D158  D(62,50,51,64)        -62.4598                                         !
 ! D159  D(50,51,52,53)        -73.3903                                         !
 ! D160  D(50,51,52,65)         46.4259                                         !
 ! D161  D(50,51,52,66)        163.255                                          !
 ! D162  D(63,51,52,53)         51.269                                          !
 ! D163  D(63,51,52,65)        171.0851                                         !
 ! D164  D(63,51,52,66)        -72.0857                                         !
 ! D165  D(64,51,52,53)        166.8049                                         !
 ! D166  D(64,51,52,65)        -73.379                                          !
 ! D167  D(64,51,52,66)         43.4502                                         !
 ! D168  D(51,52,53,54)       -179.619                                          !
 ! D169  D(51,52,53,67)        -46.3064                                         !
 ! D170  D(65,52,53,54)         59.5044                                         !
 ! D171  D(65,52,53,67)       -167.183                                          !
 ! D172  D(66,52,53,54)        -57.6263                                         !
 ! D173  D(66,52,53,67)         75.6862                                         !
 ! D174  D(52,53,54,55)        -10.0752                                         !
 ! D175  D(52,53,54,56)        169.6042                                         !
 ! D176  D(67,53,54,55)       -143.7395                                         !
 ! D177  D(67,53,54,56)         35.94                                           !
 ! D178  D(53,54,55,68)          9.0189                                         !
 ! D179  D(56,54,55,68)       -170.6351                                         !
 ! D180  D(53,54,56,69)         46.1846                                         !
 ! D181  D(53,54,56,70)        173.9226                                         !
 ! D182  D(55,54,56,69)       -134.1062                                         !
 ! D183  D(55,54,56,70)         -6.3683                                         !
 --------------------------------------------------------------------------------
 Symmetry turned off by external request.
 Stoichiometry    C23H36N7O4(1+)
 Framework group  C1[X(C23H36N7O4)]
 Deg. of freedom   204
 Full point group                 C1      NOp   1
                          Input orientation:                          
 ---------------------------------------------------------------------
 Center     Atomic      Atomic             Coordinates (Angstroms)
 Number     Number       Type             X           Y           Z
 ---------------------------------------------------------------------
      1          7           0      -94.491988  -12.185309    3.174240
      2          6           0      -93.831358  -13.471121    3.618090
      3          6           0      -94.746417  -14.566339    3.030860
      4          8           0      -95.301108  -14.348344    1.953772
      5          6           0      -93.578318  -13.454637    5.146876
      6          6           0      -93.324142  -12.070386    5.661569
      7          6           0      -94.129966  -11.384826    6.542619
      8          6           0      -92.287270  -11.157793    5.241798
      9          6           0      -92.521124   -9.931196    5.924931
     10          6           0      -91.200194  -11.247113    4.349328
     11          7           0      -93.646549  -10.107940    6.708161
     12          6           0      -91.701482   -8.812275    5.748813
     13          6           0      -90.390126  -10.133419    4.166329
     14          6           0      -90.638884   -8.930610    4.860374
     15          1           0      -95.376761  -12.068110    3.696119
     16          1           0      -92.882755  -13.505586    3.073521
     17          1           0      -94.442677  -13.864091    5.673094
     18          1           0      -92.724498  -14.118896    5.335927
     19          1           0      -95.024980  -11.723561    7.045937
     20          1           0      -94.028441   -9.420924    7.341368
     21          1           0      -90.972850  -12.179683    3.836998
     22          1           0      -91.887324   -7.885948    6.284336
     23          1           0      -89.543560  -10.189779    3.488913
     24          1           0      -89.983299   -8.080289    4.700380
     25          1           0      -93.873455  -11.382299    3.346799
     26          1           0      -94.736650  -12.286459    2.178650
     27          7           0      -94.944247  -15.676836    3.768501
     28          6           0      -95.657229  -16.851678    3.235524
     29          6           0      -97.081887  -16.472091    2.762994
     30          8           0      -97.531105  -16.896810    1.719066
     31          6           0      -94.877706  -17.618204    2.133062
     32          6           0      -95.407240  -19.068596    2.045508
     33          6           0      -93.366618  -17.601144    2.405990
     34          6           0      -95.021265  -19.780958    0.745372
     35          1           0      -94.351051  -15.827351    4.573562
     36          1           0      -95.776270  -17.522354    4.093352
     37          1           0      -95.078125  -17.113343    1.182654
     38          1           0      -95.027638  -19.632817    2.910925
     39          1           0      -96.498168  -19.062597    2.122290
     40          1           0      -92.938192  -16.595216    2.336333
     41          1           0      -93.132432  -18.007230    3.399570
     42          1           0      -92.843767  -18.219024    1.671827
     43          1           0      -95.425282  -19.245420   -0.121085
     44          1           0      -95.427518  -20.797384    0.729272
     45          1           0      -93.936071  -19.860626    0.619377
     46          7           0      -97.887052  -15.624979    3.540996
     47          6           0      -97.858655  -15.270325    4.972075
     48          6           0      -97.116318  -13.947684    5.188744
     49          8           0      -96.694951  -13.547595    6.250294
     50          6           0      -97.440536  -16.385863    5.952629
     51          6           0      -97.801474  -16.159685    7.434674
     52          6           0      -99.272128  -15.838875    7.723095
     53          7           0      -99.609254  -14.476407    7.308936
     54          6           0     -100.925569  -14.008823    7.508911
     55          7           0     -101.960011  -14.673037    7.858817
     56          7           0     -101.015397  -12.632941    7.279039
     57          8           0      -97.004835  -13.175642    4.075556
     58          1           0      -97.302623  -13.731698    3.314805
     59          1           0      -98.819336  -15.633757    3.136922
     60          1           0      -98.892335  -15.005470    5.230611
     61          1           0      -97.929468  -17.302491    5.601016
     62          1           0      -96.360187  -16.553465    5.893357
     63          1           0      -97.167947  -15.371554    7.852780
     64          1           0      -97.546103  -17.081651    7.969899
     65          1           0      -99.921734  -16.533764    7.175061
     66          1           0      -99.471118  -15.994796    8.794833
     67          1           0      -98.918235  -13.795063    7.612132
     68          1           0     -101.739721  -15.626910    8.142185
     69          1           0     -100.557878  -12.315432    6.431062
     70          1           0     -101.979478  -12.321391    7.326821
 ---------------------------------------------------------------------
 Rotational constants (GHZ):           0.1253927           0.0839721           0.0552186
 Standard basis: 6-31G(d) (6D, 7F)
   582 basis functions,  1096 primitive gaussians,   582 cartesian basis functions
   127 alpha electrons      127 beta electrons
       nuclear repulsion energy      3823.0206755738 Hartrees.
 NAtoms=   70 NActive=   70 NUniq=   70 SFac= 1.00D+00 NAtFMM=   60 NAOKFM=T Big=T
 Integral buffers will be    131072 words long.
 Raffenetti 2 integral format.
 Two-electron integral symmetry is turned off.
 Nuclear repulsion after empirical dispersion term =     3822.9257198230 Hartrees.
 One-electron integrals computed using PRISM.
 NBasis=   582 RedAO= T EigKep=  3.79D-04  NBF=   582
 NBsUse=   582 1.00D-06 EigRej= -1.00D+00 NBFU=   582
 Initial guess from the checkpoint file:  "conf-304.chk"
 B after Tr=     0.000000    0.000000    0.000000
         Rot=    1.000000    0.000000    0.000000    0.000000 Ang=   0.00 deg.
 Requested convergence on RMS density matrix=1.00D-08 within 128 cycles.
 Requested convergence on MAX density matrix=1.00D-06.
 Requested convergence on             energy=1.00D-06.
 No special actions if energy rises.
 SCF Done:  E(RB3LYP) =  -1582.20373990     A.U. after    2 cycles
            NFock=  2  Conv=0.73D-08     -V/T= 2.0095

 **********************************************************************

            Population analysis using the SCF Density.

 **********************************************************************

 Alpha  occ. eigenvalues --  -19.33282 -19.27430 -19.27196 -19.23865 -14.59503
 Alpha  occ. eigenvalues --  -14.51585 -14.49187 -14.48644 -14.43313 -14.41062
 Alpha  occ. eigenvalues --  -14.35829 -10.45435 -10.44565 -10.41501 -10.40869
 Alpha  occ. eigenvalues --  -10.36675 -10.36223 -10.35188 -10.33962 -10.33449
 Alpha  occ. eigenvalues --  -10.32939 -10.31345 -10.31326 -10.30359 -10.29908
 Alpha  occ. eigenvalues --  -10.29703 -10.29313 -10.29281 -10.29242 -10.28676
 Alpha  occ. eigenvalues --  -10.28575 -10.27698 -10.26614 -10.24794  -1.23833
 Alpha  occ. eigenvalues --   -1.19769  -1.16135  -1.15518  -1.14060  -1.09157
 Alpha  occ. eigenvalues --   -1.07792  -1.05034  -1.04229  -0.96660  -0.95123
 Alpha  occ. eigenvalues --   -0.94136  -0.91595  -0.91466  -0.90573  -0.88987
 Alpha  occ. eigenvalues --   -0.85249  -0.84388  -0.84094  -0.83213  -0.80874
 Alpha  occ. eigenvalues --   -0.80178  -0.78318  -0.75176  -0.74643  -0.73910
 Alpha  occ. eigenvalues --   -0.72988  -0.72783  -0.72096  -0.70788  -0.70107
 Alpha  occ. eigenvalues --   -0.69609  -0.68143  -0.66359  -0.66167  -0.65890
 Alpha  occ. eigenvalues --   -0.65065  -0.64475  -0.63891  -0.63061  -0.61884
 Alpha  occ. eigenvalues --   -0.60643  -0.59589  -0.58977  -0.58568  -0.58161
 Alpha  occ. eigenvalues --   -0.57991  -0.57556  -0.57122  -0.56725  -0.56592
 Alpha  occ. eigenvalues --   -0.55148  -0.55008  -0.54401  -0.54174  -0.53861
 Alpha  occ. eigenvalues --   -0.53482  -0.53298  -0.52522  -0.52345  -0.52094
 Alpha  occ. eigenvalues --   -0.51698  -0.51110  -0.50637  -0.50256  -0.49671
 Alpha  occ. eigenvalues --   -0.49157  -0.49058  -0.47751  -0.47088  -0.46979
 Alpha  occ. eigenvalues --   -0.46157  -0.45924  -0.45194  -0.45114  -0.44753
 Alpha  occ. eigenvalues --   -0.44312  -0.44085  -0.43926  -0.43481  -0.42036
 Alpha  occ. eigenvalues --   -0.41615  -0.41208  -0.40744  -0.40211  -0.38622
 Alpha  occ. eigenvalues --   -0.38031  -0.36762  -0.33772  -0.33215  -0.32863
 Alpha  occ. eigenvalues --   -0.31695  -0.30720
 Alpha virt. eigenvalues --   -0.14402  -0.12754  -0.12021  -0.11086  -0.08637
 Alpha virt. eigenvalues --   -0.08204  -0.06382  -0.05280  -0.04530  -0.03989
 Alpha virt. eigenvalues --   -0.02456  -0.02190  -0.01975  -0.01392  -0.01088
 Alpha virt. eigenvalues --   -0.00608   0.00001   0.00352   0.01019   0.01208
 Alpha virt. eigenvalues --    0.01689   0.02660   0.02950   0.03152   0.03789
 Alpha virt. eigenvalues --    0.04071   0.04450   0.04670   0.05140   0.05475
 Alpha virt. eigenvalues --    0.05675   0.06115   0.06296   0.06695   0.07004
 Alpha virt. eigenvalues --    0.07441   0.07822   0.07928   0.08583   0.08737
 Alpha virt. eigenvalues --    0.09006   0.09229   0.09460   0.10301   0.10668
 Alpha virt. eigenvalues --    0.10842   0.11412   0.11611   0.11874   0.12410
 Alpha virt. eigenvalues --    0.13198   0.13326   0.13997   0.14474   0.14799
 Alpha virt. eigenvalues --    0.15386   0.15812   0.16287   0.17019   0.17748
 Alpha virt. eigenvalues --    0.18418   0.19243   0.19602   0.20498   0.21146
 Alpha virt. eigenvalues --    0.21598   0.23029   0.23792   0.24576   0.25531
 Alpha virt. eigenvalues --    0.25824   0.26313   0.27134   0.29428   0.31214
 Alpha virt. eigenvalues --    0.32021   0.33183   0.34821   0.35551   0.37733
 Alpha virt. eigenvalues --    0.37933   0.38445   0.39967   0.40638   0.41352
 Alpha virt. eigenvalues --    0.41792   0.42327   0.43033   0.43103   0.43220
 Alpha virt. eigenvalues --    0.44146   0.44747   0.45069   0.45160   0.46173
 Alpha virt. eigenvalues --    0.46299   0.46837   0.47010   0.47552   0.48376
 Alpha virt. eigenvalues --    0.49009   0.49362   0.49659   0.50123   0.50466
 Alpha virt. eigenvalues --    0.50577   0.51031   0.51334   0.51740   0.52105
 Alpha virt. eigenvalues --    0.52421   0.52737   0.52993   0.53255   0.53824
 Alpha virt. eigenvalues --    0.54197   0.55178   0.55922   0.56176   0.56518
 Alpha virt. eigenvalues --    0.56786   0.57627   0.57832   0.58513   0.59004
 Alpha virt. eigenvalues --    0.59554   0.60424   0.61345   0.62330   0.62645
 Alpha virt. eigenvalues --    0.63192   0.63326   0.64685   0.65224   0.65621
 Alpha virt. eigenvalues --    0.66097   0.66331   0.66790   0.67559   0.68240
 Alpha virt. eigenvalues --    0.69085   0.69455   0.70257   0.70656   0.70965
 Alpha virt. eigenvalues --    0.71310   0.71896   0.72277   0.72952   0.73267
 Alpha virt. eigenvalues --    0.73582   0.73804   0.74144   0.74425   0.75164
 Alpha virt. eigenvalues --    0.75511   0.75719   0.76307   0.76445   0.77361
 Alpha virt. eigenvalues --    0.77598   0.78086   0.78383   0.78826   0.79076
 Alpha virt. eigenvalues --    0.79660   0.80084   0.80504   0.80942   0.81102
 Alpha virt. eigenvalues --    0.81582   0.81964   0.82230   0.82774   0.83265
 Alpha virt. eigenvalues --    0.83554   0.83964   0.84135   0.84611   0.84816
 Alpha virt. eigenvalues --    0.85991   0.86447   0.86685   0.87115   0.87332
 Alpha virt. eigenvalues --    0.87922   0.88474   0.88797   0.89189   0.90231
 Alpha virt. eigenvalues --    0.90762   0.91264   0.91534   0.92048   0.93156
 Alpha virt. eigenvalues --    0.93901   0.94197   0.94846   0.95249   0.95900
 Alpha virt. eigenvalues --    0.96272   0.96961   0.97874   0.98727   1.00620
 Alpha virt. eigenvalues --    1.01296   1.01758   1.02669   1.04011   1.04623
 Alpha virt. eigenvalues --    1.05689   1.05829   1.07351   1.07891   1.08550
 Alpha virt. eigenvalues --    1.09395   1.10463   1.11812   1.13728   1.14134
 Alpha virt. eigenvalues --    1.14372   1.15426   1.16038   1.16528   1.17762
 Alpha virt. eigenvalues --    1.18972   1.19341   1.20595   1.22853   1.22950
 Alpha virt. eigenvalues --    1.24797   1.25055   1.25322   1.25927   1.27469
 Alpha virt. eigenvalues --    1.28589   1.28655   1.29860   1.30552   1.30773
 Alpha virt. eigenvalues --    1.31454   1.31653   1.33119   1.34023   1.35543
 Alpha virt. eigenvalues --    1.36424   1.37625   1.38401   1.39229   1.39837
 Alpha virt. eigenvalues --    1.40342   1.40893   1.41542   1.43767   1.44844
 Alpha virt. eigenvalues --    1.46990   1.48159   1.49265   1.49661   1.51588
 Alpha virt. eigenvalues --    1.51929   1.53268   1.53430   1.55347   1.56277
 Alpha virt. eigenvalues --    1.57821   1.58452   1.58695   1.59854   1.60689
 Alpha virt. eigenvalues --    1.62624   1.62787   1.63951   1.64341   1.64700
 Alpha virt. eigenvalues --    1.65290   1.65517   1.66159   1.66718   1.67340
 Alpha virt. eigenvalues --    1.68004   1.68772   1.70255   1.71166   1.71380
 Alpha virt. eigenvalues --    1.72072   1.72962   1.73425   1.73775   1.75731
 Alpha virt. eigenvalues --    1.76309   1.76831   1.77088   1.77687   1.77814
 Alpha virt. eigenvalues --    1.79358   1.80355   1.80687   1.81240   1.81958
 Alpha virt. eigenvalues --    1.82984   1.83231   1.83697   1.84014   1.84879
 Alpha virt. eigenvalues --    1.85550   1.85896   1.86880   1.87541   1.87900
 Alpha virt. eigenvalues --    1.88846   1.89220   1.89600   1.90109   1.90331
 Alpha virt. eigenvalues --    1.91373   1.92023   1.92610   1.93548   1.93955
 Alpha virt. eigenvalues --    1.94693   1.95065   1.96075   1.96163   1.96924
 Alpha virt. eigenvalues --    1.98579   1.99642   2.01853   2.02727   2.03422
 Alpha virt. eigenvalues --    2.04420   2.04973   2.05043   2.06948   2.07609
 Alpha virt. eigenvalues --    2.07906   2.10495   2.11194   2.12892   2.13363
 Alpha virt. eigenvalues --    2.13960   2.14790   2.15208   2.15960   2.16973
 Alpha virt. eigenvalues --    2.17260   2.18973   2.19628   2.20957   2.21024
 Alpha virt. eigenvalues --    2.21641   2.22448   2.22954   2.23760   2.24253
 Alpha virt. eigenvalues --    2.25348   2.26420   2.27285   2.27978   2.28533
 Alpha virt. eigenvalues --    2.29709   2.31022   2.32107   2.32703   2.34159
 Alpha virt. eigenvalues --    2.35096   2.35340   2.35777   2.38030   2.39016
 Alpha virt. eigenvalues --    2.39479   2.41033   2.41807   2.43068   2.43501
 Alpha virt. eigenvalues --    2.44138   2.44883   2.44993   2.45576   2.47698
 Alpha virt. eigenvalues --    2.48933   2.50428   2.51591   2.51596   2.51816
 Alpha virt. eigenvalues --    2.53857   2.54062   2.55317   2.56878   2.57101
 Alpha virt. eigenvalues --    2.57740   2.57981   2.58752   2.59793   2.61025
 Alpha virt. eigenvalues --    2.62767   2.63454   2.65022   2.66215   2.67108
 Alpha virt. eigenvalues --    2.68926   2.70706   2.72310   2.73908   2.76777
 Alpha virt. eigenvalues --    2.79670   2.81410   2.82374   2.84474   2.87128
 Alpha virt. eigenvalues --    2.89154   2.91630   2.94718   2.94883   2.96112
 Alpha virt. eigenvalues --    2.97677   3.02305   3.04487   3.05622   3.14020
 Alpha virt. eigenvalues --    3.33168   3.69693   3.74202   3.77079   3.82669
 Alpha virt. eigenvalues --    3.85058   3.92916   3.93708   3.97030   3.99188
 Alpha virt. eigenvalues --    4.02736   4.04460   4.05783   4.06493   4.07642
 Alpha virt. eigenvalues --    4.11116   4.12009   4.13446   4.18362   4.19704
 Alpha virt. eigenvalues --    4.21052   4.23488   4.26020   4.29759   4.32190
 Alpha virt. eigenvalues --    4.34592   4.37433   4.40771   4.43317   4.44434
 Alpha virt. eigenvalues --    4.50264   4.54766   4.59580   4.60109   4.69300
          Condensed to atoms (all electrons):
 Mulliken charges:
               1
     1  N   -0.746243
     2  C   -0.120854
     3  C    0.642146
     4  O   -0.529352
     5  C   -0.399553
     6  C   -0.006277
     7  C    0.013685
     8  C    0.048859
     9  C    0.317361
    10  C   -0.237571
    11  N   -0.679527
    12  C   -0.153333
    13  C   -0.131451
    14  C   -0.148518
    15  H    0.435216
    16  H    0.232105
    17  H    0.196120
    18  H    0.188052
    19  H    0.198911
    20  H    0.351533
    21  H    0.126568
    22  H    0.156087
    23  H    0.153314
    24  H    0.159843
    25  H    0.419488
    26  H    0.418312
    27  N   -0.624322
    28  C   -0.072642
    29  C    0.628184
    30  O   -0.448852
    31  C   -0.067334
    32  C   -0.271393
    33  C   -0.469925
    34  C   -0.455454
    35  H    0.362595
    36  H    0.183719
    37  H    0.177737
    38  H    0.130084
    39  H    0.163485
    40  H    0.125254
    41  H    0.138040
    42  H    0.185068
    43  H    0.164520
    44  H    0.163631
    45  H    0.150137
    46  N   -0.699114
    47  C   -0.058770
    48  C    0.633866
    49  O   -0.467729
    50  C   -0.282320
    51  C   -0.295882
    52  C   -0.146255
    53  N   -0.632468
    54  C    0.572141
    55  N   -0.625280
    56  N   -0.746449
    57  O   -0.624426
    58  H    0.452768
    59  H    0.362105
    60  H    0.240095
    61  H    0.170225
    62  H    0.134743
    63  H    0.171955
    64  H    0.165248
    65  H    0.160749
    66  H    0.167962
    67  H    0.335677
    68  H    0.286947
    69  H    0.309890
    70  H    0.346866
 Sum of Mulliken charges =   1.00000
 Mulliken charges with hydrogens summed into heavy atoms:
               1
     1  N    0.526774
     2  C    0.111251
     3  C    0.642146
     4  O   -0.529352
     5  C   -0.015382
     6  C   -0.006277
     7  C    0.212596
     8  C    0.048859
     9  C    0.317361
    10  C   -0.111002
    11  N   -0.327993
    12  C    0.002753
    13  C    0.021863
    14  C    0.011325
    27  N   -0.261727
    28  C    0.111077
    29  C    0.628184
    30  O   -0.448852
    31  C    0.110403
    32  C    0.022176
    33  C   -0.021562
    34  C    0.022834
    46  N   -0.337009
    47  C    0.181325
    48  C    0.633866
    49  O   -0.467729
    50  C    0.022648
    51  C    0.041320
    52  C    0.182457
    53  N   -0.296791
    54  C    0.572141
    55  N   -0.338333
    56  N   -0.089694
    57  O   -0.171658
 Electronic spatial extent (au):  <R**2>=        8527326.1092
 Charge=              1.0000 electrons
 Dipole moment (field-independent basis, Debye):
    X=           -453.4348    Y=            -63.6653    Z=             21.7572  Tot=            458.3991
 Quadrupole moment (field-independent basis, Debye-Ang):
   XX=          42610.5234   YY=            701.7832   ZZ=            -97.0785
   XY=           6020.6698   XZ=          -2055.8469   YZ=           -290.4973
 Traceless Quadrupole moment (field-independent basis, Debye-Ang):
   XX=          28205.4474   YY=         -13703.2928   ZZ=         -14502.1546
   XY=           6020.6698   XZ=          -2055.8469   YZ=           -290.4973
 Octapole moment (field-independent basis, Debye-Ang**2):
  XXX=       -3984840.8131  YYY=          -5012.2326  ZZZ=          -2275.4960  XYY=         -66289.5579
  XXY=        -566545.2040  XXZ=         193234.8156  XZZ=           9448.9644  YZZ=           1472.9931
  YYZ=           3266.5913  XYZ=          27539.6775
 Hexadecapole moment (field-independent basis, Debye-Ang**3):
 XXXX=      370697985.4957 YYYY=         -38834.1558 ZZZZ=         -28326.5753 XXXY=       53030700.0119
 XXXZ=      -18059234.5639 YYYX=         466782.1850 YYYZ=         -26201.2777 ZZZX=         220303.3788
 ZZZY=          31311.6390 XXYY=        6217860.4692 XXZZ=        -927544.3911 YYZZ=         -26990.4801
 XXYZ=       -2596734.1363 YYXZ=        -309742.2530 ZZXY=        -143181.7619
 N-N= 3.822925719823D+03 E-N=-1.129771741890D+04  KE= 1.567309926602D+03
 Unable to Open any file for archive entry.
 1\1\GINC-QML-002\SP\RB3LYP\6-31G(d)\C23H36N7O4(1+)\KENGMITH\24-May-202
 2\0\\# B3LYP/6-31G* empiricaldispersion=gd3 guess=read geom=check nosy
 mm integral(ultrafinegrid)\\Candidate Structure: Conf:304 Charge calc 
 in gas phase\\1,1\N,0,-94.4919879628,-12.1853087162,3.1742404926\C,0,-
 93.8313580031,-13.4711206821,3.6180895331\C,0,-94.7464167096,-14.56633
 90831,3.0308598913\O,0,-95.3011079045,-14.3483436341,1.9537724914\C,0,
 -93.5783178946,-13.4546367894,5.1468764699\C,0,-93.3241421801,-12.0703
 85978,5.6615690994\C,0,-94.1299660029,-11.3848259948,6.5426190067\C,0,
 -92.2872701073,-11.1577927238,5.2417979027\C,0,-92.5211240361,-9.93119
 55254,5.9249307966\C,0,-91.2001940696,-11.2471132554,4.3493276869\N,0,
 -93.6465493431,-10.1079400215,6.7081613141\C,0,-91.7014824779,-8.81227
 48466,5.7488134688\C,0,-90.390125611,-10.1334185763,4.166329249\C,0,-9
 0.6388843396,-8.9306102978,4.8603737496\H,0,-95.3767613702,-12.0681095
 729,3.6961185807\H,0,-92.8827549844,-13.5055862772,3.0735212559\H,0,-9
 4.4426767238,-13.8640905586,5.6730936908\H,0,-92.7244983609,-14.118895
 7671,5.3359271396\H,0,-95.0249797989,-11.7235612821,7.0459371915\H,0,-
 94.0284413873,-9.4209239016,7.3413682288\H,0,-90.9728497962,-12.179683
 435,3.8369980648\H,0,-91.887323631,-7.8859476082,6.2843363093\H,0,-89.
 5435601642,-10.1897785893,3.4889126726\H,0,-89.983299175,-8.0802894727
 ,4.7003802871\H,0,-93.8734547137,-11.3822993565,3.3467993145\H,0,-94.7
 366497975,-12.2864585017,2.1786498046\N,0,-94.9442469251,-15.676836354
 5,3.7685007915\C,0,-95.6572294192,-16.851678215,3.2355240279\C,0,-97.0
 818867657,-16.472091463,2.762994123\O,0,-97.5311054485,-16.8968099104,
 1.7190657573\C,0,-94.8777057371,-17.6182039504,2.1330623577\C,0,-95.40
 72398178,-19.0685956601,2.0455082845\C,0,-93.366618025,-17.6011442252,
 2.4059900344\C,0,-95.0212653805,-19.7809575695,0.7453720921\H,0,-94.35
 10511127,-15.8273505625,4.5735615613\H,0,-95.7762698407,-17.5223538185
 ,4.0933523808\H,0,-95.0781247632,-17.1133431058,1.1826537646\H,0,-95.0
 276383507,-19.6328172176,2.9109253032\H,0,-96.4981682641,-19.062597384
 3,2.1222901736\H,0,-92.9381924904,-16.5952164063,2.3363327546\H,0,-93.
 1324315867,-18.0072303055,3.3995698585\H,0,-92.8437671849,-18.21902381
 14,1.6718271469\H,0,-95.4252820882,-19.2454197502,-0.1210852501\H,0,-9
 5.4275178026,-20.7973837869,0.7292724179\H,0,-93.9360707014,-19.860625
 906,0.6193767475\N,0,-97.8870515294,-15.6249785346,3.5409964303\C,0,-9
 7.8586548787,-15.27032483,4.9720746088\C,0,-97.1163183804,-13.94768391
 81,5.1887437636\O,0,-96.6949507373,-13.5475946219,6.2502943547\C,0,-97
 .4405359507,-16.3858634186,5.9526288491\C,0,-97.8014741747,-16.1596853
 709,7.4346735342\C,0,-99.2721280629,-15.8388747357,7.7230945824\N,0,-9
 9.6092540883,-14.476406639,7.3089358811\C,0,-100.9255685473,-14.008823
 3382,7.5089114938\N,0,-101.9600106507,-14.6730372225,7.8588174361\N,0,
 -101.015397084,-12.6329407107,7.2790385051\O,0,-97.0048349726,-13.1756
 421101,4.0755560582\H,0,-97.302622889,-13.7316975707,3.3148054507\H,0,
 -98.8193355056,-15.633757023,3.1369220681\H,0,-98.8923348337,-15.00547
 01272,5.2306112039\H,0,-97.9294675135,-17.302490893,5.6010157028\H,0,-
 96.3601873145,-16.5534651539,5.8933570337\H,0,-97.1679466825,-15.37155
 36857,7.8527797025\H,0,-97.5461027501,-17.0816510277,7.9698990562\H,0,
 -99.9217344174,-16.5337639828,7.1750605001\H,0,-99.4711182896,-15.9947
 964079,8.7948330018\H,0,-98.9182354798,-13.7950632051,7.6121324801\H,0
 ,-101.7397212828,-15.6269101114,8.1421852947\H,0,-100.55787752,-12.315
 4316513,6.4310619196\H,0,-101.9794782246,-12.3213910298,7.3268205192\\
 Version=ES64L-G16RevC.01\HF=-1582.2037399\RMSD=7.256e-09\Dipole=2.4311
 312,1.7212409,-0.2726034\Quadrupole=20970.0588143,-10188.0623423,-1078
 1.996472,4476.2204213,-1528.4718123,-215.9776247\PG=C01 [X(C23H36N7O4)
 ]\\@
 The archive entry for this job was punched.


 SOME THINGS ARE EASY, THEY ARE ONLY HARD TO DO.
            -- A. EINSTEIN TO J. O. HIRSCHFELDER
 THE ONLY TROUBLE WITH A SURE THING IS THE UNCERTAINTY.
     -- FROM A TEABAG (BELONGING TO W.H.?)
 Job cpu time:       0 days  0 hours  4 minutes  6.0 seconds.
 Elapsed time:       0 days  0 hours  1 minutes  2.4 seconds.
 File lengths (MBytes):  RWF=    296 Int=      0 D2E=      0 Chk=     40 Scr=     16
 Normal termination of Gaussian 16 at Tue May 24 23:13:10 2022.
