 Entering Gaussian System, Link 0=/opt/software/Gaussian/g16-AVX-C.01/g16/g16
 Input=charge-conf-121.com
 Output=charge-conf-121.log
 Initial command:
 /opt/software/Gaussian/g16-AVX-C.01/g16/l1.exe "/mnt/gs18/scratch/users/kengmith/Gau-37530.inp" -scrdir="/mnt/gs18/scratch/users/kengmith/"
 Entering Link 1 = /opt/software/Gaussian/g16-AVX-C.01/g16/l1.exe PID=     37554.
  
 Copyright (c) 1988-2019, Gaussian, Inc.  All Rights Reserved.
  
 This is part of the Gaussian(R) 16 program.  It is based on
 the Gaussian(R) 09 system (copyright 2009, Gaussian, Inc.),
 the Gaussian(R) 03 system (copyright 2003, Gaussian, Inc.),
 the Gaussian(R) 98 system (copyright 1998, Gaussian, Inc.),
 the Gaussian(R) 94 system (copyright 1995, Gaussian, Inc.),
 the Gaussian 92(TM) system (copyright 1992, Gaussian, Inc.),
 the Gaussian 90(TM) system (copyright 1990, Gaussian, Inc.),
 the Gaussian 88(TM) system (copyright 1988, Gaussian, Inc.),
 the Gaussian 86(TM) system (copyright 1986, Carnegie Mellon
 University), and the Gaussian 82(TM) system (copyright 1983,
 Carnegie Mellon University). Gaussian is a federally registered
 trademark of Gaussian, Inc.
  
 This software contains proprietary and confidential information,
 including trade secrets, belonging to Gaussian, Inc.
  
 This software is provided under written license and may be
 used, copied, transmitted, or stored only in accord with that
 written license.
  
 The following legend is applicable only to US Government
 contracts under FAR:
  
                    RESTRICTED RIGHTS LEGEND
  
 Use, reproduction and disclosure by the US Government is
 subject to restrictions as set forth in subparagraphs (a)
 and (c) of the Commercial Computer Software - Restricted
 Rights clause in FAR 52.227-19.
  
 Gaussian, Inc.
 340 Quinnipiac St., Bldg. 40, Wallingford CT 06492
  
  
 ---------------------------------------------------------------
 Warning -- This program may not be used in any manner that
 competes with the business of Gaussian, Inc. or will provide
 assistance to any competitor of Gaussian, Inc.  The licensee
 of this program is prohibited from giving any competitor of
 Gaussian, Inc. access to this program.  By using this program,
 the user acknowledges that Gaussian, Inc. is engaged in the
 business of creating and licensing software in the field of
 computational chemistry and represents and warrants to the
 licensee that it is not a competitor of Gaussian, Inc. and that
 it will not use this program in any manner prohibited above.
 ---------------------------------------------------------------
  

 Cite this work as:
 Gaussian 16, Revision C.01,
 M. J. Frisch, G. W. Trucks, H. B. Schlegel, G. E. Scuseria, 
 M. A. Robb, J. R. Cheeseman, G. Scalmani, V. Barone, 
 G. A. Petersson, H. Nakatsuji, X. Li, M. Caricato, A. V. Marenich, 
 J. Bloino, B. G. Janesko, R. Gomperts, B. Mennucci, H. P. Hratchian, 
 J. V. Ortiz, A. F. Izmaylov, J. L. Sonnenberg, D. Williams-Young, 
 F. Ding, F. Lipparini, F. Egidi, J. Goings, B. Peng, A. Petrone, 
 T. Henderson, D. Ranasinghe, V. G. Zakrzewski, J. Gao, N. Rega, 
 G. Zheng, W. Liang, M. Hada, M. Ehara, K. Toyota, R. Fukuda, 
 J. Hasegawa, M. Ishida, T. Nakajima, Y. Honda, O. Kitao, H. Nakai, 
 T. Vreven, K. Throssell, J. A. Montgomery, Jr., J. E. Peralta, 
 F. Ogliaro, M. J. Bearpark, J. J. Heyd, E. N. Brothers, K. N. Kudin, 
 V. N. Staroverov, T. A. Keith, R. Kobayashi, J. Normand, 
 K. Raghavachari, A. P. Rendell, J. C. Burant, S. S. Iyengar, 
 J. Tomasi, M. Cossi, J. M. Millam, M. Klene, C. Adamo, R. Cammi, 
 J. W. Ochterski, R. L. Martin, K. Morokuma, O. Farkas, 
 J. B. Foresman, and D. J. Fox, Gaussian, Inc., Wallingford CT, 2019.
 
 ******************************************
 Gaussian 16:  ES64L-G16RevC.01  3-Jul-2019
                24-May-2022 
 ******************************************
 %mem=8gb
 %nproc=4
 Will use up to    4 processors via shared memory.
 %chk=conf-121.chk
 ----------------------------------------------------------------------
 # B3LYP/6-31G* empiricaldispersion=gd3 guess=read geom=check nosymm in
 tegral(ultrafinegrid)
 ----------------------------------------------------------------------
 1/29=2,38=1,172=1/1;
 2/12=2,15=1,40=1/2;
 3/5=1,6=6,7=1,11=2,14=-4,25=1,30=1,74=-5,75=-5,116=-2,124=31/1,2,3;
 4/5=1/1;
 5/5=2,38=6/2;
 6/7=2,8=2,9=2,10=2,28=1/1;
 99/5=1,9=1/99;
 ------------------------------------------------------
 Candidate Structure: Conf:121 Charge calc in gas phase
 ------------------------------------------------------
 Structure from the checkpoint file:  "conf-121.chk"
 Charge =  1 Multiplicity = 1
 Redundant internal coordinates found in file.  (old form).
 N,0,-93.6347161386,-15.1327846924,4.407867044
 C,0,-94.8884040859,-15.5376767069,3.6699472748
 C,0,-95.3309820164,-14.2407070305,2.9596944386
 O,0,-94.5268709622,-13.7251617714,2.1871935739
 C,0,-95.8289723731,-16.2749176505,4.6344438304
 C,0,-95.1592201004,-17.488612538,5.210668193
 C,0,-94.7656163806,-17.6674290314,6.5183107405
 C,0,-94.7505545259,-18.6723859731,4.4916126536
 C,0,-94.1173559822,-19.530982564,5.42987887
 C,0,-94.8679714777,-19.0910449011,3.1534040078
 N,0,-94.1386391351,-18.8881654659,6.6541960031
 C,0,-93.5981884328,-20.7790532904,5.069762879
 C,0,-94.3539487269,-20.3286959715,2.7912133013
 C,0,-93.7240860912,-21.1622808376,3.7401545754
 H,0,-93.202413999,-15.9587955187,4.8365355794
 H,0,-94.5641814854,-16.2157671315,2.8758945595
 H,0,-96.1452067805,-15.5946277252,5.4332282964
 H,0,-96.7225793847,-16.55794058,4.0631521827
 H,0,-94.9131511322,-17.0206418759,7.373000651
 H,0,-93.8168339598,-19.284899732,7.5239604721
 H,0,-95.3678783187,-18.4671240736,2.4164387118
 H,0,-93.1192838327,-21.42470209,5.8003628127
 H,0,-94.4410443264,-20.6671383036,1.7631471708
 H,0,-93.3343249109,-22.1256564304,3.4254536206
 H,0,-92.9960133526,-14.6862140136,3.7396668762
 H,0,-93.8888260962,-14.4081420656,5.1626243733
 N,0,-96.5439660807,-13.7503374283,3.2700156164
 C,0,-97.0769764503,-12.4903556855,2.738124865
 C,0,-96.0135058721,-11.36208016,2.8148896672
 O,0,-95.6537388641,-10.7555394257,1.8208616981
 C,0,-97.6509058503,-12.6209311932,1.306723813
 C,0,-98.5520221061,-11.4047568188,0.997763241
 C,0,-98.4184198737,-13.9395208276,1.139177322
 C,0,-98.8619900986,-11.2326000519,-0.4928245928
 H,0,-97.026261188,-14.1378909948,4.069353819
 H,0,-97.9017794425,-12.2351910521,3.4133349074
 H,0,-96.7979691974,-12.6065520087,0.6199224987
 H,0,-99.4899241021,-11.5086011725,1.5653756278
 H,0,-98.0633159313,-10.4922898243,1.3526750338
 H,0,-98.8638802716,-13.9995032154,0.1424132436
 H,0,-97.7679664004,-14.8110723692,1.2597157078
 H,0,-99.2336896393,-14.0212064787,1.8710427058
 H,0,-97.9360407052,-11.102622861,-1.0645305432
 H,0,-99.4851184528,-10.3473109901,-0.659342385
 H,0,-99.3977519583,-12.0930472208,-0.9081294691
 N,0,-95.4391013117,-11.0459107158,4.0338365528
 C,0,-95.7976109353,-11.2837953044,5.4376050905
 C,0,-95.6008600244,-12.7700909775,5.8642782154
 O,0,-96.6010575305,-13.4771709522,6.087635376
 C,0,-97.1710110121,-10.6846488033,5.8175324143
 C,0,-97.6570520797,-10.8896299135,7.2668186737
 C,0,-96.9721302444,-10.0980100737,8.3972559547
 N,0,-95.4970595258,-10.2172284134,8.5063489152
 C,0,-94.7742014327,-11.3390193797,8.4848849775
 N,0,-95.3172080971,-12.5422961703,8.7258552089
 N,0,-93.4451114595,-11.2671806605,8.2611427456
 O,0,-94.376994762,-13.1350772044,6.0145936321
 H,0,-94.9534971765,-13.3105190854,8.1594581463
 H,0,-94.7340247659,-10.3342090475,3.8864851418
 H,0,-95.0195139034,-10.7370519271,5.974571988
 H,0,-97.1514750718,-9.6154807151,5.5692480365
 H,0,-97.9316413689,-11.1380550378,5.1762852877
 H,0,-97.6720248424,-11.9620520073,7.4720638275
 H,0,-98.7056796942,-10.5704890934,7.3176644367
 H,0,-97.1475343861,-9.0287698445,8.2543158738
 H,0,-97.4229087906,-10.363911542,9.3614262394
 H,0,-94.9763659464,-9.3501291071,8.5363653428
 H,0,-96.3124360044,-12.5959110215,8.8910461028
 H,0,-93.0928435019,-10.4813482117,7.7298680703
 H,0,-92.9747698799,-12.1390577675,8.0503616413
 Recover connectivity data from disk.
                           ----------------------------
                           !    Current Parameters    !
                           ! (Angstroms and Degrees)  !
 --------------------------                            --------------------------
 ! Name  Definition              Value                                          !
 --------------------------------------------------------------------------------
 ! R1    R(1,2)                  1.51                                           !
 ! R2    R(1,15)                 1.0261                                         !
 ! R3    R(1,25)                 1.0266                                         !
 ! R4    R(1,26)                 1.0767                                         !
 ! R5    R(2,3)                  1.5435                                         !
 ! R6    R(2,5)                  1.5357                                         !
 ! R7    R(2,16)                 1.0934                                         !
 ! R8    R(3,4)                  1.2285                                         !
 ! R9    R(3,27)                 1.3447                                         !
 ! R10   R(5,6)                  1.5012                                         !
 ! R11   R(5,17)                 1.0958                                         !
 ! R12   R(5,18)                 1.0977                                         !
 ! R13   R(6,7)                  1.3773                                         !
 ! R14   R(6,8)                  1.4441                                         !
 ! R15   R(7,11)                 1.379                                          !
 ! R16   R(7,19)                 1.0819                                         !
 ! R17   R(8,9)                  1.4207                                         !
 ! R18   R(8,10)                 1.4071                                         !
 ! R19   R(9,11)                 1.383                                          !
 ! R20   R(9,12)                 1.3989                                         !
 ! R21   R(10,13)                1.3882                                         !
 ! R22   R(10,21)                1.0873                                         !
 ! R23   R(11,20)                1.0087                                         !
 ! R24   R(12,14)                1.3895                                         !
 ! R25   R(12,22)                1.0863                                         !
 ! R26   R(13,14)                1.4114                                         !
 ! R27   R(13,23)                1.0858                                         !
 ! R28   R(14,24)                1.0858                                         !
 ! R29   R(27,28)                1.4678                                         !
 ! R30   R(27,35)                1.0108                                         !
 ! R31   R(28,29)                1.5524                                         !
 ! R32   R(28,31)                1.5477                                         !
 ! R33   R(28,36)                1.096                                          !
 ! R34   R(29,30)                1.2188                                         !
 ! R35   R(29,46)                1.3841                                         !
 ! R36   R(31,32)                1.5448                                         !
 ! R37   R(31,33)                1.5349                                         !
 ! R38   R(31,37)                1.0952                                         !
 ! R39   R(32,34)                1.5322                                         !
 ! R40   R(32,38)                1.1012                                         !
 ! R41   R(32,39)                1.0943                                         !
 ! R42   R(33,40)                1.0934                                         !
 ! R43   R(33,41)                1.0942                                         !
 ! R44   R(33,42)                1.0986                                         !
 ! R45   R(34,43)                1.096                                          !
 ! R46   R(34,44)                1.0953                                         !
 ! R47   R(34,45)                1.0954                                         !
 ! R48   R(46,47)                1.4682                                         !
 ! R49   R(46,59)                1.0126                                         !
 ! R50   R(47,48)                1.5588                                         !
 ! R51   R(47,50)                1.5458                                         !
 ! R52   R(47,60)                1.0921                                         !
 ! R53   R(48,49)                1.2451                                         !
 ! R54   R(48,57)                1.2859                                         !
 ! R55   R(50,51)                1.5423                                         !
 ! R56   R(50,61)                1.0978                                         !
 ! R57   R(50,62)                1.0933                                         !
 ! R58   R(51,52)                1.5407                                         !
 ! R59   R(51,63)                1.092                                          !
 ! R60   R(51,64)                1.0973                                         !
 ! R61   R(52,53)                1.4839                                         !
 ! R62   R(52,65)                1.0929                                         !
 ! R63   R(52,66)                1.0971                                         !
 ! R64   R(53,54)                1.3347                                         !
 ! R65   R(53,67)                1.0119                                         !
 ! R66   R(54,55)                1.3419                                         !
 ! R67   R(54,56)                1.3497                                         !
 ! R68   R(55,68)                1.0103                                         !
 ! R69   R(56,69)                1.0119                                         !
 ! R70   R(56,70)                1.0128                                         !
 ! R71   R(57,58)                2.2279                                         !
 ! A1    A(2,1,15)             109.76                                           !
 ! A2    A(2,1,25)             108.3673                                         !
 ! A3    A(2,1,26)             109.091                                          !
 ! A4    A(15,1,25)            111.0986                                         !
 ! A5    A(15,1,26)            110.3863                                         !
 ! A6    A(25,1,26)            108.0794                                         !
 ! A7    A(1,2,3)              103.746                                          !
 ! A8    A(1,2,5)              109.2869                                         !
 ! A9    A(1,2,16)             105.9619                                         !
 ! A10   A(3,2,5)              121.1152                                         !
 ! A11   A(3,2,16)             105.7813                                         !
 ! A12   A(5,2,16)             109.877                                          !
 ! A13   A(2,3,4)              117.0201                                         !
 ! A14   A(2,3,27)             117.3155                                         !
 ! A15   A(4,3,27)             125.6299                                         !
 ! A16   A(2,5,6)              110.8511                                         !
 ! A17   A(2,5,17)             109.6649                                         !
 ! A18   A(2,5,18)             107.1871                                         !
 ! A19   A(6,5,17)             110.5395                                         !
 ! A20   A(6,5,18)             110.7625                                         !
 ! A21   A(17,5,18)            107.7278                                         !
 ! A22   A(5,6,7)              126.6487                                         !
 ! A23   A(5,6,8)              126.7174                                         !
 ! A24   A(7,6,8)              106.5862                                         !
 ! A25   A(6,7,11)             109.7806                                         !
 ! A26   A(6,7,19)             129.3048                                         !
 ! A27   A(11,7,19)            120.8862                                         !
 ! A28   A(6,8,9)              107.0187                                         !
 ! A29   A(6,8,10)             133.9358                                         !
 ! A30   A(9,8,10)             119.0431                                         !
 ! A31   A(8,9,11)             107.2709                                         !
 ! A32   A(8,9,12)             122.3151                                         !
 ! A33   A(11,9,12)            130.4137                                         !
 ! A34   A(8,10,13)            118.8487                                         !
 ! A35   A(8,10,21)            120.8127                                         !
 ! A36   A(13,10,21)           120.3293                                         !
 ! A37   A(7,11,9)             109.3425                                         !
 ! A38   A(7,11,20)            125.3226                                         !
 ! A39   A(9,11,20)            125.1435                                         !
 ! A40   A(9,12,14)            117.3091                                         !
 ! A41   A(9,12,22)            121.3837                                         !
 ! A42   A(14,12,22)           121.3068                                         !
 ! A43   A(10,13,14)           121.089                                          !
 ! A44   A(10,13,23)           119.6829                                         !
 ! A45   A(14,13,23)           119.2272                                         !
 ! A46   A(12,14,13)           121.3939                                         !
 ! A47   A(12,14,24)           119.3092                                         !
 ! A48   A(13,14,24)           119.2961                                         !
 ! A49   A(3,27,28)            123.8472                                         !
 ! A50   A(3,27,35)            118.2351                                         !
 ! A51   A(28,27,35)           116.2574                                         !
 ! A52   A(27,28,29)           110.9285                                         !
 ! A53   A(27,28,31)           113.414                                          !
 ! A54   A(27,28,36)           104.4697                                         !
 ! A55   A(29,28,31)           111.1674                                         !
 ! A56   A(29,28,36)           108.4126                                         !
 ! A57   A(31,28,36)           108.0795                                         !
 ! A58   A(28,29,30)           121.5737                                         !
 ! A59   A(28,29,46)           119.5956                                         !
 ! A60   A(30,29,46)           118.8221                                         !
 ! A61   A(28,31,32)           109.5637                                         !
 ! A62   A(28,31,33)           111.0309                                         !
 ! A63   A(28,31,37)           106.8628                                         !
 ! A64   A(32,31,33)           111.2723                                         !
 ! A65   A(32,31,37)           108.5741                                         !
 ! A66   A(33,31,37)           109.4067                                         !
 ! A67   A(31,32,34)           113.6424                                         !
 ! A68   A(31,32,38)           108.6317                                         !
 ! A69   A(31,32,39)           109.3347                                         !
 ! A70   A(34,32,38)           109.8616                                         !
 ! A71   A(34,32,39)           108.1915                                         !
 ! A72   A(38,32,39)           106.968                                          !
 ! A73   A(31,33,40)           110.5093                                         !
 ! A74   A(31,33,41)           112.0246                                         !
 ! A75   A(31,33,42)           111.2377                                         !
 ! A76   A(40,33,41)           107.3925                                         !
 ! A77   A(40,33,42)           107.5101                                         !
 ! A78   A(41,33,42)           107.9709                                         !
 ! A79   A(32,34,43)           110.4807                                         !
 ! A80   A(32,34,44)           110.7201                                         !
 ! A81   A(32,34,45)           112.3048                                         !
 ! A82   A(43,34,44)           107.7875                                         !
 ! A83   A(43,34,45)           107.9758                                         !
 ! A84   A(44,34,45)           107.3972                                         !
 ! A85   A(29,46,47)           134.7222                                         !
 ! A86   A(29,46,59)           108.7453                                         !
 ! A87   A(47,46,59)           115.0259                                         !
 ! A88   A(46,47,48)           112.6667                                         !
 ! A89   A(46,47,50)           112.9006                                         !
 ! A90   A(46,47,60)           102.4161                                         !
 ! A91   A(48,47,50)           114.4836                                         !
 ! A92   A(48,47,60)           104.6455                                         !
 ! A93   A(50,47,60)           108.5493                                         !
 ! A94   A(47,48,49)           119.2875                                         !
 ! A95   A(47,48,57)           115.0083                                         !
 ! A96   A(49,48,57)           125.6181                                         !
 ! A97   A(47,50,51)           117.3505                                         !
 ! A98   A(47,50,61)           107.8237                                         !
 ! A99   A(47,50,62)           108.2536                                         !
 ! A100  A(51,50,61)           110.3392                                         !
 ! A101  A(51,50,62)           106.0682                                         !
 ! A102  A(61,50,62)           106.4767                                         !
 ! A103  A(50,51,52)           118.7568                                         !
 ! A104  A(50,51,63)           108.1476                                         !
 ! A105  A(50,51,64)           107.8214                                         !
 ! A106  A(52,51,63)           111.8881                                         !
 ! A107  A(52,51,64)           103.9695                                         !
 ! A108  A(63,51,64)           105.2968                                         !
 ! A109  A(51,52,53)           117.0378                                         !
 ! A110  A(51,52,65)           109.5951                                         !
 ! A111  A(51,52,66)           109.7336                                         !
 ! A112  A(53,52,65)           104.3446                                         !
 ! A113  A(53,52,66)           108.9274                                         !
 ! A114  A(65,52,66)           106.6262                                         !
 ! A115  A(52,53,54)           127.2083                                         !
 ! A116  A(52,53,67)           116.4143                                         !
 ! A117  A(54,53,67)           116.2327                                         !
 ! A118  A(53,54,55)           122.1137                                         !
 ! A119  A(53,54,56)           119.4228                                         !
 ! A120  A(55,54,56)           118.4216                                         !
 ! A121  A(54,55,68)           118.3963                                         !
 ! A122  A(54,56,69)           118.1117                                         !
 ! A123  A(54,56,70)           116.4856                                         !
 ! A124  A(69,56,70)           113.4283                                         !
 ! A125  A(48,57,58)            83.6047                                         !
 ! D1    D(15,1,2,3)          -173.9621                                         !
 ! D2    D(15,1,2,5)            55.554                                          !
 ! D3    D(15,1,2,16)          -62.7894                                         !
 ! D4    D(25,1,2,3)           -52.4753                                         !
 ! D5    D(25,1,2,5)           177.0408                                         !
 ! D6    D(25,1,2,16)           58.6974                                         !
 ! D7    D(26,1,2,3)            64.9724                                         !
 ! D8    D(26,1,2,5)           -65.5114                                         !
 ! D9    D(26,1,2,16)          176.1451                                         !
 ! D10   D(1,2,3,4)             58.1507                                         !
 ! D11   D(1,2,3,27)          -119.8328                                         !
 ! D12   D(5,2,3,4)           -178.8359                                         !
 ! D13   D(5,2,3,27)             3.1806                                         !
 ! D14   D(16,2,3,4)           -53.1542                                         !
 ! D15   D(16,2,3,27)          128.8623                                         !
 ! D16   D(1,2,5,6)            -58.6609                                         !
 ! D17   D(1,2,5,17)            63.67                                           !
 ! D18   D(1,2,5,18)          -179.6503                                         !
 ! D19   D(3,2,5,6)           -179.0104                                         !
 ! D20   D(3,2,5,17)           -56.6796                                         !
 ! D21   D(3,2,5,18)            60.0002                                         !
 ! D22   D(16,2,5,6)            57.2087                                         !
 ! D23   D(16,2,5,17)          179.5396                                         !
 ! D24   D(16,2,5,18)          -63.7807                                         !
 ! D25   D(2,3,27,28)          176.5049                                         !
 ! D26   D(2,3,27,35)           11.7648                                         !
 ! D27   D(4,3,27,28)           -1.285                                          !
 ! D28   D(4,3,27,35)         -166.025                                          !
 ! D29   D(2,5,6,7)            111.1996                                         !
 ! D30   D(2,5,6,8)            -65.9466                                         !
 ! D31   D(17,5,6,7)           -10.6205                                         !
 ! D32   D(17,5,6,8)           172.2333                                         !
 ! D33   D(18,5,6,7)          -129.9475                                         !
 ! D34   D(18,5,6,8)            52.9063                                         !
 ! D35   D(5,6,7,11)          -177.6152                                         !
 ! D36   D(5,6,7,19)             4.3413                                         !
 ! D37   D(8,6,7,11)            -0.0019                                         !
 ! D38   D(8,6,7,19)          -178.0453                                         !
 ! D39   D(5,6,8,9)            177.8072                                         !
 ! D40   D(5,6,8,10)            -2.7845                                         !
 ! D41   D(7,6,8,9)              0.196                                          !
 ! D42   D(7,6,8,10)           179.6043                                         !
 ! D43   D(6,7,11,9)            -0.2009                                         !
 ! D44   D(6,7,11,20)         -175.3762                                         !
 ! D45   D(19,7,11,9)          178.035                                          !
 ! D46   D(19,7,11,20)           2.8597                                         !
 ! D47   D(6,8,9,11)            -0.3154                                         !
 ! D48   D(6,8,9,12)           179.8499                                         !
 ! D49   D(10,8,9,11)         -179.828                                          !
 ! D50   D(10,8,9,12)            0.3373                                         !
 ! D51   D(6,8,10,13)         -179.6944                                         !
 ! D52   D(6,8,10,21)           -0.7975                                         !
 ! D53   D(9,8,10,13)           -0.3416                                         !
 ! D54   D(9,8,10,21)          178.5553                                         !
 ! D55   D(8,9,11,7)             0.3207                                         !
 ! D56   D(8,9,11,20)          175.5066                                         !
 ! D57   D(12,9,11,7)         -179.8628                                         !
 ! D58   D(12,9,11,20)          -4.6768                                         !
 ! D59   D(8,9,12,14)           -0.0647                                         !
 ! D60   D(8,9,12,22)         -179.8324                                         !
 ! D61   D(11,9,12,14)        -179.8574                                         !
 ! D62   D(11,9,12,22)           0.3749                                         !
 ! D63   D(8,10,13,14)           0.0906                                         !
 ! D64   D(8,10,13,23)         179.7302                                         !
 ! D65   D(21,10,13,14)       -178.8118                                         !
 ! D66   D(21,10,13,23)          0.8277                                         !
 ! D67   D(9,12,14,13)          -0.1978                                         !
 ! D68   D(9,12,14,24)        -179.8729                                         !
 ! D69   D(22,12,14,13)        179.5702                                         !
 ! D70   D(22,12,14,24)         -0.105                                          !
 ! D71   D(10,13,14,12)          0.1887                                         !
 ! D72   D(10,13,14,24)        179.864                                          !
 ! D73   D(23,13,14,12)       -179.4524                                         !
 ! D74   D(23,13,14,24)          0.2228                                         !
 ! D75   D(3,27,28,29)         -45.8356                                         !
 ! D76   D(3,27,28,31)          80.1011                                         !
 ! D77   D(3,27,28,36)        -162.4469                                         !
 ! D78   D(35,27,28,29)        119.1797                                         !
 ! D79   D(35,27,28,31)       -114.8835                                         !
 ! D80   D(35,27,28,36)          2.5685                                         !
 ! D81   D(27,28,29,30)        122.5811                                         !
 ! D82   D(27,28,29,46)        -56.3401                                         !
 ! D83   D(31,28,29,30)         -4.5978                                         !
 ! D84   D(31,28,29,46)        176.481                                          !
 ! D85   D(36,28,29,30)       -123.2603                                         !
 ! D86   D(36,28,29,46)         57.8184                                         !
 ! D87   D(27,28,31,32)        163.0198                                         !
 ! D88   D(27,28,31,33)         39.7118                                         !
 ! D89   D(27,28,31,37)        -79.5316                                         !
 ! D90   D(29,28,31,32)        -71.1705                                         !
 ! D91   D(29,28,31,33)        165.5214                                         !
 ! D92   D(29,28,31,37)         46.278                                          !
 ! D93   D(36,28,31,32)         47.6922                                         !
 ! D94   D(36,28,31,33)        -75.6159                                         !
 ! D95   D(36,28,31,37)        165.1408                                         !
 ! D96   D(28,29,46,47)        -18.6798                                         !
 ! D97   D(28,29,46,59)        176.5654                                         !
 ! D98   D(30,29,46,47)        162.3692                                         !
 ! D99   D(30,29,46,59)         -2.3856                                         !
 ! D100  D(28,31,32,34)        164.3082                                         !
 ! D101  D(28,31,32,38)        -73.0771                                         !
 ! D102  D(28,31,32,39)         43.3261                                         !
 ! D103  D(33,31,32,34)        -72.5262                                         !
 ! D104  D(33,31,32,38)         50.0884                                         !
 ! D105  D(33,31,32,39)        166.4916                                         !
 ! D106  D(37,31,32,34)         47.9369                                         !
 ! D107  D(37,31,32,38)        170.5516                                         !
 ! D108  D(37,31,32,39)        -73.0453                                         !
 ! D109  D(28,31,33,40)        177.06                                           !
 ! D110  D(28,31,33,41)        -63.2314                                         !
 ! D111  D(28,31,33,42)         57.7183                                         !
 ! D112  D(32,31,33,40)         54.7384                                         !
 ! D113  D(32,31,33,41)        174.447                                          !
 ! D114  D(32,31,33,42)        -64.6034                                         !
 ! D115  D(37,31,33,40)        -65.2329                                         !
 ! D116  D(37,31,33,41)         54.4758                                         !
 ! D117  D(37,31,33,42)        175.4254                                         !
 ! D118  D(31,32,34,43)        -59.5081                                         !
 ! D119  D(31,32,34,44)       -178.8444                                         !
 ! D120  D(31,32,34,45)         61.1092                                         !
 ! D121  D(38,32,34,43)        178.5572                                         !
 ! D122  D(38,32,34,44)         59.2209                                         !
 ! D123  D(38,32,34,45)        -60.8254                                         !
 ! D124  D(39,32,34,43)         62.1127                                         !
 ! D125  D(39,32,34,44)        -57.2236                                         !
 ! D126  D(39,32,34,45)       -177.2699                                         !
 ! D127  D(29,46,47,48)         72.6483                                         !
 ! D128  D(29,46,47,50)        -58.9549                                         !
 ! D129  D(29,46,47,60)       -175.4814                                         !
 ! D130  D(59,46,47,48)       -123.3019                                         !
 ! D131  D(59,46,47,50)        105.0949                                         !
 ! D132  D(59,46,47,60)        -11.4316                                         !
 ! D133  D(46,47,48,49)       -109.6895                                         !
 ! D134  D(46,47,48,57)         73.4963                                         !
 ! D135  D(50,47,48,49)         21.1203                                         !
 ! D136  D(50,47,48,57)       -155.6939                                         !
 ! D137  D(60,47,48,49)        139.825                                          !
 ! D138  D(60,47,48,57)        -36.9892                                         !
 ! D139  D(46,47,50,51)        179.2961                                         !
 ! D140  D(46,47,50,61)        -55.4389                                         !
 ! D141  D(46,47,50,62)         59.3801                                         !
 ! D142  D(48,47,50,51)         48.6002                                         !
 ! D143  D(48,47,50,61)        173.8652                                         !
 ! D144  D(48,47,50,62)        -71.3157                                         !
 ! D145  D(60,47,50,51)        -67.8773                                         !
 ! D146  D(60,47,50,61)         57.3877                                         !
 ! D147  D(60,47,50,62)        172.2068                                         !
 ! D148  D(47,48,57,58)        113.0784                                         !
 ! D149  D(49,48,57,58)        -63.5033                                         !
 ! D150  D(47,50,51,52)         72.3171                                         !
 ! D151  D(47,50,51,63)        -56.5394                                         !
 ! D152  D(47,50,51,64)       -169.9298                                         !
 ! D153  D(61,50,51,52)        -51.688                                          !
 ! D154  D(61,50,51,63)        179.4555                                         !
 ! D155  D(61,50,51,64)         66.0651                                         !
 ! D156  D(62,50,51,52)       -166.6207                                         !
 ! D157  D(62,50,51,63)         64.5228                                         !
 ! D158  D(62,50,51,64)        -48.8676                                         !
 ! D159  D(50,51,52,53)        -54.6123                                         !
 ! D160  D(50,51,52,65)         63.873                                          !
 ! D161  D(50,51,52,66)       -179.36                                           !
 ! D162  D(63,51,52,53)         72.4984                                         !
 ! D163  D(63,51,52,65)       -169.0163                                         !
 ! D164  D(63,51,52,66)        -52.2493                                         !
 ! D165  D(64,51,52,53)       -174.3652                                         !
 ! D166  D(64,51,52,65)        -55.8799                                         !
 ! D167  D(64,51,52,66)         60.8871                                         !
 ! D168  D(51,52,53,54)        -47.6627                                         !
 ! D169  D(51,52,53,67)        127.771                                          !
 ! D170  D(65,52,53,54)       -168.938                                          !
 ! D171  D(65,52,53,67)          6.4957                                         !
 ! D172  D(66,52,53,54)         77.4897                                         !
 ! D173  D(66,52,53,67)       -107.0765                                         !
 ! D174  D(52,53,54,55)        -18.8343                                         !
 ! D175  D(52,53,54,56)        163.5559                                         !
 ! D176  D(67,53,54,55)        165.7248                                         !
 ! D177  D(67,53,54,56)        -11.885                                          !
 ! D178  D(53,54,55,68)          2.5141                                         !
 ! D179  D(56,54,55,68)       -179.8531                                         !
 ! D180  D(53,54,56,69)        -26.555                                          !
 ! D181  D(53,54,56,70)       -166.8925                                         !
 ! D182  D(55,54,56,69)        155.7469                                         !
 ! D183  D(55,54,56,70)         15.4094                                         !
 --------------------------------------------------------------------------------
 Symmetry turned off by external request.
 Stoichiometry    C23H36N7O4(1+)
 Framework group  C1[X(C23H36N7O4)]
 Deg. of freedom   204
 Full point group                 C1      NOp   1
                          Input orientation:                          
 ---------------------------------------------------------------------
 Center     Atomic      Atomic             Coordinates (Angstroms)
 Number     Number       Type             X           Y           Z
 ---------------------------------------------------------------------
      1          7           0      -93.634716  -15.132785    4.407867
      2          6           0      -94.888404  -15.537677    3.669947
      3          6           0      -95.330982  -14.240707    2.959694
      4          8           0      -94.526871  -13.725162    2.187194
      5          6           0      -95.828972  -16.274918    4.634444
      6          6           0      -95.159220  -17.488613    5.210668
      7          6           0      -94.765616  -17.667429    6.518311
      8          6           0      -94.750555  -18.672386    4.491613
      9          6           0      -94.117356  -19.530983    5.429879
     10          6           0      -94.867971  -19.091045    3.153404
     11          7           0      -94.138639  -18.888165    6.654196
     12          6           0      -93.598188  -20.779053    5.069763
     13          6           0      -94.353949  -20.328696    2.791213
     14          6           0      -93.724086  -21.162281    3.740155
     15          1           0      -93.202414  -15.958796    4.836536
     16          1           0      -94.564181  -16.215767    2.875895
     17          1           0      -96.145207  -15.594628    5.433228
     18          1           0      -96.722579  -16.557941    4.063152
     19          1           0      -94.913151  -17.020642    7.373001
     20          1           0      -93.816834  -19.284900    7.523960
     21          1           0      -95.367878  -18.467124    2.416439
     22          1           0      -93.119284  -21.424702    5.800363
     23          1           0      -94.441044  -20.667138    1.763147
     24          1           0      -93.334325  -22.125656    3.425454
     25          1           0      -92.996013  -14.686214    3.739667
     26          1           0      -93.888826  -14.408142    5.162624
     27          7           0      -96.543966  -13.750337    3.270016
     28          6           0      -97.076976  -12.490356    2.738125
     29          6           0      -96.013506  -11.362080    2.814890
     30          8           0      -95.653739  -10.755539    1.820862
     31          6           0      -97.650906  -12.620931    1.306724
     32          6           0      -98.552022  -11.404757    0.997763
     33          6           0      -98.418420  -13.939521    1.139177
     34          6           0      -98.861990  -11.232600   -0.492825
     35          1           0      -97.026261  -14.137891    4.069354
     36          1           0      -97.901779  -12.235191    3.413335
     37          1           0      -96.797969  -12.606552    0.619922
     38          1           0      -99.489924  -11.508601    1.565376
     39          1           0      -98.063316  -10.492290    1.352675
     40          1           0      -98.863880  -13.999503    0.142413
     41          1           0      -97.767966  -14.811072    1.259716
     42          1           0      -99.233690  -14.021206    1.871043
     43          1           0      -97.936041  -11.102623   -1.064531
     44          1           0      -99.485118  -10.347311   -0.659342
     45          1           0      -99.397752  -12.093047   -0.908129
     46          7           0      -95.439101  -11.045911    4.033837
     47          6           0      -95.797611  -11.283795    5.437605
     48          6           0      -95.600860  -12.770091    5.864278
     49          8           0      -96.601058  -13.477171    6.087635
     50          6           0      -97.171011  -10.684649    5.817532
     51          6           0      -97.657052  -10.889630    7.266819
     52          6           0      -96.972130  -10.098010    8.397256
     53          7           0      -95.497060  -10.217228    8.506349
     54          6           0      -94.774201  -11.339019    8.484885
     55          7           0      -95.317208  -12.542296    8.725855
     56          7           0      -93.445111  -11.267181    8.261143
     57          8           0      -94.376995  -13.135077    6.014594
     58          1           0      -94.953497  -13.310519    8.159458
     59          1           0      -94.734025  -10.334209    3.886485
     60          1           0      -95.019514  -10.737052    5.974572
     61          1           0      -97.151475   -9.615481    5.569248
     62          1           0      -97.931641  -11.138055    5.176285
     63          1           0      -97.672025  -11.962052    7.472064
     64          1           0      -98.705680  -10.570489    7.317664
     65          1           0      -97.147534   -9.028770    8.254316
     66          1           0      -97.422909  -10.363912    9.361426
     67          1           0      -94.976366   -9.350129    8.536365
     68          1           0      -96.312436  -12.595911    8.891046
     69          1           0      -93.092844  -10.481348    7.729868
     70          1           0      -92.974770  -12.139058    8.050362
 ---------------------------------------------------------------------
 Rotational constants (GHZ):           0.1432317           0.0816619           0.0576164
 Standard basis: 6-31G(d) (6D, 7F)
   582 basis functions,  1096 primitive gaussians,   582 cartesian basis functions
   127 alpha electrons      127 beta electrons
       nuclear repulsion energy      3863.5209220379 Hartrees.
 NAtoms=   70 NActive=   70 NUniq=   70 SFac= 1.00D+00 NAtFMM=   60 NAOKFM=T Big=T
 Integral buffers will be    131072 words long.
 Raffenetti 2 integral format.
 Two-electron integral symmetry is turned off.
 Nuclear repulsion after empirical dispersion term =     3863.4240245061 Hartrees.
 One-electron integrals computed using PRISM.
 NBasis=   582 RedAO= T EigKep=  3.77D-04  NBF=   582
 NBsUse=   582 1.00D-06 EigRej= -1.00D+00 NBFU=   582
 Initial guess from the checkpoint file:  "conf-121.chk"
 B after Tr=     0.000000    0.000000    0.000000
         Rot=    1.000000    0.000000    0.000000    0.000000 Ang=   0.00 deg.
 Requested convergence on RMS density matrix=1.00D-08 within 128 cycles.
 Requested convergence on MAX density matrix=1.00D-06.
 Requested convergence on             energy=1.00D-06.
 No special actions if energy rises.
 SCF Done:  E(RB3LYP) =  -1582.22674111     A.U. after    1 cycles
            NFock=  1  Conv=0.37D-08     -V/T= 2.0095

 **********************************************************************

            Population analysis using the SCF Density.

 **********************************************************************

 Alpha  occ. eigenvalues --  -19.21492 -19.21478 -19.20888 -19.19246 -14.54180
 Alpha  occ. eigenvalues --  -14.53135 -14.52046 -14.51491 -14.47045 -14.45979
 Alpha  occ. eigenvalues --  -14.44391 -10.48533 -10.39031 -10.38995 -10.37045
 Alpha  occ. eigenvalues --  -10.36821 -10.35886 -10.33495 -10.32051 -10.31597
 Alpha  occ. eigenvalues --  -10.30829 -10.30470 -10.29964 -10.29595 -10.28030
 Alpha  occ. eigenvalues --  -10.27151 -10.26953 -10.26888 -10.26338 -10.26010
 Alpha  occ. eigenvalues --  -10.25670 -10.24068 -10.23974 -10.22593  -1.17338
 Alpha  occ. eigenvalues --   -1.14670  -1.13875  -1.11488  -1.09051  -1.06894
 Alpha  occ. eigenvalues --   -1.06675  -1.05342  -1.05139  -1.02620  -1.00262
 Alpha  occ. eigenvalues --   -0.92289  -0.91436  -0.90750  -0.88141  -0.85887
 Alpha  occ. eigenvalues --   -0.85486  -0.81840  -0.81439  -0.80632  -0.80097
 Alpha  occ. eigenvalues --   -0.77866  -0.77378  -0.76487  -0.74502  -0.72340
 Alpha  occ. eigenvalues --   -0.70700  -0.70602  -0.69453  -0.69259  -0.68636
 Alpha  occ. eigenvalues --   -0.68221  -0.67295  -0.66337  -0.65933  -0.64980
 Alpha  occ. eigenvalues --   -0.64547  -0.62905  -0.62515  -0.62043  -0.61708
 Alpha  occ. eigenvalues --   -0.60516  -0.60374  -0.59653  -0.58618  -0.57234
 Alpha  occ. eigenvalues --   -0.56681  -0.55826  -0.55448  -0.55111  -0.54697
 Alpha  occ. eigenvalues --   -0.53430  -0.53252  -0.52762  -0.51961  -0.51778
 Alpha  occ. eigenvalues --   -0.51426  -0.51094  -0.50929  -0.50765  -0.50032
 Alpha  occ. eigenvalues --   -0.49462  -0.49200  -0.49053  -0.48496  -0.47656
 Alpha  occ. eigenvalues --   -0.47328  -0.46771  -0.46485  -0.45978  -0.45809
 Alpha  occ. eigenvalues --   -0.44926  -0.44105  -0.43672  -0.43536  -0.43358
 Alpha  occ. eigenvalues --   -0.41794  -0.41672  -0.41582  -0.41241  -0.40033
 Alpha  occ. eigenvalues --   -0.38764  -0.38381  -0.37942  -0.36823  -0.36432
 Alpha  occ. eigenvalues --   -0.35425  -0.35048  -0.34885  -0.32863  -0.32190
 Alpha  occ. eigenvalues --   -0.30749  -0.29267
 Alpha virt. eigenvalues --   -0.14350  -0.09748  -0.09352  -0.09173  -0.08025
 Alpha virt. eigenvalues --   -0.06219  -0.05767  -0.04814  -0.04359  -0.03945
 Alpha virt. eigenvalues --   -0.03045  -0.02829  -0.01411  -0.00873  -0.00217
 Alpha virt. eigenvalues --    0.00368   0.00758   0.00936   0.02063   0.02885
 Alpha virt. eigenvalues --    0.03449   0.03949   0.04032   0.04729   0.05180
 Alpha virt. eigenvalues --    0.05244   0.05689   0.06236   0.06806   0.07194
 Alpha virt. eigenvalues --    0.07561   0.07780   0.07997   0.08314   0.08373
 Alpha virt. eigenvalues --    0.09132   0.09344   0.09574   0.10099   0.10617
 Alpha virt. eigenvalues --    0.10743   0.11148   0.11669   0.11712   0.12421
 Alpha virt. eigenvalues --    0.12784   0.13021   0.13346   0.13856   0.14033
 Alpha virt. eigenvalues --    0.14977   0.15192   0.15685   0.16198   0.16724
 Alpha virt. eigenvalues --    0.17222   0.17641   0.18187   0.18691   0.19333
 Alpha virt. eigenvalues --    0.20269   0.21197   0.21625   0.22404   0.23333
 Alpha virt. eigenvalues --    0.23715   0.25825   0.26027   0.26409   0.26676
 Alpha virt. eigenvalues --    0.28265   0.29070   0.29805   0.31475   0.32290
 Alpha virt. eigenvalues --    0.34550   0.35077   0.35591   0.38181   0.38549
 Alpha virt. eigenvalues --    0.39349   0.39949   0.41265   0.41537   0.41749
 Alpha virt. eigenvalues --    0.42191   0.42978   0.43460   0.44069   0.44593
 Alpha virt. eigenvalues --    0.45113   0.45228   0.45831   0.46620   0.47239
 Alpha virt. eigenvalues --    0.47544   0.48007   0.48329   0.48922   0.49088
 Alpha virt. eigenvalues --    0.49174   0.49793   0.50314   0.50804   0.51316
 Alpha virt. eigenvalues --    0.51948   0.52421   0.52778   0.53240   0.53492
 Alpha virt. eigenvalues --    0.53732   0.54010   0.54123   0.54726   0.54881
 Alpha virt. eigenvalues --    0.55260   0.55728   0.55791   0.56618   0.57117
 Alpha virt. eigenvalues --    0.57549   0.58671   0.59581   0.59870   0.60373
 Alpha virt. eigenvalues --    0.60876   0.61063   0.61565   0.62604   0.63176
 Alpha virt. eigenvalues --    0.63994   0.64439   0.65417   0.66072   0.66825
 Alpha virt. eigenvalues --    0.67762   0.67910   0.68609   0.68914   0.70139
 Alpha virt. eigenvalues --    0.70162   0.70737   0.71342   0.71946   0.72372
 Alpha virt. eigenvalues --    0.73009   0.73231   0.74131   0.74464   0.74790
 Alpha virt. eigenvalues --    0.75707   0.75866   0.75998   0.76596   0.77109
 Alpha virt. eigenvalues --    0.77504   0.77734   0.78052   0.78502   0.78564
 Alpha virt. eigenvalues --    0.78810   0.79084   0.79720   0.79895   0.80632
 Alpha virt. eigenvalues --    0.81153   0.81778   0.82163   0.82745   0.83284
 Alpha virt. eigenvalues --    0.83589   0.83721   0.84049   0.84808   0.84879
 Alpha virt. eigenvalues --    0.85399   0.85477   0.86198   0.86564   0.87061
 Alpha virt. eigenvalues --    0.87299   0.88232   0.88716   0.89023   0.89671
 Alpha virt. eigenvalues --    0.89708   0.90484   0.90977   0.91902   0.92319
 Alpha virt. eigenvalues --    0.92562   0.93003   0.93562   0.93963   0.94384
 Alpha virt. eigenvalues --    0.95320   0.96293   0.96957   0.97333   0.97419
 Alpha virt. eigenvalues --    0.98422   0.98732   0.99174   1.00405   1.01178
 Alpha virt. eigenvalues --    1.03534   1.03766   1.04655   1.05119   1.06177
 Alpha virt. eigenvalues --    1.06745   1.07615   1.08566   1.10633   1.11174
 Alpha virt. eigenvalues --    1.11812   1.13717   1.14724   1.15784   1.16249
 Alpha virt. eigenvalues --    1.16356   1.16842   1.17430   1.19985   1.20143
 Alpha virt. eigenvalues --    1.21191   1.22103   1.22899   1.23511   1.23923
 Alpha virt. eigenvalues --    1.25206   1.25933   1.26700   1.28062   1.28806
 Alpha virt. eigenvalues --    1.29534   1.31221   1.31747   1.32331   1.33269
 Alpha virt. eigenvalues --    1.33993   1.35252   1.37607   1.38034   1.39138
 Alpha virt. eigenvalues --    1.40233   1.41447   1.41583   1.41873   1.42118
 Alpha virt. eigenvalues --    1.42609   1.44324   1.44527   1.46624   1.47550
 Alpha virt. eigenvalues --    1.47790   1.50030   1.51459   1.53041   1.53543
 Alpha virt. eigenvalues --    1.54721   1.55348   1.56776   1.57239   1.58269
 Alpha virt. eigenvalues --    1.59149   1.59971   1.62043   1.62596   1.62698
 Alpha virt. eigenvalues --    1.64473   1.65041   1.66210   1.66647   1.67295
 Alpha virt. eigenvalues --    1.67707   1.68205   1.69275   1.69547   1.70633
 Alpha virt. eigenvalues --    1.71188   1.71740   1.72564   1.72894   1.73707
 Alpha virt. eigenvalues --    1.74457   1.74924   1.76354   1.77356   1.77769
 Alpha virt. eigenvalues --    1.79262   1.79943   1.80360   1.81788   1.81955
 Alpha virt. eigenvalues --    1.82321   1.82458   1.82743   1.83315   1.84343
 Alpha virt. eigenvalues --    1.84575   1.85428   1.86022   1.86855   1.87154
 Alpha virt. eigenvalues --    1.87467   1.88504   1.89314   1.89890   1.90320
 Alpha virt. eigenvalues --    1.90762   1.91389   1.91932   1.92628   1.93285
 Alpha virt. eigenvalues --    1.93903   1.94647   1.95413   1.95584   1.95946
 Alpha virt. eigenvalues --    1.97039   1.97787   1.97957   1.99301   1.99450
 Alpha virt. eigenvalues --    2.00710   2.01294   2.03254   2.03858   2.04214
 Alpha virt. eigenvalues --    2.05338   2.06017   2.06277   2.06866   2.07900
 Alpha virt. eigenvalues --    2.08418   2.09410   2.09959   2.11680   2.13574
 Alpha virt. eigenvalues --    2.14128   2.14359   2.16051   2.16717   2.17271
 Alpha virt. eigenvalues --    2.17669   2.19034   2.19849   2.21537   2.22124
 Alpha virt. eigenvalues --    2.23458   2.24042   2.24503   2.25171   2.25919
 Alpha virt. eigenvalues --    2.26870   2.28348   2.29266   2.30004   2.30327
 Alpha virt. eigenvalues --    2.31107   2.32361   2.32664   2.33484   2.35185
 Alpha virt. eigenvalues --    2.36337   2.37626   2.38724   2.39679   2.40365
 Alpha virt. eigenvalues --    2.41124   2.41601   2.42437   2.43957   2.45110
 Alpha virt. eigenvalues --    2.45456   2.46077   2.46918   2.47259   2.48218
 Alpha virt. eigenvalues --    2.50193   2.51161   2.51809   2.52766   2.54505
 Alpha virt. eigenvalues --    2.55842   2.57033   2.57457   2.57728   2.59612
 Alpha virt. eigenvalues --    2.59932   2.60169   2.60681   2.61084   2.62559
 Alpha virt. eigenvalues --    2.65832   2.66489   2.68008   2.69238   2.69603
 Alpha virt. eigenvalues --    2.72489   2.73766   2.75632   2.77363   2.80525
 Alpha virt. eigenvalues --    2.83787   2.84090   2.88133   2.90256   2.91199
 Alpha virt. eigenvalues --    2.92022   2.93567   2.93679   2.95404   2.97553
 Alpha virt. eigenvalues --    3.04602   3.05697   3.08786   3.09741   3.16194
 Alpha virt. eigenvalues --    3.35911   3.65510   3.75599   3.78100   3.82594
 Alpha virt. eigenvalues --    3.86770   3.93937   3.97217   4.01149   4.01660
 Alpha virt. eigenvalues --    4.02861   4.04386   4.08151   4.09582   4.11750
 Alpha virt. eigenvalues --    4.13238   4.15998   4.19685   4.21298   4.22811
 Alpha virt. eigenvalues --    4.25528   4.28196   4.29957   4.32179   4.33401
 Alpha virt. eigenvalues --    4.36706   4.37863   4.40748   4.47607   4.49428
 Alpha virt. eigenvalues --    4.55627   4.60581   4.62792   4.67536   4.71398
          Condensed to atoms (all electrons):
 Mulliken charges:
               1
     1  N   -0.766030
     2  C   -0.107434
     3  C    0.616826
     4  O   -0.517520
     5  C   -0.408888
     6  C    0.016181
     7  C   -0.009358
     8  C    0.086924
     9  C    0.309288
    10  C   -0.215001
    11  N   -0.682550
    12  C   -0.157411
    13  C   -0.136704
    14  C   -0.147825
    15  H    0.389785
    16  H    0.217308
    17  H    0.204476
    18  H    0.185470
    19  H    0.153013
    20  H    0.341464
    21  H    0.130286
    22  H    0.143591
    23  H    0.145974
    24  H    0.149779
    25  H    0.404212
    26  H    0.437661
    27  N   -0.617794
    28  C   -0.058025
    29  C    0.616234
    30  O   -0.480108
    31  C   -0.066569
    32  C   -0.265124
    33  C   -0.457989
    34  C   -0.452372
    35  H    0.377806
    36  H    0.159241
    37  H    0.176225
    38  H    0.119961
    39  H    0.154039
    40  H    0.167354
    41  H    0.137552
    42  H    0.131967
    43  H    0.161784
    44  H    0.151620
    45  H    0.147863
    46  N   -0.623934
    47  C   -0.005672
    48  C    0.612070
    49  O   -0.570703
    50  C   -0.263099
    51  C   -0.317568
    52  C   -0.165037
    53  N   -0.585889
    54  C    0.743392
    55  N   -0.717441
    56  N   -0.706880
    57  O   -0.677982
    58  H    0.383288
    59  H    0.334462
    60  H    0.108566
    61  H    0.149246
    62  H    0.171768
    63  H    0.180669
    64  H    0.180581
    65  H    0.191706
    66  H    0.193439
    67  H    0.367192
    68  H    0.381130
    69  H    0.368846
    70  H    0.380668
 Sum of Mulliken charges =   1.00000
 Mulliken charges with hydrogens summed into heavy atoms:
               1
     1  N    0.465628
     2  C    0.109875
     3  C    0.616826
     4  O   -0.517520
     5  C   -0.018941
     6  C    0.016181
     7  C    0.143655
     8  C    0.086924
     9  C    0.309288
    10  C   -0.084715
    11  N   -0.341086
    12  C   -0.013820
    13  C    0.009270
    14  C    0.001955
    27  N   -0.239988
    28  C    0.101216
    29  C    0.616234
    30  O   -0.480108
    31  C    0.109656
    32  C    0.008876
    33  C   -0.021116
    34  C    0.008895
    46  N   -0.289472
    47  C    0.102894
    48  C    0.612070
    49  O   -0.570703
    50  C    0.057916
    51  C    0.043682
    52  C    0.220108
    53  N   -0.218697
    54  C    0.743392
    55  N    0.046977
    56  N    0.042633
    57  O   -0.677982
 Electronic spatial extent (au):  <R**2>=        8520648.4887
 Charge=              1.0000 electrons
 Dipole moment (field-independent basis, Debye):
    X=           -455.2653    Y=            -63.9751    Z=             36.6636  Tot=            461.1979
 Quadrupole moment (field-independent basis, Debye-Ang):
   XX=          42976.6294   YY=            728.8208   ZZ=             81.7109
   XY=           6043.8420   XZ=          -3472.2022   YZ=           -458.6440
 Traceless Quadrupole moment (field-independent basis, Debye-Ang):
   XX=          28380.9090   YY=         -13866.8996   ZZ=         -14514.0095
   XY=           6043.8420   XZ=          -3472.2022   YZ=           -458.6440
 Octapole moment (field-independent basis, Debye-Ang**2):
  XXX=       -4039775.3417  YYY=          -6082.2329  ZZZ=           -538.6469  XYY=         -68293.7199
  XXY=        -568426.0417  XXZ=         328051.3859  XZZ=          -7586.0861  YZZ=           -632.0133
  YYZ=           5327.8951  XYZ=          43296.4598
 Hexadecapole moment (field-independent basis, Debye-Ang**3):
 XXXX=      378034800.2653 YYYY=         -10330.0023 ZZZZ=         -15071.1521 XXXY=       53210953.0070
 XXXZ=      -30918299.4966 YYYX=         556208.8535 YYYZ=         -54117.5448 ZZZX=          52024.9152
 ZZZY=          11392.1264 XXYY=        6358914.6607 XXZZ=         698808.3106 YYZZ=          -1524.0055
 XXYZ=       -4075898.6015 YYXZ=        -499924.4388 ZZXY=          57208.5367
 N-N= 3.863424024506D+03 E-N=-1.138256901476D+04  KE= 1.567327502787D+03
 Unable to Open any file for archive entry.
 1\1\GINC-QML-002\SP\RB3LYP\6-31G(d)\C23H36N7O4(1+)\KENGMITH\24-May-202
 2\0\\# B3LYP/6-31G* empiricaldispersion=gd3 guess=read geom=check nosy
 mm integral(ultrafinegrid)\\Candidate Structure: Conf:121 Charge calc 
 in gas phase\\1,1\N,0,-93.6347161386,-15.1327846924,4.407867044\C,0,-9
 4.8884040859,-15.5376767069,3.6699472748\C,0,-95.3309820164,-14.240707
 0305,2.9596944386\O,0,-94.5268709622,-13.7251617714,2.1871935739\C,0,-
 95.8289723731,-16.2749176505,4.6344438304\C,0,-95.1592201004,-17.48861
 2538,5.210668193\C,0,-94.7656163806,-17.6674290314,6.5183107405\C,0,-9
 4.7505545259,-18.6723859731,4.4916126536\C,0,-94.1173559822,-19.530982
 564,5.42987887\C,0,-94.8679714777,-19.0910449011,3.1534040078\N,0,-94.
 1386391351,-18.8881654659,6.6541960031\C,0,-93.5981884328,-20.77905329
 04,5.069762879\C,0,-94.3539487269,-20.3286959715,2.7912133013\C,0,-93.
 7240860912,-21.1622808376,3.7401545754\H,0,-93.202413999,-15.958795518
 7,4.8365355794\H,0,-94.5641814854,-16.2157671315,2.8758945595\H,0,-96.
 1452067805,-15.5946277252,5.4332282964\H,0,-96.7225793847,-16.55794058
 ,4.0631521827\H,0,-94.9131511322,-17.0206418759,7.373000651\H,0,-93.81
 68339598,-19.284899732,7.5239604721\H,0,-95.3678783187,-18.4671240736,
 2.4164387118\H,0,-93.1192838327,-21.42470209,5.8003628127\H,0,-94.4410
 443264,-20.6671383036,1.7631471708\H,0,-93.3343249109,-22.1256564304,3
 .4254536206\H,0,-92.9960133526,-14.6862140136,3.7396668762\H,0,-93.888
 8260962,-14.4081420656,5.1626243733\N,0,-96.5439660807,-13.7503374283,
 3.2700156164\C,0,-97.0769764503,-12.4903556855,2.738124865\C,0,-96.013
 5058721,-11.36208016,2.8148896672\O,0,-95.6537388641,-10.7555394257,1.
 8208616981\C,0,-97.6509058503,-12.6209311932,1.306723813\C,0,-98.55202
 21061,-11.4047568188,0.997763241\C,0,-98.4184198737,-13.9395208276,1.1
 39177322\C,0,-98.8619900986,-11.2326000519,-0.4928245928\H,0,-97.02626
 1188,-14.1378909948,4.069353819\H,0,-97.9017794425,-12.2351910521,3.41
 33349074\H,0,-96.7979691974,-12.6065520087,0.6199224987\H,0,-99.489924
 1021,-11.5086011725,1.5653756278\H,0,-98.0633159313,-10.4922898243,1.3
 526750338\H,0,-98.8638802716,-13.9995032154,0.1424132436\H,0,-97.76796
 64004,-14.8110723692,1.2597157078\H,0,-99.2336896393,-14.0212064787,1.
 8710427058\H,0,-97.9360407052,-11.102622861,-1.0645305432\H,0,-99.4851
 184528,-10.3473109901,-0.659342385\H,0,-99.3977519583,-12.0930472208,-
 0.9081294691\N,0,-95.4391013117,-11.0459107158,4.0338365528\C,0,-95.79
 76109353,-11.2837953044,5.4376050905\C,0,-95.6008600244,-12.7700909775
 ,5.8642782154\O,0,-96.6010575305,-13.4771709522,6.087635376\C,0,-97.17
 10110121,-10.6846488033,5.8175324143\C,0,-97.6570520797,-10.8896299135
 ,7.2668186737\C,0,-96.9721302444,-10.0980100737,8.3972559547\N,0,-95.4
 970595258,-10.2172284134,8.5063489152\C,0,-94.7742014327,-11.339019379
 7,8.4848849775\N,0,-95.3172080971,-12.5422961703,8.7258552089\N,0,-93.
 4451114595,-11.2671806605,8.2611427456\O,0,-94.376994762,-13.135077204
 4,6.0145936321\H,0,-94.9534971765,-13.3105190854,8.1594581463\H,0,-94.
 7340247659,-10.3342090475,3.8864851418\H,0,-95.0195139034,-10.73705192
 71,5.974571988\H,0,-97.1514750718,-9.6154807151,5.5692480365\H,0,-97.9
 316413689,-11.1380550378,5.1762852877\H,0,-97.6720248424,-11.962052007
 3,7.4720638275\H,0,-98.7056796942,-10.5704890934,7.3176644367\H,0,-97.
 1475343861,-9.0287698445,8.2543158738\H,0,-97.4229087906,-10.363911542
 ,9.3614262394\H,0,-94.9763659464,-9.3501291071,8.5363653428\H,0,-96.31
 24360044,-12.5959110215,8.8910461028\H,0,-93.0928435019,-10.4813482117
 ,7.7298680703\H,0,-92.9747698799,-12.1390577675,8.0503616413\\Version=
 ES64L-G16RevC.01\HF=-1582.2267411\RMSD=3.729e-09\Dipole=1.6726737,1.47
 45252,5.6725546\Quadrupole=21100.5102671,-10309.6999647,-10790.8103024
 ,4493.4484145,-2581.49724,-340.9905589\PG=C01 [X(C23H36N7O4)]\\@
 The archive entry for this job was punched.


 MANHOOD BEGINS BY TRYING TO SHAVE FACE,
 AND ENDS BY TRYING TO SAVE FACE.
 Job cpu time:       0 days  0 hours  2 minutes 31.4 seconds.
 Elapsed time:       0 days  0 hours  0 minutes 38.5 seconds.
 File lengths (MBytes):  RWF=    296 Int=      0 D2E=      0 Chk=     40 Scr=     16
 Normal termination of Gaussian 16 at Tue May 24 23:12:46 2022.
