 Entering Gaussian System, Link 0=/opt/software/Gaussian/g16-AVX-C.01/g16/g16
 Input=charge-conf-234.com
 Output=charge-conf-234.log
 Initial command:
 /opt/software/Gaussian/g16-AVX-C.01/g16/l1.exe "/mnt/gs18/scratch/users/kengmith/Gau-37584.inp" -scrdir="/mnt/gs18/scratch/users/kengmith/"
 Entering Link 1 = /opt/software/Gaussian/g16-AVX-C.01/g16/l1.exe PID=     37609.
  
 Copyright (c) 1988-2019, Gaussian, Inc.  All Rights Reserved.
  
 This is part of the Gaussian(R) 16 program.  It is based on
 the Gaussian(R) 09 system (copyright 2009, Gaussian, Inc.),
 the Gaussian(R) 03 system (copyright 2003, Gaussian, Inc.),
 the Gaussian(R) 98 system (copyright 1998, Gaussian, Inc.),
 the Gaussian(R) 94 system (copyright 1995, Gaussian, Inc.),
 the Gaussian 92(TM) system (copyright 1992, Gaussian, Inc.),
 the Gaussian 90(TM) system (copyright 1990, Gaussian, Inc.),
 the Gaussian 88(TM) system (copyright 1988, Gaussian, Inc.),
 the Gaussian 86(TM) system (copyright 1986, Carnegie Mellon
 University), and the Gaussian 82(TM) system (copyright 1983,
 Carnegie Mellon University). Gaussian is a federally registered
 trademark of Gaussian, Inc.
  
 This software contains proprietary and confidential information,
 including trade secrets, belonging to Gaussian, Inc.
  
 This software is provided under written license and may be
 used, copied, transmitted, or stored only in accord with that
 written license.
  
 The following legend is applicable only to US Government
 contracts under FAR:
  
                    RESTRICTED RIGHTS LEGEND
  
 Use, reproduction and disclosure by the US Government is
 subject to restrictions as set forth in subparagraphs (a)
 and (c) of the Commercial Computer Software - Restricted
 Rights clause in FAR 52.227-19.
  
 Gaussian, Inc.
 340 Quinnipiac St., Bldg. 40, Wallingford CT 06492
  
  
 ---------------------------------------------------------------
 Warning -- This program may not be used in any manner that
 competes with the business of Gaussian, Inc. or will provide
 assistance to any competitor of Gaussian, Inc.  The licensee
 of this program is prohibited from giving any competitor of
 Gaussian, Inc. access to this program.  By using this program,
 the user acknowledges that Gaussian, Inc. is engaged in the
 business of creating and licensing software in the field of
 computational chemistry and represents and warrants to the
 licensee that it is not a competitor of Gaussian, Inc. and that
 it will not use this program in any manner prohibited above.
 ---------------------------------------------------------------
  

 Cite this work as:
 Gaussian 16, Revision C.01,
 M. J. Frisch, G. W. Trucks, H. B. Schlegel, G. E. Scuseria, 
 M. A. Robb, J. R. Cheeseman, G. Scalmani, V. Barone, 
 G. A. Petersson, H. Nakatsuji, X. Li, M. Caricato, A. V. Marenich, 
 J. Bloino, B. G. Janesko, R. Gomperts, B. Mennucci, H. P. Hratchian, 
 J. V. Ortiz, A. F. Izmaylov, J. L. Sonnenberg, D. Williams-Young, 
 F. Ding, F. Lipparini, F. Egidi, J. Goings, B. Peng, A. Petrone, 
 T. Henderson, D. Ranasinghe, V. G. Zakrzewski, J. Gao, N. Rega, 
 G. Zheng, W. Liang, M. Hada, M. Ehara, K. Toyota, R. Fukuda, 
 J. Hasegawa, M. Ishida, T. Nakajima, Y. Honda, O. Kitao, H. Nakai, 
 T. Vreven, K. Throssell, J. A. Montgomery, Jr., J. E. Peralta, 
 F. Ogliaro, M. J. Bearpark, J. J. Heyd, E. N. Brothers, K. N. Kudin, 
 V. N. Staroverov, T. A. Keith, R. Kobayashi, J. Normand, 
 K. Raghavachari, A. P. Rendell, J. C. Burant, S. S. Iyengar, 
 J. Tomasi, M. Cossi, J. M. Millam, M. Klene, C. Adamo, R. Cammi, 
 J. W. Ochterski, R. L. Martin, K. Morokuma, O. Farkas, 
 J. B. Foresman, and D. J. Fox, Gaussian, Inc., Wallingford CT, 2019.
 
 ******************************************
 Gaussian 16:  ES64L-G16RevC.01  3-Jul-2019
                24-May-2022 
 ******************************************
 %mem=8gb
 %nproc=4
 Will use up to    4 processors via shared memory.
 %chk=conf-234.chk
 ----------------------------------------------------------------------
 # B3LYP/6-31G* empiricaldispersion=gd3 guess=read geom=check nosymm in
 tegral(ultrafinegrid)
 ----------------------------------------------------------------------
 1/29=2,38=1,172=1/1;
 2/12=2,15=1,40=1/2;
 3/5=1,6=6,7=1,11=2,14=-4,25=1,30=1,74=-5,75=-5,116=-2,124=31/1,2,3;
 4/5=1/1;
 5/5=2,38=6/2;
 6/7=2,8=2,9=2,10=2,28=1/1;
 99/5=1,9=1/99;
 ------------------------------------------------------
 Candidate Structure: Conf:234 Charge calc in gas phase
 ------------------------------------------------------
 Structure from the checkpoint file:  "conf-234.chk"
 Charge =  1 Multiplicity = 1
 Redundant internal coordinates found in file.  (old form).
 N,0,-96.889222862,-16.2027600792,5.4646470764
 C,0,-97.2663877765,-15.3716509849,4.2578411
 C,0,-95.9381302852,-15.1235239332,3.5067508427
 O,0,-95.2387837363,-16.0903884714,3.2243626729
 C,0,-98.1218023274,-14.1772709064,4.7177599885
 C,0,-99.2109960731,-14.6175401798,5.649694172
 C,0,-99.3216397511,-14.2838416499,6.980900049
 C,0,-100.2739221854,-15.5520943425,5.3624549162
 C,0,-100.9977058865,-15.7336899013,6.5730207433
 C,0,-100.6894091835,-16.2445623595,4.2086101933
 N,0,-100.3909802113,-14.9482776765,7.5358786595
 C,0,-102.1064271888,-16.5818279697,6.6610296404
 C,0,-101.7870860629,-17.0901262292,4.2935470726
 C,0,-102.486167593,-17.2575901171,5.5080428464
 H,0,-96.1941491085,-16.9072844708,5.1843313638
 H,0,-97.8546792856,-16.0374267683,3.6211786674
 H,0,-97.4834339854,-13.4474866588,5.2270552853
 H,0,-98.5330040662,-13.7046969922,3.8153185835
 H,0,-98.7124688489,-13.6135880542,7.5724096091
 H,0,-100.7179381397,-14.8335797685,8.4836618747
 H,0,-100.1815484891,-16.1025552623,3.2574516551
 H,0,-102.650895993,-16.7053082853,7.5926042517
 H,0,-102.122235896,-17.6259095548,3.410714274
 H,0,-103.3429367922,-17.9235615503,5.5400766139
 H,0,-96.4511107525,-15.5786655895,6.177463671
 H,0,-97.7255327313,-16.6397330312,5.8666775365
 N,0,-95.5957055095,-13.8370397055,3.2777441268
 C,0,-94.4838645697,-13.4377399403,2.4022824492
 C,0,-93.1070051774,-13.9718253876,2.8785183188
 O,0,-92.2966034852,-14.3790307221,2.0713972828
 C,0,-94.7226025467,-13.7494993746,0.8982262694
 C,0,-93.8775556794,-12.7858548385,0.0320272315
 C,0,-96.2101091009,-13.6490011588,0.5297042508
 C,0,-93.6834082789,-13.2716491851,-1.4076117536
 H,0,-96.2943801485,-13.1296588453,3.4546185479
 H,0,-94.4299638721,-12.3478288319,2.5172033015
 H,0,-94.3775976412,-14.7733167996,0.7216770071
 H,0,-94.3625132012,-11.7975778999,0.0341438995
 H,0,-92.8911651463,-12.6591135069,0.4863343541
 H,0,-96.3392747454,-13.7717636771,-0.5486201933
 H,0,-96.8165101873,-14.4237325404,1.0112676056
 H,0,-96.6263577669,-12.6681383225,0.7977442524
 H,0,-94.6335178018,-13.3921262108,-1.9396309607
 H,0,-93.1631969176,-14.2359636237,-1.4195801439
 H,0,-93.0782609512,-12.5581722653,-1.9763784391
 N,0,-92.7359237845,-13.9194423265,4.2278230543
 C,0,-93.40322743,-13.3129274248,5.3859865775
 C,0,-94.4168109312,-14.3020702222,5.9548591106
 O,0,-95.4485804091,-14.0182760137,6.5474540804
 C,0,-93.9205518764,-11.8657222565,5.264125352
 C,0,-93.6967425623,-11.0136460963,6.5276916793
 C,0,-92.2575332997,-10.5090922246,6.7660925354
 N,0,-91.3131724263,-11.4982322684,7.2900588489
 C,0,-90.4814154387,-12.2716034937,6.486091848
 N,0,-90.4753786134,-12.3491200409,5.1949645565
 N,0,-89.6055251072,-13.0494643844,7.2192694559
 O,0,-94.0808470991,-15.5885075308,5.7989194497
 H,0,-93.3576102738,-15.6197665959,5.1277628583
 H,0,-91.7148047397,-13.8507949273,4.3095228658
 H,0,-92.6207224495,-13.31079407,6.1499884511
 H,0,-93.4114618158,-11.3922619154,4.4171707062
 H,0,-94.9899524422,-11.8772899054,5.0316598067
 H,0,-94.0422918595,-11.5628939033,7.411959202
 H,0,-94.3331739745,-10.1237998329,6.4452548589
 H,0,-91.8666478496,-10.047786249,5.8476054539
 H,0,-92.3037200809,-9.7059869916,7.5070934183
 H,0,-90.9031255007,-11.2553453607,8.1833315321
 H,0,-91.011461135,-11.5923814641,4.7712240799
 H,0,-89.9439498051,-13.461834943,8.0792366554
 H,0,-89.0379438073,-13.664973706,6.6511181872
 Recover connectivity data from disk.
                           ----------------------------
                           !    Current Parameters    !
                           ! (Angstroms and Degrees)  !
 --------------------------                            --------------------------
 ! Name  Definition              Value                                          !
 --------------------------------------------------------------------------------
 ! R1    R(1,2)                  1.5131                                         !
 ! R2    R(1,15)                 1.0286                                         !
 ! R3    R(1,25)                 1.0438                                         !
 ! R4    R(1,26)                 1.0257                                         !
 ! R5    R(2,3)                  1.546                                          !
 ! R6    R(2,5)                  1.5394                                         !
 ! R7    R(2,16)                 1.093                                          !
 ! R8    R(3,4)                  1.2262                                         !
 ! R9    R(3,27)                 1.3508                                         !
 ! R10   R(5,6)                  1.4996                                         !
 ! R11   R(5,17)                 1.0952                                         !
 ! R12   R(5,18)                 1.0986                                         !
 ! R13   R(6,7)                  1.3768                                         !
 ! R14   R(6,8)                  1.4442                                         !
 ! R15   R(7,11)                 1.3759                                         !
 ! R16   R(7,19)                 1.0818                                         !
 ! R17   R(8,9)                  1.4221                                         !
 ! R18   R(8,10)                 1.4084                                         !
 ! R19   R(9,11)                 1.3828                                         !
 ! R20   R(9,12)                 1.3987                                         !
 ! R21   R(10,13)                1.3882                                         !
 ! R22   R(10,21)                1.0876                                         !
 ! R23   R(11,20)                1.0091                                         !
 ! R24   R(12,14)                1.3893                                         !
 ! R25   R(12,22)                1.0861                                         !
 ! R26   R(13,14)                1.4113                                         !
 ! R27   R(13,23)                1.0857                                         !
 ! R28   R(14,24)                1.0856                                         !
 ! R29   R(27,28)                1.4704                                         !
 ! R30   R(27,35)                1.0099                                         !
 ! R31   R(28,29)                1.5517                                         !
 ! R32   R(28,31)                1.5545                                         !
 ! R33   R(28,36)                1.0973                                         !
 ! R34   R(29,30)                1.2141                                         !
 ! R35   R(29,46)                1.4004                                         !
 ! R36   R(31,32)                1.5469                                         !
 ! R37   R(31,33)                1.5358                                         !
 ! R38   R(31,37)                1.0947                                         !
 ! R39   R(32,34)                1.5317                                         !
 ! R40   R(32,38)                1.1009                                         !
 ! R41   R(32,39)                1.0934                                         !
 ! R42   R(33,40)                1.0929                                         !
 ! R43   R(33,41)                1.0954                                         !
 ! R44   R(33,42)                1.0987                                         !
 ! R45   R(34,43)                1.0956                                         !
 ! R46   R(34,44)                1.0957                                         !
 ! R47   R(34,45)                1.0949                                         !
 ! R48   R(46,47)                1.4678                                         !
 ! R49   R(46,59)                1.0267                                         !
 ! R50   R(47,48)                1.5262                                         !
 ! R51   R(47,50)                1.5417                                         !
 ! R52   R(47,60)                1.0936                                         !
 ! R53   R(48,49)                1.2232                                         !
 ! R54   R(48,57)                1.3387                                         !
 ! R55   R(50,51)                1.5404                                         !
 ! R56   R(50,61)                1.0958                                         !
 ! R57   R(50,62)                1.0944                                         !
 ! R58   R(51,52)                1.5436                                         !
 ! R59   R(51,63)                1.0968                                         !
 ! R60   R(51,64)                1.0971                                         !
 ! R61   R(52,53)                1.4645                                         !
 ! R62   R(52,65)                1.0996                                         !
 ! R63   R(52,66)                1.0937                                         !
 ! R64   R(53,54)                1.3915                                         !
 ! R65   R(53,67)                1.0125                                         !
 ! R66   R(54,55)                1.2935                                         !
 ! R67   R(54,56)                1.382                                          !
 ! R68   R(55,68)                1.0196                                         !
 ! R69   R(56,69)                1.012                                          !
 ! R70   R(56,70)                1.0118                                         !
 ! R71   R(57,58)                0.9872                                         !
 ! A1    A(2,1,15)             109.1052                                         !
 ! A2    A(2,1,25)             108.716                                          !
 ! A3    A(2,1,26)             110.084                                          !
 ! A4    A(15,1,25)            108.1794                                         !
 ! A5    A(15,1,26)            111.469                                          !
 ! A6    A(25,1,26)            109.2256                                         !
 ! A7    A(1,2,3)              105.1587                                         !
 ! A8    A(1,2,5)              109.0503                                         !
 ! A9    A(1,2,16)             105.3174                                         !
 ! A10   A(3,2,5)              119.8711                                         !
 ! A11   A(3,2,16)             106.0935                                         !
 ! A12   A(5,2,16)             110.3368                                         !
 ! A13   A(2,3,4)              118.3816                                         !
 ! A14   A(2,3,27)             116.9374                                         !
 ! A15   A(4,3,27)             124.5629                                         !
 ! A16   A(2,5,6)              111.1916                                         !
 ! A17   A(2,5,17)             109.3923                                         !
 ! A18   A(2,5,18)             107.2373                                         !
 ! A19   A(6,5,17)             109.2691                                         !
 ! A20   A(6,5,18)             111.4045                                         !
 ! A21   A(17,5,18)            108.2726                                         !
 ! A22   A(5,6,7)              126.021                                          !
 ! A23   A(5,6,8)              126.9394                                         !
 ! A24   A(7,6,8)              106.8574                                         !
 ! A25   A(6,7,11)             109.5977                                         !
 ! A26   A(6,7,19)             129.3155                                         !
 ! A27   A(11,7,19)            121.0864                                         !
 ! A28   A(6,8,9)              106.7334                                         !
 ! A29   A(6,8,10)             134.2866                                         !
 ! A30   A(9,8,10)             118.9788                                         !
 ! A31   A(8,9,11)             107.2717                                         !
 ! A32   A(8,9,12)             122.306                                          !
 ! A33   A(11,9,12)            130.422                                          !
 ! A34   A(8,10,13)            118.8576                                         !
 ! A35   A(8,10,21)            120.968                                          !
 ! A36   A(13,10,21)           120.1516                                         !
 ! A37   A(7,11,9)             109.539                                          !
 ! A38   A(7,11,20)            125.1541                                         !
 ! A39   A(9,11,20)            125.1966                                         !
 ! A40   A(9,12,14)            117.3472                                         !
 ! A41   A(9,12,22)            121.3528                                         !
 ! A42   A(14,12,22)           121.2997                                         !
 ! A43   A(10,13,14)           121.1052                                         !
 ! A44   A(10,13,23)           119.6646                                         !
 ! A45   A(14,13,23)           119.2275                                         !
 ! A46   A(12,14,13)           121.4031                                         !
 ! A47   A(12,14,24)           119.3138                                         !
 ! A48   A(13,14,24)           119.2818                                         !
 ! A49   A(3,27,28)            123.4521                                         !
 ! A50   A(3,27,35)            117.5185                                         !
 ! A51   A(28,27,35)           115.9257                                         !
 ! A52   A(27,28,29)           113.2502                                         !
 ! A53   A(27,28,31)           113.9218                                         !
 ! A54   A(27,28,36)           104.1537                                         !
 ! A55   A(29,28,31)           111.3586                                         !
 ! A56   A(29,28,36)           105.4354                                         !
 ! A57   A(31,28,36)           107.9442                                         !
 ! A58   A(28,29,30)           120.2446                                         !
 ! A59   A(28,29,46)           121.1961                                         !
 ! A60   A(30,29,46)           118.4386                                         !
 ! A61   A(28,31,32)           109.4481                                         !
 ! A62   A(28,31,33)           111.5805                                         !
 ! A63   A(28,31,37)           107.1701                                         !
 ! A64   A(32,31,33)           110.7307                                         !
 ! A65   A(32,31,37)           108.6707                                         !
 ! A66   A(33,31,37)           109.1324                                         !
 ! A67   A(31,32,34)           113.45                                           !
 ! A68   A(31,32,38)           108.5123                                         !
 ! A69   A(31,32,39)           109.4129                                         !
 ! A70   A(34,32,38)           110.0208                                         !
 ! A71   A(34,32,39)           108.2368                                         !
 ! A72   A(38,32,39)           107.0117                                         !
 ! A73   A(31,33,40)           110.1125                                         !
 ! A74   A(31,33,41)           112.6083                                         !
 ! A75   A(31,33,42)           111.5197                                         !
 ! A76   A(40,33,41)           106.7912                                         !
 ! A77   A(40,33,42)           107.229                                          !
 ! A78   A(41,33,42)           108.3261                                         !
 ! A79   A(32,34,43)           112.4183                                         !
 ! A80   A(32,34,44)           110.4597                                         !
 ! A81   A(32,34,45)           110.5869                                         !
 ! A82   A(43,34,44)           108.0375                                         !
 ! A83   A(43,34,45)           107.3808                                         !
 ! A84   A(44,34,45)           107.7829                                         !
 ! A85   A(29,46,47)           130.9383                                         !
 ! A86   A(29,46,59)           110.043                                          !
 ! A87   A(47,46,59)           111.2072                                         !
 ! A88   A(46,47,48)           109.1607                                         !
 ! A89   A(46,47,50)           118.5588                                         !
 ! A90   A(46,47,60)           103.1049                                         !
 ! A91   A(48,47,50)           114.5185                                         !
 ! A92   A(48,47,60)           102.4775                                         !
 ! A93   A(50,47,60)           107.0664                                         !
 ! A94   A(47,48,49)           126.1839                                         !
 ! A95   A(47,48,57)           114.3752                                         !
 ! A96   A(49,48,57)           119.4107                                         !
 ! A97   A(47,50,51)           113.9326                                         !
 ! A98   A(47,50,61)           108.1073                                         !
 ! A99   A(47,50,62)           109.5569                                         !
 ! A100  A(51,50,61)           109.1188                                         !
 ! A101  A(51,50,62)           108.7874                                         !
 ! A102  A(61,50,62)           107.1194                                         !
 ! A103  A(50,51,52)           116.2936                                         !
 ! A104  A(50,51,63)           109.789                                          !
 ! A105  A(50,51,64)           107.622                                          !
 ! A106  A(52,51,63)           109.4454                                         !
 ! A107  A(52,51,64)           106.6994                                         !
 ! A108  A(63,51,64)           106.4979                                         !
 ! A109  A(51,52,53)           115.8305                                         !
 ! A110  A(51,52,65)           109.8492                                         !
 ! A111  A(51,52,66)           107.7751                                         !
 ! A112  A(53,52,65)           110.6685                                         !
 ! A113  A(53,52,66)           106.307                                          !
 ! A114  A(65,52,66)           105.8351                                         !
 ! A115  A(52,53,54)           123.6495                                         !
 ! A116  A(52,53,67)           114.5062                                         !
 ! A117  A(54,53,67)           113.6407                                         !
 ! A118  A(53,54,55)           127.7937                                         !
 ! A119  A(53,54,56)           112.6534                                         !
 ! A120  A(55,54,56)           119.5305                                         !
 ! A121  A(54,55,68)           111.5867                                         !
 ! A122  A(54,56,69)           117.9204                                         !
 ! A123  A(54,56,70)           113.5801                                         !
 ! A124  A(69,56,70)           114.6371                                         !
 ! A125  A(48,57,58)           107.0671                                         !
 ! D1    D(15,1,2,3)           -40.9702                                         !
 ! D2    D(15,1,2,5)          -170.7213                                         !
 ! D3    D(15,1,2,16)           70.8676                                         !
 ! D4    D(25,1,2,3)            76.8027                                         !
 ! D5    D(25,1,2,5)           -52.9485                                         !
 ! D6    D(25,1,2,16)         -171.3596                                         !
 ! D7    D(26,1,2,3)          -163.5898                                         !
 ! D8    D(26,1,2,5)            66.6591                                         !
 ! D9    D(26,1,2,16)          -51.752                                          !
 ! D10   D(1,2,3,4)             52.5904                                         !
 ! D11   D(1,2,3,27)          -123.6404                                         !
 ! D12   D(5,2,3,4)            175.6545                                         !
 ! D13   D(5,2,3,27)            -0.5763                                         !
 ! D14   D(16,2,3,4)           -58.6951                                         !
 ! D15   D(16,2,3,27)          125.0741                                         !
 ! D16   D(1,2,5,6)            -47.6343                                         !
 ! D17   D(1,2,5,17)            73.143                                          !
 ! D18   D(1,2,5,18)          -169.6477                                         !
 ! D19   D(3,2,5,6)           -168.7896                                         !
 ! D20   D(3,2,5,17)           -48.0122                                         !
 ! D21   D(3,2,5,18)            69.197                                          !
 ! D22   D(16,2,5,6)            67.5819                                         !
 ! D23   D(16,2,5,17)         -171.6407                                         !
 ! D24   D(16,2,5,18)          -54.4315                                         !
 ! D25   D(2,3,27,28)         -170.1259                                         !
 ! D26   D(2,3,27,35)          -10.8881                                         !
 ! D27   D(4,3,27,28)           13.9014                                         !
 ! D28   D(4,3,27,35)          173.1393                                         !
 ! D29   D(2,5,6,7)            114.187                                          !
 ! D30   D(2,5,6,8)            -60.2528                                         !
 ! D31   D(17,5,6,7)            -6.6628                                         !
 ! D32   D(17,5,6,8)           178.8974                                         !
 ! D33   D(18,5,6,7)          -126.2525                                         !
 ! D34   D(18,5,6,8)            59.3077                                         !
 ! D35   D(5,6,7,11)          -175.6452                                         !
 ! D36   D(5,6,7,19)             4.6146                                         !
 ! D37   D(8,6,7,11)            -0.2867                                         !
 ! D38   D(8,6,7,19)           179.9731                                         !
 ! D39   D(5,6,8,9)            175.6079                                         !
 ! D40   D(5,6,8,10)            -4.811                                          !
 ! D41   D(7,6,8,9)              0.3048                                         !
 ! D42   D(7,6,8,10)           179.8859                                         !
 ! D43   D(6,7,11,9)             0.1585                                         !
 ! D44   D(6,7,11,20)         -176.18                                           !
 ! D45   D(19,7,11,9)          179.9239                                         !
 ! D46   D(19,7,11,20)           3.5853                                         !
 ! D47   D(6,8,9,11)            -0.2116                                         !
 ! D48   D(6,8,9,12)           179.9515                                         !
 ! D49   D(10,8,9,11)         -179.8688                                         !
 ! D50   D(10,8,9,12)            0.2943                                         !
 ! D51   D(6,8,10,13)          179.989                                          !
 ! D52   D(6,8,10,21)           -1.7453                                         !
 ! D53   D(9,8,10,13)           -0.4696                                         !
 ! D54   D(9,8,10,21)          177.7961                                         !
 ! D55   D(8,9,11,7)             0.0402                                         !
 ! D56   D(8,9,11,20)          176.3768                                         !
 ! D57   D(12,9,11,7)          179.8591                                         !
 ! D58   D(12,9,11,20)          -3.8042                                         !
 ! D59   D(8,9,12,14)            0.1239                                         !
 ! D60   D(8,9,12,22)         -179.7005                                         !
 ! D61   D(11,9,12,14)        -179.6715                                         !
 ! D62   D(11,9,12,22)           0.504                                          !
 ! D63   D(8,10,13,14)           0.2408                                         !
 ! D64   D(8,10,13,23)         179.6423                                         !
 ! D65   D(21,10,13,14)       -178.0394                                         !
 ! D66   D(21,10,13,23)          1.362                                          !
 ! D67   D(9,12,14,13)          -0.3652                                         !
 ! D68   D(9,12,14,24)        -179.9473                                         !
 ! D69   D(22,12,14,13)        179.4593                                         !
 ! D70   D(22,12,14,24)         -0.1227                                         !
 ! D71   D(10,13,14,12)          0.1894                                         !
 ! D72   D(10,13,14,24)        179.7716                                         !
 ! D73   D(23,13,14,12)       -179.2146                                         !
 ! D74   D(23,13,14,24)          0.3676                                         !
 ! D75   D(3,27,28,29)         -60.9274                                         !
 ! D76   D(3,27,28,31)          67.6982                                         !
 ! D77   D(3,27,28,36)        -174.9496                                         !
 ! D78   D(35,27,28,29)        139.5331                                         !
 ! D79   D(35,27,28,31)        -91.8412                                         !
 ! D80   D(35,27,28,36)         25.511                                          !
 ! D81   D(27,28,29,30)        140.293                                          !
 ! D82   D(27,28,29,46)        -43.762                                          !
 ! D83   D(31,28,29,30)         10.3601                                         !
 ! D84   D(31,28,29,46)       -173.6949                                         !
 ! D85   D(36,28,29,30)       -106.4584                                         !
 ! D86   D(36,28,29,46)         69.4866                                         !
 ! D87   D(27,28,31,32)        154.9086                                         !
 ! D88   D(27,28,31,33)         31.9962                                         !
 ! D89   D(27,28,31,37)        -87.4176                                         !
 ! D90   D(29,28,31,32)        -75.511                                          !
 ! D91   D(29,28,31,33)        161.5766                                         !
 ! D92   D(29,28,31,37)         42.1628                                         !
 ! D93   D(36,28,31,32)         39.7685                                         !
 ! D94   D(36,28,31,33)        -83.144                                          !
 ! D95   D(36,28,31,37)        157.4423                                         !
 ! D96   D(28,29,46,47)         -5.8201                                         !
 ! D97   D(28,29,46,59)       -151.5286                                         !
 ! D98   D(30,29,46,47)        170.1963                                         !
 ! D99   D(30,29,46,59)         24.4878                                         !
 ! D100  D(28,31,32,34)        161.64                                           !
 ! D101  D(28,31,32,38)        -75.7587                                         !
 ! D102  D(28,31,32,39)         40.6728                                         !
 ! D103  D(33,31,32,34)        -74.9443                                         !
 ! D104  D(33,31,32,38)         47.657                                          !
 ! D105  D(33,31,32,39)        164.0885                                         !
 ! D106  D(37,31,32,34)         44.9104                                         !
 ! D107  D(37,31,32,38)        167.5117                                         !
 ! D108  D(37,31,32,39)        -76.0568                                         !
 ! D109  D(28,31,33,40)        174.2637                                         !
 ! D110  D(28,31,33,41)        -66.6747                                         !
 ! D111  D(28,31,33,42)         55.3524                                         !
 ! D112  D(32,31,33,40)         52.0864                                         !
 ! D113  D(32,31,33,41)        171.1479                                         !
 ! D114  D(32,31,33,42)        -66.825                                          !
 ! D115  D(37,31,33,40)        -67.4914                                         !
 ! D116  D(37,31,33,41)         51.5702                                         !
 ! D117  D(37,31,33,42)        173.5973                                         !
 ! D118  D(31,32,34,43)         60.1514                                         !
 ! D119  D(31,32,34,44)        -60.607                                          !
 ! D120  D(31,32,34,45)       -179.839                                          !
 ! D121  D(38,32,34,43)        -61.612                                          !
 ! D122  D(38,32,34,44)        177.6296                                         !
 ! D123  D(38,32,34,45)         58.3976                                         !
 ! D124  D(39,32,34,43)       -178.2219                                         !
 ! D125  D(39,32,34,44)         61.0197                                         !
 ! D126  D(39,32,34,45)        -58.2123                                         !
 ! D127  D(29,46,47,48)         85.4867                                         !
 ! D128  D(29,46,47,50)        -48.0883                                         !
 ! D129  D(29,46,47,60)       -166.1082                                         !
 ! D130  D(59,46,47,48)       -129.1053                                         !
 ! D131  D(59,46,47,50)         97.3197                                         !
 ! D132  D(59,46,47,60)        -20.7002                                         !
 ! D133  D(46,47,48,49)       -151.1546                                         !
 ! D134  D(46,47,48,57)         30.8661                                         !
 ! D135  D(50,47,48,49)        -15.5327                                         !
 ! D136  D(50,47,48,57)        166.4881                                         !
 ! D137  D(60,47,48,49)        100.0174                                         !
 ! D138  D(60,47,48,57)        -77.9618                                         !
 ! D139  D(46,47,50,51)       -140.094                                          !
 ! D140  D(46,47,50,61)        -18.6186                                         !
 ! D141  D(46,47,50,62)         97.7934                                         !
 ! D142  D(48,47,50,51)         88.6839                                         !
 ! D143  D(48,47,50,61)       -149.8406                                         !
 ! D144  D(48,47,50,62)        -33.4286                                         !
 ! D145  D(60,47,50,51)        -24.1732                                         !
 ! D146  D(60,47,50,61)         97.3022                                         !
 ! D147  D(60,47,50,62)       -146.2858                                         !
 ! D148  D(47,48,57,58)        -15.1288                                         !
 ! D149  D(49,48,57,58)        166.7434                                         !
 ! D150  D(47,50,51,52)         76.0225                                         !
 ! D151  D(47,50,51,63)        -48.8959                                         !
 ! D152  D(47,50,51,64)       -164.4239                                         !
 ! D153  D(61,50,51,52)        -44.8903                                         !
 ! D154  D(61,50,51,63)       -169.8087                                         !
 ! D155  D(61,50,51,64)         74.6633                                         !
 ! D156  D(62,50,51,52)       -161.4421                                         !
 ! D157  D(62,50,51,63)         73.6395                                         !
 ! D158  D(62,50,51,64)        -41.8885                                         !
 ! D159  D(50,51,52,53)        -77.1519                                         !
 ! D160  D(50,51,52,65)         49.1228                                         !
 ! D161  D(50,51,52,66)        163.9811                                         !
 ! D162  D(63,51,52,53)         47.9414                                         !
 ! D163  D(63,51,52,65)        174.216                                          !
 ! D164  D(63,51,52,66)        -70.9256                                         !
 ! D165  D(64,51,52,53)        162.7971                                         !
 ! D166  D(64,51,52,65)        -70.9283                                         !
 ! D167  D(64,51,52,66)         43.9301                                         !
 ! D168  D(51,52,53,54)         93.4417                                         !
 ! D169  D(51,52,53,67)       -120.1663                                         !
 ! D170  D(65,52,53,54)        -32.4177                                         !
 ! D171  D(65,52,53,67)        113.9743                                         !
 ! D172  D(66,52,53,54)       -146.8884                                         !
 ! D173  D(66,52,53,67)         -0.4964                                         !
 ! D174  D(52,53,54,55)         -6.7788                                         !
 ! D175  D(52,53,54,56)        174.9718                                         !
 ! D176  D(67,53,54,55)       -153.4265                                         !
 ! D177  D(67,53,54,56)         28.3241                                         !
 ! D178  D(53,54,55,68)         14.273                                          !
 ! D179  D(56,54,55,68)       -167.5838                                         !
 ! D180  D(53,54,56,69)         37.7511                                         !
 ! D181  D(53,54,56,70)        176.0021                                         !
 ! D182  D(55,54,56,69)       -140.659                                          !
 ! D183  D(55,54,56,70)         -2.408                                          !
 --------------------------------------------------------------------------------
 Symmetry turned off by external request.
 Stoichiometry    C23H36N7O4(1+)
 Framework group  C1[X(C23H36N7O4)]
 Deg. of freedom   204
 Full point group                 C1      NOp   1
                          Input orientation:                          
 ---------------------------------------------------------------------
 Center     Atomic      Atomic             Coordinates (Angstroms)
 Number     Number       Type             X           Y           Z
 ---------------------------------------------------------------------
      1          7           0      -96.889223  -16.202760    5.464647
      2          6           0      -97.266388  -15.371651    4.257841
      3          6           0      -95.938130  -15.123524    3.506751
      4          8           0      -95.238784  -16.090388    3.224363
      5          6           0      -98.121802  -14.177271    4.717760
      6          6           0      -99.210996  -14.617540    5.649694
      7          6           0      -99.321640  -14.283842    6.980900
      8          6           0     -100.273922  -15.552094    5.362455
      9          6           0     -100.997706  -15.733690    6.573021
     10          6           0     -100.689409  -16.244562    4.208610
     11          7           0     -100.390980  -14.948278    7.535879
     12          6           0     -102.106427  -16.581828    6.661030
     13          6           0     -101.787086  -17.090126    4.293547
     14          6           0     -102.486168  -17.257590    5.508043
     15          1           0      -96.194149  -16.907284    5.184331
     16          1           0      -97.854679  -16.037427    3.621179
     17          1           0      -97.483434  -13.447487    5.227055
     18          1           0      -98.533004  -13.704697    3.815319
     19          1           0      -98.712469  -13.613588    7.572410
     20          1           0     -100.717938  -14.833580    8.483662
     21          1           0     -100.181548  -16.102555    3.257452
     22          1           0     -102.650896  -16.705308    7.592604
     23          1           0     -102.122236  -17.625910    3.410714
     24          1           0     -103.342937  -17.923562    5.540077
     25          1           0      -96.451111  -15.578666    6.177464
     26          1           0      -97.725533  -16.639733    5.866678
     27          7           0      -95.595706  -13.837040    3.277744
     28          6           0      -94.483865  -13.437740    2.402282
     29          6           0      -93.107005  -13.971825    2.878518
     30          8           0      -92.296603  -14.379031    2.071397
     31          6           0      -94.722603  -13.749499    0.898226
     32          6           0      -93.877556  -12.785855    0.032027
     33          6           0      -96.210109  -13.649001    0.529704
     34          6           0      -93.683408  -13.271649   -1.407612
     35          1           0      -96.294380  -13.129659    3.454619
     36          1           0      -94.429964  -12.347829    2.517203
     37          1           0      -94.377598  -14.773317    0.721677
     38          1           0      -94.362513  -11.797578    0.034144
     39          1           0      -92.891165  -12.659114    0.486334
     40          1           0      -96.339275  -13.771764   -0.548620
     41          1           0      -96.816510  -14.423733    1.011268
     42          1           0      -96.626358  -12.668138    0.797744
     43          1           0      -94.633518  -13.392126   -1.939631
     44          1           0      -93.163197  -14.235964   -1.419580
     45          1           0      -93.078261  -12.558172   -1.976378
     46          7           0      -92.735924  -13.919442    4.227823
     47          6           0      -93.403227  -13.312927    5.385987
     48          6           0      -94.416811  -14.302070    5.954859
     49          8           0      -95.448580  -14.018276    6.547454
     50          6           0      -93.920552  -11.865722    5.264125
     51          6           0      -93.696743  -11.013646    6.527692
     52          6           0      -92.257533  -10.509092    6.766093
     53          7           0      -91.313172  -11.498232    7.290059
     54          6           0      -90.481415  -12.271603    6.486092
     55          7           0      -90.475379  -12.349120    5.194965
     56          7           0      -89.605525  -13.049464    7.219269
     57          8           0      -94.080847  -15.588508    5.798919
     58          1           0      -93.357610  -15.619767    5.127763
     59          1           0      -91.714805  -13.850795    4.309523
     60          1           0      -92.620722  -13.310794    6.149988
     61          1           0      -93.411462  -11.392262    4.417171
     62          1           0      -94.989952  -11.877290    5.031660
     63          1           0      -94.042292  -11.562894    7.411959
     64          1           0      -94.333174  -10.123800    6.445255
     65          1           0      -91.866648  -10.047786    5.847605
     66          1           0      -92.303720   -9.705987    7.507093
     67          1           0      -90.903126  -11.255345    8.183332
     68          1           0      -91.011461  -11.592381    4.771224
     69          1           0      -89.943950  -13.461835    8.079237
     70          1           0      -89.037944  -13.664974    6.651118
 ---------------------------------------------------------------------
 Rotational constants (GHZ):           0.1717259           0.0692552           0.0549222
 Standard basis: 6-31G(d) (6D, 7F)
   582 basis functions,  1096 primitive gaussians,   582 cartesian basis functions
   127 alpha electrons      127 beta electrons
       nuclear repulsion energy      3839.2473210826 Hartrees.
 NAtoms=   70 NActive=   70 NUniq=   70 SFac= 1.00D+00 NAtFMM=   60 NAOKFM=T Big=T
 Integral buffers will be    131072 words long.
 Raffenetti 2 integral format.
 Two-electron integral symmetry is turned off.
 Nuclear repulsion after empirical dispersion term =     3839.1502161808 Hartrees.
 One-electron integrals computed using PRISM.
 NBasis=   582 RedAO= T EigKep=  3.78D-04  NBF=   582
 NBsUse=   582 1.00D-06 EigRej= -1.00D+00 NBFU=   582
 Initial guess from the checkpoint file:  "conf-234.chk"
 B after Tr=     0.000000    0.000000    0.000000
         Rot=    1.000000    0.000000    0.000000    0.000000 Ang=   0.00 deg.
 Requested convergence on RMS density matrix=1.00D-08 within 128 cycles.
 Requested convergence on MAX density matrix=1.00D-06.
 Requested convergence on             energy=1.00D-06.
 No special actions if energy rises.
 SCF Done:  E(RB3LYP) =  -1582.21176068     A.U. after    2 cycles
            NFock=  2  Conv=0.71D-08     -V/T= 2.0095

 **********************************************************************

            Population analysis using the SCF Density.

 **********************************************************************

 Alpha  occ. eigenvalues --  -19.32057 -19.27714 -19.25436 -19.22260 -14.58093
 Alpha  occ. eigenvalues --  -14.50094 -14.48616 -14.46384 -14.45032 -14.43301
 Alpha  occ. eigenvalues --  -14.38124 -10.45263 -10.42868 -10.39910 -10.39390
 Alpha  occ. eigenvalues --  -10.37933 -10.35802 -10.35006 -10.33324 -10.33132
 Alpha  occ. eigenvalues --  -10.32543 -10.32149 -10.30713 -10.29847 -10.29381
 Alpha  occ. eigenvalues --  -10.29058 -10.28709 -10.28507 -10.28210 -10.27876
 Alpha  occ. eigenvalues --  -10.27671 -10.26803 -10.25685 -10.23996  -1.23689
 Alpha  occ. eigenvalues --   -1.17907  -1.15088  -1.14400  -1.12725  -1.08559
 Alpha  occ. eigenvalues --   -1.07204  -1.06387  -1.02772  -0.98201  -0.94337
 Alpha  occ. eigenvalues --   -0.93484  -0.93216  -0.90638  -0.90393  -0.87954
 Alpha  occ. eigenvalues --   -0.84887  -0.83626  -0.83345  -0.82324  -0.79976
 Alpha  occ. eigenvalues --   -0.79291  -0.78622  -0.74029  -0.73476  -0.72758
 Alpha  occ. eigenvalues --   -0.72293  -0.72012  -0.71180  -0.70969  -0.69493
 Alpha  occ. eigenvalues --   -0.68725  -0.67372  -0.67213  -0.65447  -0.64986
 Alpha  occ. eigenvalues --   -0.64578  -0.64119  -0.63271  -0.62736  -0.62088
 Alpha  occ. eigenvalues --   -0.61148  -0.59510  -0.59162  -0.58428  -0.57397
 Alpha  occ. eigenvalues --   -0.56895  -0.56722  -0.56367  -0.56006  -0.55798
 Alpha  occ. eigenvalues --   -0.55500  -0.54322  -0.54167  -0.53468  -0.53349
 Alpha  occ. eigenvalues --   -0.52948  -0.52514  -0.52129  -0.51755  -0.51179
 Alpha  occ. eigenvalues --   -0.50986  -0.50767  -0.50215  -0.50002  -0.49450
 Alpha  occ. eigenvalues --   -0.48868  -0.48477  -0.47707  -0.46250  -0.46129
 Alpha  occ. eigenvalues --   -0.45870  -0.45375  -0.45183  -0.44900  -0.44590
 Alpha  occ. eigenvalues --   -0.43732  -0.43505  -0.43240  -0.42652  -0.41934
 Alpha  occ. eigenvalues --   -0.40698  -0.40343  -0.39384  -0.38799  -0.37743
 Alpha  occ. eigenvalues --   -0.36816  -0.35890  -0.35217  -0.34758  -0.32575
 Alpha  occ. eigenvalues --   -0.32424  -0.30961
 Alpha virt. eigenvalues --   -0.13133  -0.12689  -0.11327  -0.09934  -0.07440
 Alpha virt. eigenvalues --   -0.06737  -0.05369  -0.04744  -0.04528  -0.03475
 Alpha virt. eigenvalues --   -0.02648  -0.01813  -0.01536  -0.01263  -0.00725
 Alpha virt. eigenvalues --   -0.00552   0.01046   0.01165   0.01543   0.01907
 Alpha virt. eigenvalues --    0.02383   0.02705   0.02756   0.03563   0.04015
 Alpha virt. eigenvalues --    0.04349   0.05018   0.05265   0.05536   0.05669
 Alpha virt. eigenvalues --    0.06048   0.06503   0.06881   0.07312   0.07801
 Alpha virt. eigenvalues --    0.07956   0.08167   0.08961   0.09346   0.09513
 Alpha virt. eigenvalues --    0.09802   0.10183   0.10526   0.11090   0.11422
 Alpha virt. eigenvalues --    0.11814   0.12093   0.12444   0.12715   0.13251
 Alpha virt. eigenvalues --    0.13658   0.14138   0.14804   0.15132   0.15895
 Alpha virt. eigenvalues --    0.16171   0.16199   0.16885   0.17872   0.18475
 Alpha virt. eigenvalues --    0.19217   0.19551   0.20009   0.21309   0.21577
 Alpha virt. eigenvalues --    0.22401   0.24104   0.24570   0.25232   0.25602
 Alpha virt. eigenvalues --    0.26259   0.26405   0.28453   0.30208   0.32432
 Alpha virt. eigenvalues --    0.33167   0.34562   0.35398   0.36251   0.37519
 Alpha virt. eigenvalues --    0.39019   0.39550   0.40276   0.41221   0.41661
 Alpha virt. eigenvalues --    0.42548   0.42910   0.43355   0.43733   0.44034
 Alpha virt. eigenvalues --    0.44273   0.44738   0.45361   0.46140   0.46740
 Alpha virt. eigenvalues --    0.46896   0.47452   0.47599   0.48298   0.48585
 Alpha virt. eigenvalues --    0.49213   0.49635   0.49905   0.50545   0.50642
 Alpha virt. eigenvalues --    0.51082   0.51499   0.51982   0.52325   0.52675
 Alpha virt. eigenvalues --    0.53070   0.53128   0.53606   0.53939   0.54128
 Alpha virt. eigenvalues --    0.54940   0.55090   0.56187   0.56822   0.57039
 Alpha virt. eigenvalues --    0.57544   0.57947   0.58570   0.58666   0.59678
 Alpha virt. eigenvalues --    0.60124   0.60711   0.61442   0.61973   0.62960
 Alpha virt. eigenvalues --    0.63192   0.64009   0.64730   0.64903   0.66601
 Alpha virt. eigenvalues --    0.67099   0.67254   0.68091   0.68887   0.69082
 Alpha virt. eigenvalues --    0.70025   0.70137   0.70529   0.71110   0.71574
 Alpha virt. eigenvalues --    0.72262   0.72950   0.72992   0.73817   0.73890
 Alpha virt. eigenvalues --    0.74406   0.74710   0.74937   0.75176   0.75481
 Alpha virt. eigenvalues --    0.76262   0.76591   0.76903   0.77145   0.77571
 Alpha virt. eigenvalues --    0.77799   0.78558   0.78658   0.79249   0.79817
 Alpha virt. eigenvalues --    0.80607   0.80907   0.81056   0.81258   0.81861
 Alpha virt. eigenvalues --    0.82295   0.82650   0.83297   0.83597   0.84200
 Alpha virt. eigenvalues --    0.84400   0.84622   0.85238   0.85558   0.85942
 Alpha virt. eigenvalues --    0.85979   0.86407   0.86679   0.87754   0.88185
 Alpha virt. eigenvalues --    0.88483   0.88812   0.88939   0.89880   0.90435
 Alpha virt. eigenvalues --    0.91491   0.91853   0.92718   0.92938   0.93962
 Alpha virt. eigenvalues --    0.94421   0.94852   0.95202   0.95843   0.96939
 Alpha virt. eigenvalues --    0.97520   0.98052   0.98791   0.99945   1.00224
 Alpha virt. eigenvalues --    1.01453   1.02258   1.02886   1.03580   1.03769
 Alpha virt. eigenvalues --    1.05310   1.06598   1.08041   1.08744   1.09399
 Alpha virt. eigenvalues --    1.09761   1.10641   1.11347   1.13609   1.14674
 Alpha virt. eigenvalues --    1.15512   1.16592   1.17838   1.18080   1.19907
 Alpha virt. eigenvalues --    1.20393   1.21327   1.23191   1.23416   1.23693
 Alpha virt. eigenvalues --    1.25051   1.25156   1.26361   1.26977   1.28113
 Alpha virt. eigenvalues --    1.28383   1.29148   1.29702   1.30759   1.31640
 Alpha virt. eigenvalues --    1.31871   1.32908   1.34063   1.35482   1.36255
 Alpha virt. eigenvalues --    1.37136   1.38437   1.39489   1.39869   1.40113
 Alpha virt. eigenvalues --    1.41007   1.41622   1.44036   1.45669   1.46948
 Alpha virt. eigenvalues --    1.48295   1.49952   1.50369   1.50563   1.51245
 Alpha virt. eigenvalues --    1.52732   1.52947   1.54122   1.54815   1.56736
 Alpha virt. eigenvalues --    1.57794   1.58301   1.59340   1.61296   1.61809
 Alpha virt. eigenvalues --    1.62952   1.64500   1.65110   1.65449   1.66019
 Alpha virt. eigenvalues --    1.66517   1.67402   1.67613   1.68372   1.68489
 Alpha virt. eigenvalues --    1.69022   1.70316   1.70851   1.70916   1.71423
 Alpha virt. eigenvalues --    1.72273   1.73039   1.74006   1.74568   1.75346
 Alpha virt. eigenvalues --    1.75505   1.77114   1.77644   1.78760   1.79147
 Alpha virt. eigenvalues --    1.80137   1.80944   1.81613   1.82211   1.82268
 Alpha virt. eigenvalues --    1.84110   1.84573   1.84729   1.85463   1.86144
 Alpha virt. eigenvalues --    1.86838   1.87452   1.88087   1.88360   1.89191
 Alpha virt. eigenvalues --    1.89589   1.89906   1.90176   1.90747   1.91831
 Alpha virt. eigenvalues --    1.92410   1.93214   1.93671   1.94003   1.94246
 Alpha virt. eigenvalues --    1.95917   1.96687   1.97073   1.97757   1.99671
 Alpha virt. eigenvalues --    2.00433   2.02055   2.02465   2.03216   2.03741
 Alpha virt. eigenvalues --    2.04863   2.04991   2.06255   2.06724   2.07476
 Alpha virt. eigenvalues --    2.08375   2.09886   2.10575   2.10823   2.14112
 Alpha virt. eigenvalues --    2.15129   2.15293   2.15896   2.16900   2.17615
 Alpha virt. eigenvalues --    2.18005   2.18339   2.19217   2.21961   2.22375
 Alpha virt. eigenvalues --    2.22565   2.22682   2.23524   2.24051   2.24817
 Alpha virt. eigenvalues --    2.26460   2.28085   2.28863   2.29171   2.29508
 Alpha virt. eigenvalues --    2.30422   2.31197   2.33488   2.33935   2.35839
 Alpha virt. eigenvalues --    2.36535   2.38122   2.38569   2.39331   2.39932
 Alpha virt. eigenvalues --    2.40103   2.40227   2.42455   2.43535   2.44870
 Alpha virt. eigenvalues --    2.45237   2.45737   2.46629   2.47176   2.48640
 Alpha virt. eigenvalues --    2.48956   2.50472   2.50970   2.51551   2.52324
 Alpha virt. eigenvalues --    2.53361   2.55204   2.55716   2.56394   2.58141
 Alpha virt. eigenvalues --    2.58591   2.58844   2.59319   2.60291   2.62193
 Alpha virt. eigenvalues --    2.63378   2.63687   2.64623   2.67842   2.68253
 Alpha virt. eigenvalues --    2.69540   2.72163   2.72951   2.74755   2.77767
 Alpha virt. eigenvalues --    2.80411   2.82072   2.82641   2.86593   2.88191
 Alpha virt. eigenvalues --    2.89993   2.90779   2.91130   2.94002   2.97332
 Alpha virt. eigenvalues --    2.98136   3.02719   3.05489   3.07360   3.14584
 Alpha virt. eigenvalues --    3.34081   3.70917   3.71890   3.79841   3.85814
 Alpha virt. eigenvalues --    3.89467   3.92508   3.92958   3.95809   3.99873
 Alpha virt. eigenvalues --    4.00817   4.03103   4.06686   4.07557   4.09111
 Alpha virt. eigenvalues --    4.11491   4.13715   4.15495   4.19844   4.23349
 Alpha virt. eigenvalues --    4.24084   4.26895   4.28721   4.30809   4.33370
 Alpha virt. eigenvalues --    4.35228   4.38222   4.42167   4.44946   4.47249
 Alpha virt. eigenvalues --    4.48667   4.57613   4.62444   4.64083   4.69874
          Condensed to atoms (all electrons):
 Mulliken charges:
               1
     1  N   -0.749852
     2  C   -0.104615
     3  C    0.617393
     4  O   -0.513060
     5  C   -0.402986
     6  C   -0.001429
     7  C    0.005337
     8  C    0.072557
     9  C    0.309965
    10  C   -0.224322
    11  N   -0.679359
    12  C   -0.154385
    13  C   -0.134122
    14  C   -0.147898
    15  H    0.421148
    16  H    0.228941
    17  H    0.191414
    18  H    0.190122
    19  H    0.178788
    20  H    0.349100
    21  H    0.128014
    22  H    0.151923
    23  H    0.151021
    24  H    0.156615
    25  H    0.431931
    26  H    0.415014
    27  N   -0.623995
    28  C   -0.068795
    29  C    0.616991
    30  O   -0.447382
    31  C   -0.065287
    32  C   -0.269803
    33  C   -0.470975
    34  C   -0.455005
    35  H    0.362220
    36  H    0.174618
    37  H    0.178219
    38  H    0.125725
    39  H    0.164456
    40  H    0.182050
    41  H    0.129534
    42  H    0.132828
    43  H    0.147872
    44  H    0.165439
    45  H    0.160555
    46  N   -0.702155
    47  C   -0.051843
    48  C    0.637821
    49  O   -0.520051
    50  C   -0.286153
    51  C   -0.268071
    52  C   -0.154668
    53  N   -0.603412
    54  C    0.585864
    55  N   -0.672364
    56  N   -0.742500
    57  O   -0.588755
    58  H    0.456662
    59  H    0.387761
    60  H    0.224202
    61  H    0.159161
    62  H    0.144426
    63  H    0.162115
    64  H    0.158305
    65  H    0.161491
    66  H    0.172217
    67  H    0.341448
    68  H    0.286365
    69  H    0.331077
    70  H    0.354535
 Sum of Mulliken charges =   1.00000
 Mulliken charges with hydrogens summed into heavy atoms:
               1
     1  N    0.518240
     2  C    0.124325
     3  C    0.617393
     4  O   -0.513060
     5  C   -0.021449
     6  C   -0.001429
     7  C    0.184125
     8  C    0.072557
     9  C    0.309965
    10  C   -0.096308
    11  N   -0.330259
    12  C   -0.002462
    13  C    0.016899
    14  C    0.008718
    27  N   -0.261775
    28  C    0.105822
    29  C    0.616991
    30  O   -0.447382
    31  C    0.112932
    32  C    0.020378
    33  C   -0.026563
    34  C    0.018862
    46  N   -0.314394
    47  C    0.172360
    48  C    0.637821
    49  O   -0.520051
    50  C    0.017434
    51  C    0.052349
    52  C    0.179040
    53  N   -0.261965
    54  C    0.585864
    55  N   -0.385998
    56  N   -0.056888
    57  O   -0.132093
 Electronic spatial extent (au):  <R**2>=        8513062.4538
 Charge=              1.0000 electrons
 Dipole moment (field-independent basis, Debye):
    X=           -463.9492    Y=            -67.3858    Z=             30.0873  Tot=            469.7818
 Quadrupole moment (field-independent basis, Debye-Ang):
   XX=          44660.4645   YY=            776.7878   ZZ=             15.5254
   XY=           6538.5902   XZ=          -2889.2853   YZ=           -425.9007
 Traceless Quadrupole moment (field-independent basis, Debye-Ang):
   XX=          29509.5386   YY=         -14374.1381   ZZ=         -15135.4005
   XY=           6538.5902   XZ=          -2889.2853   YZ=           -425.9007
 Octapole moment (field-independent basis, Debye-Ang**2):
  XXX=       -4284807.1174  YYY=          -6098.7676  ZZZ=          -1115.7677  XYY=         -76022.1421
  XXY=        -632327.6921  XXZ=         277019.3106  XZZ=          -1511.2082  YZZ=           -206.0468
  YYZ=           5311.1773  XYZ=          41072.9978
 Hexadecapole moment (field-independent basis, Debye-Ang**3):
 XXXX=      409738391.3306 YYYY=         -20308.6829 ZZZZ=         -18849.1648 XXXY=       60951997.7926
 XXXZ=      -26518451.0329 YYYX=         610937.6498 YYYZ=         -54736.7798 ZZZX=         107140.5562
 ZZZY=          16062.7942 XXYY=        7406858.2734 XXZZ=         143409.0812 YYZZ=          -1901.8409
 XXYZ=       -3955134.9538 YYXZ=        -514878.5785 ZZXY=          20420.3584
 N-N= 3.839150216181D+03 E-N=-1.133142605168D+04  KE= 1.567336650654D+03
 Unable to Open any file for archive entry.
 1\1\GINC-QML-002\SP\RB3LYP\6-31G(d)\C23H36N7O4(1+)\KENGMITH\24-May-202
 2\0\\# B3LYP/6-31G* empiricaldispersion=gd3 guess=read geom=check nosy
 mm integral(ultrafinegrid)\\Candidate Structure: Conf:234 Charge calc 
 in gas phase\\1,1\N,0,-96.889222862,-16.2027600792,5.4646470764\C,0,-9
 7.2663877765,-15.3716509849,4.2578411\C,0,-95.9381302852,-15.123523933
 2,3.5067508427\O,0,-95.2387837363,-16.0903884714,3.2243626729\C,0,-98.
 1218023274,-14.1772709064,4.7177599885\C,0,-99.2109960731,-14.61754017
 98,5.649694172\C,0,-99.3216397511,-14.2838416499,6.980900049\C,0,-100.
 2739221854,-15.5520943425,5.3624549162\C,0,-100.9977058865,-15.7336899
 013,6.5730207433\C,0,-100.6894091835,-16.2445623595,4.2086101933\N,0,-
 100.3909802113,-14.9482776765,7.5358786595\C,0,-102.1064271888,-16.581
 8279697,6.6610296404\C,0,-101.7870860629,-17.0901262292,4.2935470726\C
 ,0,-102.486167593,-17.2575901171,5.5080428464\H,0,-96.1941491085,-16.9
 072844708,5.1843313638\H,0,-97.8546792856,-16.0374267683,3.6211786674\
 H,0,-97.4834339854,-13.4474866588,5.2270552853\H,0,-98.5330040662,-13.
 7046969922,3.8153185835\H,0,-98.7124688489,-13.6135880542,7.5724096091
 \H,0,-100.7179381397,-14.8335797685,8.4836618747\H,0,-100.1815484891,-
 16.1025552623,3.2574516551\H,0,-102.650895993,-16.7053082853,7.5926042
 517\H,0,-102.122235896,-17.6259095548,3.410714274\H,0,-103.3429367922,
 -17.9235615503,5.5400766139\H,0,-96.4511107525,-15.5786655895,6.177463
 671\H,0,-97.7255327313,-16.6397330312,5.8666775365\N,0,-95.5957055095,
 -13.8370397055,3.2777441268\C,0,-94.4838645697,-13.4377399403,2.402282
 4492\C,0,-93.1070051774,-13.9718253876,2.8785183188\O,0,-92.2966034852
 ,-14.3790307221,2.0713972828\C,0,-94.7226025467,-13.7494993746,0.89822
 62694\C,0,-93.8775556794,-12.7858548385,0.0320272315\C,0,-96.210109100
 9,-13.6490011588,0.5297042508\C,0,-93.6834082789,-13.2716491851,-1.407
 6117536\H,0,-96.2943801485,-13.1296588453,3.4546185479\H,0,-94.4299638
 721,-12.3478288319,2.5172033015\H,0,-94.3775976412,-14.7733167996,0.72
 16770071\H,0,-94.3625132012,-11.7975778999,0.0341438995\H,0,-92.891165
 1463,-12.6591135069,0.4863343541\H,0,-96.3392747454,-13.7717636771,-0.
 5486201933\H,0,-96.8165101873,-14.4237325404,1.0112676056\H,0,-96.6263
 577669,-12.6681383225,0.7977442524\H,0,-94.6335178018,-13.3921262108,-
 1.9396309607\H,0,-93.1631969176,-14.2359636237,-1.4195801439\H,0,-93.0
 782609512,-12.5581722653,-1.9763784391\N,0,-92.7359237845,-13.91944232
 65,4.2278230543\C,0,-93.40322743,-13.3129274248,5.3859865775\C,0,-94.4
 168109312,-14.3020702222,5.9548591106\O,0,-95.4485804091,-14.018276013
 7,6.5474540804\C,0,-93.9205518764,-11.8657222565,5.264125352\C,0,-93.6
 967425623,-11.0136460963,6.5276916793\C,0,-92.2575332997,-10.509092224
 6,6.7660925354\N,0,-91.3131724263,-11.4982322684,7.2900588489\C,0,-90.
 4814154387,-12.2716034937,6.486091848\N,0,-90.4753786134,-12.349120040
 9,5.1949645565\N,0,-89.6055251072,-13.0494643844,7.2192694559\O,0,-94.
 0808470991,-15.5885075308,5.7989194497\H,0,-93.3576102738,-15.61976659
 59,5.1277628583\H,0,-91.7148047397,-13.8507949273,4.3095228658\H,0,-92
 .6207224495,-13.31079407,6.1499884511\H,0,-93.4114618158,-11.392261915
 4,4.4171707062\H,0,-94.9899524422,-11.8772899054,5.0316598067\H,0,-94.
 0422918595,-11.5628939033,7.411959202\H,0,-94.3331739745,-10.123799832
 9,6.4452548589\H,0,-91.8666478496,-10.047786249,5.8476054539\H,0,-92.3
 037200809,-9.7059869916,7.5070934183\H,0,-90.9031255007,-11.2553453607
 ,8.1833315321\H,0,-91.011461135,-11.5923814641,4.7712240799\H,0,-89.94
 39498051,-13.461834943,8.0792366554\H,0,-89.0379438073,-13.664973706,6
 .6511181872\\Version=ES64L-G16RevC.01\HF=-1582.2117607\RMSD=7.053e-09\
 Dipole=-1.8231288,0.1715286,3.1811654\Quadrupole=21939.6186771,-10686.
 8193504,-11252.7993267,4861.2815276,-2148.112816,-316.6467397\PG=C01 [
 X(C23H36N7O4)]\\@
 The archive entry for this job was punched.


 SOME THINGS ARE EASY, THEY ARE ONLY HARD TO DO.
            -- A. EINSTEIN TO J. O. HIRSCHFELDER
 THE ONLY TROUBLE WITH A SURE THING IS THE UNCERTAINTY.
     -- FROM A TEABAG (BELONGING TO W.H.?)
 Job cpu time:       0 days  0 hours  4 minutes  8.2 seconds.
 Elapsed time:       0 days  0 hours  1 minutes  2.6 seconds.
 File lengths (MBytes):  RWF=    296 Int=      0 D2E=      0 Chk=     40 Scr=     16
 Normal termination of Gaussian 16 at Tue May 24 23:13:10 2022.
