 Entering Gaussian System, Link 0=/opt/software/Gaussian/g16-AVX-C.01/g16/g16
 Input=charge-conf-3.com
 Output=charge-conf-3.log
 Initial command:
 /opt/software/Gaussian/g16-AVX-C.01/g16/l1.exe "/mnt/gs18/scratch/users/kengmith/Gau-39423.inp" -scrdir="/mnt/gs18/scratch/users/kengmith/"
 Entering Link 1 = /opt/software/Gaussian/g16-AVX-C.01/g16/l1.exe PID=     39439.
  
 Copyright (c) 1988-2019, Gaussian, Inc.  All Rights Reserved.
  
 This is part of the Gaussian(R) 16 program.  It is based on
 the Gaussian(R) 09 system (copyright 2009, Gaussian, Inc.),
 the Gaussian(R) 03 system (copyright 2003, Gaussian, Inc.),
 the Gaussian(R) 98 system (copyright 1998, Gaussian, Inc.),
 the Gaussian(R) 94 system (copyright 1995, Gaussian, Inc.),
 the Gaussian 92(TM) system (copyright 1992, Gaussian, Inc.),
 the Gaussian 90(TM) system (copyright 1990, Gaussian, Inc.),
 the Gaussian 88(TM) system (copyright 1988, Gaussian, Inc.),
 the Gaussian 86(TM) system (copyright 1986, Carnegie Mellon
 University), and the Gaussian 82(TM) system (copyright 1983,
 Carnegie Mellon University). Gaussian is a federally registered
 trademark of Gaussian, Inc.
  
 This software contains proprietary and confidential information,
 including trade secrets, belonging to Gaussian, Inc.
  
 This software is provided under written license and may be
 used, copied, transmitted, or stored only in accord with that
 written license.
  
 The following legend is applicable only to US Government
 contracts under FAR:
  
                    RESTRICTED RIGHTS LEGEND
  
 Use, reproduction and disclosure by the US Government is
 subject to restrictions as set forth in subparagraphs (a)
 and (c) of the Commercial Computer Software - Restricted
 Rights clause in FAR 52.227-19.
  
 Gaussian, Inc.
 340 Quinnipiac St., Bldg. 40, Wallingford CT 06492
  
  
 ---------------------------------------------------------------
 Warning -- This program may not be used in any manner that
 competes with the business of Gaussian, Inc. or will provide
 assistance to any competitor of Gaussian, Inc.  The licensee
 of this program is prohibited from giving any competitor of
 Gaussian, Inc. access to this program.  By using this program,
 the user acknowledges that Gaussian, Inc. is engaged in the
 business of creating and licensing software in the field of
 computational chemistry and represents and warrants to the
 licensee that it is not a competitor of Gaussian, Inc. and that
 it will not use this program in any manner prohibited above.
 ---------------------------------------------------------------
  

 Cite this work as:
 Gaussian 16, Revision C.01,
 M. J. Frisch, G. W. Trucks, H. B. Schlegel, G. E. Scuseria, 
 M. A. Robb, J. R. Cheeseman, G. Scalmani, V. Barone, 
 G. A. Petersson, H. Nakatsuji, X. Li, M. Caricato, A. V. Marenich, 
 J. Bloino, B. G. Janesko, R. Gomperts, B. Mennucci, H. P. Hratchian, 
 J. V. Ortiz, A. F. Izmaylov, J. L. Sonnenberg, D. Williams-Young, 
 F. Ding, F. Lipparini, F. Egidi, J. Goings, B. Peng, A. Petrone, 
 T. Henderson, D. Ranasinghe, V. G. Zakrzewski, J. Gao, N. Rega, 
 G. Zheng, W. Liang, M. Hada, M. Ehara, K. Toyota, R. Fukuda, 
 J. Hasegawa, M. Ishida, T. Nakajima, Y. Honda, O. Kitao, H. Nakai, 
 T. Vreven, K. Throssell, J. A. Montgomery, Jr., J. E. Peralta, 
 F. Ogliaro, M. J. Bearpark, J. J. Heyd, E. N. Brothers, K. N. Kudin, 
 V. N. Staroverov, T. A. Keith, R. Kobayashi, J. Normand, 
 K. Raghavachari, A. P. Rendell, J. C. Burant, S. S. Iyengar, 
 J. Tomasi, M. Cossi, J. M. Millam, M. Klene, C. Adamo, R. Cammi, 
 J. W. Ochterski, R. L. Martin, K. Morokuma, O. Farkas, 
 J. B. Foresman, and D. J. Fox, Gaussian, Inc., Wallingford CT, 2019.
 
 ******************************************
 Gaussian 16:  ES64L-G16RevC.01  3-Jul-2019
                24-May-2022 
 ******************************************
 %mem=8gb
 %nproc=4
 Will use up to    4 processors via shared memory.
 %chk=conf-3.chk
 ----------------------------------------------------------------------
 # B3LYP/6-31G* empiricaldispersion=gd3 guess=read geom=check nosymm in
 tegral(ultrafinegrid)
 ----------------------------------------------------------------------
 1/29=2,38=1,172=1/1;
 2/12=2,15=1,40=1/2;
 3/5=1,6=6,7=1,11=2,14=-4,25=1,30=1,74=-5,75=-5,116=-2,124=31/1,2,3;
 4/5=1/1;
 5/5=2,38=6/2;
 6/7=2,8=2,9=2,10=2,28=1/1;
 99/5=1,9=1/99;
 ----------------------------------------------------
 Candidate Structure: Conf:3 Charge calc in gas phase
 ----------------------------------------------------
 Structure from the checkpoint file:  "conf-3.chk"
 Charge =  1 Multiplicity = 1
 Redundant internal coordinates found in file.  (old form).
 N,0,-97.7695502395,-14.2740819821,5.5362598841
 C,0,-96.3849279866,-14.198266619,6.159754722
 C,0,-95.6128755807,-12.9930631551,5.5719386289
 O,0,-95.6849942748,-11.9086025155,6.1403602638
 C,0,-95.7241442183,-15.5883618565,6.0779888766
 C,0,-96.6481205691,-16.6639874876,6.5662282473
 C,0,-97.1813911772,-17.677089866,5.7971427697
 C,0,-97.1922605095,-16.8218368136,7.8958374887
 C,0,-98.0455124795,-17.9579609362,7.8594166718
 C,0,-97.0350816082,-16.1241594107,9.1080679794
 N,0,-98.0157934929,-18.4533808962,6.5680542053
 C,0,-98.7448441421,-18.4043959501,8.9855769069
 C,0,-97.7276241701,-16.5639018879,10.2278780535
 C,0,-98.5752858176,-17.6907013327,10.1654422717
 H,0,-98.2294295023,-15.1191485869,5.9097351394
 H,0,-96.5725167213,-13.9317016117,7.201067316
 H,0,-95.4138660742,-15.8081124775,5.0512467635
 H,0,-94.8139765005,-15.5328419657,6.6883035005
 H,0,-96.9979232149,-17.9104001997,4.7565811639
 H,0,-98.4881583705,-19.2880572874,6.2545854571
 H,0,-96.3670490466,-15.2689856321,9.1771006713
 H,0,-99.3910836912,-19.2762354471,8.9410976772
 H,0,-97.6120141839,-16.0393396119,11.1714877044
 H,0,-99.1009351251,-18.0101748646,11.0601018759
 H,0,-98.3164620103,-13.4352236046,5.7532417803
 H,0,-97.7540696607,-14.3350824828,4.4966399987
 N,0,-94.922120316,-13.1984040989,4.4239355799
 C,0,-93.905104867,-12.2400052164,3.9711216276
 C,0,-94.4958192513,-10.8497297911,3.6426389624
 O,0,-93.9607679851,-9.8206052748,3.9975166903
 C,0,-92.6797716607,-12.1157034738,4.9179136978
 C,0,-91.4680263269,-11.571259607,4.1256143733
 C,0,-92.3420990838,-13.4670808184,5.5638421787
 C,0,-90.3662721676,-10.9928878752,5.0190170432
 H,0,-94.8767026046,-14.1369026616,3.9979558167
 H,0,-93.5392954654,-12.6514450404,3.0237714556
 H,0,-92.9405671777,-11.3965614154,5.7005469485
 H,0,-91.0616145413,-12.3853870086,3.5055249629
 H,0,-91.7995529713,-10.7857933689,3.440428375
 H,0,-91.3971504013,-13.4010495554,6.1095952425
 H,0,-93.1039122259,-13.7889239897,6.2804573492
 H,0,-92.2340981267,-14.2557567712,4.8066439505
 H,0,-89.9653410349,-11.734567847,5.7185896813
 H,0,-90.7514244093,-10.1502993119,5.604052188
 H,0,-89.5298851246,-10.6265496442,4.4146040481
 N,0,-95.6789686515,-10.7475770642,2.8842978392
 C,0,-96.3681733614,-11.7415091237,2.0454864673
 C,0,-97.3048294012,-12.5558573902,2.9449842176
 O,0,-97.6691019829,-13.7056396412,2.7460394345
 C,0,-95.4663694955,-12.5582761126,1.0990988131
 C,0,-96.1698804621,-13.3008271273,-0.0636202131
 C,0,-96.306119001,-14.827935596,0.0999270825
 N,0,-95.0419562065,-15.5014950879,0.4009025104
 C,0,-94.6116781982,-15.809559524,1.6705486092
 N,0,-95.2473138762,-15.5569267716,2.7791464262
 N,0,-93.3909919211,-16.4474758562,1.7138771223
 O,0,-97.7762846505,-11.8966539949,4.0100060215
 H,0,-97.2146584641,-11.0954374717,4.1390854843
 H,0,-95.7972452069,-9.7810170624,2.5968388882
 H,0,-97.0514373322,-11.1509617851,1.4188915083
 H,0,-94.7599104294,-11.831949614,0.6843519993
 H,0,-94.8774374888,-13.2689416151,1.6751034279
 H,0,-95.5955739869,-13.1140043763,-0.9776149624
 H,0,-97.1717742751,-12.8896497268,-0.2449341019
 H,0,-97.0478780064,-15.0642332559,0.8652837935
 H,0,-96.6852410867,-15.2484664264,-0.8363381944
 H,0,-94.6080646279,-16.014660254,-0.3542679481
 H,0,-96.1884963513,-15.2269752196,2.5786524498
 H,0,-92.6867197324,-16.1759044315,1.0401999282
 H,0,-93.0382200547,-16.60455001,2.648380957
 Recover connectivity data from disk.
                           ----------------------------
                           !    Current Parameters    !
                           ! (Angstroms and Degrees)  !
 --------------------------                            --------------------------
 ! Name  Definition              Value                                          !
 --------------------------------------------------------------------------------
 ! R1    R(1,2)                  1.5204                                         !
 ! R2    R(1,15)                 1.032                                          !
 ! R3    R(1,25)                 1.0246                                         !
 ! R4    R(1,26)                 1.0415                                         !
 ! R5    R(2,3)                  1.5473                                         !
 ! R6    R(2,5)                  1.5413                                         !
 ! R7    R(2,16)                 1.0911                                         !
 ! R8    R(3,4)                  1.2265                                         !
 ! R9    R(3,27)                 1.3554                                         !
 ! R10   R(5,6)                  1.4997                                         !
 ! R11   R(5,17)                 1.0949                                         !
 ! R12   R(5,18)                 1.0973                                         !
 ! R13   R(6,7)                  1.3792                                         !
 ! R14   R(6,8)                  1.4453                                         !
 ! R15   R(7,11)                 1.3759                                         !
 ! R16   R(7,19)                 1.0821                                         !
 ! R17   R(8,9)                  1.4213                                         !
 ! R18   R(8,10)                 1.4075                                         !
 ! R19   R(9,11)                 1.3835                                         !
 ! R20   R(9,12)                 1.3988                                         !
 ! R21   R(10,13)                1.3882                                         !
 ! R22   R(10,21)                1.0874                                         !
 ! R23   R(11,20)                1.009                                          !
 ! R24   R(12,14)                1.3893                                         !
 ! R25   R(12,22)                1.0861                                         !
 ! R26   R(13,14)                1.4114                                         !
 ! R27   R(13,23)                1.0858                                         !
 ! R28   R(14,24)                1.0857                                         !
 ! R29   R(27,28)                1.469                                          !
 ! R30   R(27,35)                1.0316                                         !
 ! R31   R(28,29)                1.5459                                         !
 ! R32   R(28,31)                1.5535                                         !
 ! R33   R(28,36)                1.0957                                         !
 ! R34   R(29,30)                1.213                                          !
 ! R35   R(29,46)                1.409                                          !
 ! R36   R(31,32)                1.5468                                         !
 ! R37   R(31,33)                1.5354                                         !
 ! R38   R(31,37)                1.0944                                         !
 ! R39   R(32,34)                1.5318                                         !
 ! R40   R(32,38)                1.1011                                         !
 ! R41   R(32,39)                1.0938                                         !
 ! R42   R(33,40)                1.0932                                         !
 ! R43   R(33,41)                1.0943                                         !
 ! R44   R(33,42)                1.0986                                         !
 ! R45   R(34,43)                1.0956                                         !
 ! R46   R(34,44)                1.0957                                         !
 ! R47   R(34,45)                1.095                                          !
 ! R48   R(46,47)                1.4719                                         !
 ! R49   R(46,59)                1.0153                                         !
 ! R50   R(47,48)                1.5328                                         !
 ! R51   R(47,50)                1.5414                                         !
 ! R52   R(47,60)                1.0992                                         !
 ! R53   R(48,49)                1.2224                                         !
 ! R54   R(48,57)                1.3383                                         !
 ! R55   R(50,51)                1.5486                                         !
 ! R56   R(50,61)                1.0948                                         !
 ! R57   R(50,62)                1.088                                          !
 ! R58   R(51,52)                1.5419                                         !
 ! R59   R(51,63)                1.0955                                         !
 ! R60   R(51,64)                1.0981                                         !
 ! R61   R(52,53)                1.4637                                         !
 ! R62   R(52,65)                1.0917                                         !
 ! R63   R(52,66)                1.0942                                         !
 ! R64   R(53,54)                1.3755                                         !
 ! R65   R(53,67)                1.0109                                         !
 ! R66   R(54,55)                1.3026                                         !
 ! R67   R(54,56)                1.378                                          !
 ! R68   R(55,68)                1.0173                                         !
 ! R69   R(56,69)                1.0117                                         !
 ! R70   R(56,70)                1.0111                                         !
 ! R71   R(57,58)                0.9869                                         !
 ! A1    A(2,1,15)             107.3515                                         !
 ! A2    A(2,1,25)             111.0035                                         !
 ! A3    A(2,1,26)             113.498                                          !
 ! A4    A(15,1,25)            110.8479                                         !
 ! A5    A(15,1,26)            108.6559                                         !
 ! A6    A(25,1,26)            105.5014                                         !
 ! A7    A(1,2,3)              109.7219                                         !
 ! A8    A(1,2,5)              108.8865                                         !
 ! A9    A(1,2,16)             104.2984                                         !
 ! A10   A(3,2,5)              117.9318                                         !
 ! A11   A(3,2,16)             104.9543                                         !
 ! A12   A(5,2,16)             110.1611                                         !
 ! A13   A(2,3,4)              118.9007                                         !
 ! A14   A(2,3,27)             117.2609                                         !
 ! A15   A(4,3,27)             123.8091                                         !
 ! A16   A(2,5,6)              111.4355                                         !
 ! A17   A(2,5,17)             110.6253                                         !
 ! A18   A(2,5,18)             106.2884                                         !
 ! A19   A(6,5,17)             109.63                                           !
 ! A20   A(6,5,18)             111.4857                                         !
 ! A21   A(17,5,18)            107.2588                                         !
 ! A22   A(5,6,7)              125.6983                                         !
 ! A23   A(5,6,8)              127.5747                                         !
 ! A24   A(7,6,8)              106.6902                                         !
 ! A25   A(6,7,11)             109.6623                                         !
 ! A26   A(6,7,19)             128.9807                                         !
 ! A27   A(11,7,19)            121.3303                                         !
 ! A28   A(6,8,9)              106.8427                                         !
 ! A29   A(6,8,10)             134.1201                                         !
 ! A30   A(9,8,10)             119.0351                                         !
 ! A31   A(8,9,11)             107.2938                                         !
 ! A32   A(8,9,12)             122.3184                                         !
 ! A33   A(11,9,12)            130.3875                                         !
 ! A34   A(8,10,13)            118.8193                                         !
 ! A35   A(8,10,21)            120.8731                                         !
 ! A36   A(13,10,21)           120.2933                                         !
 ! A37   A(7,11,9)             109.5104                                         !
 ! A38   A(7,11,20)            125.2089                                         !
 ! A39   A(9,11,20)            125.1818                                         !
 ! A40   A(9,12,14)            117.3067                                         !
 ! A41   A(9,12,22)            121.3781                                         !
 ! A42   A(14,12,22)           121.3147                                         !
 ! A43   A(10,13,14)           121.1206                                         !
 ! A44   A(10,13,23)           119.663                                          !
 ! A45   A(14,13,23)           119.2148                                         !
 ! A46   A(12,14,13)           121.3978                                         !
 ! A47   A(12,14,24)           119.3112                                         !
 ! A48   A(13,14,24)           119.2899                                         !
 ! A49   A(3,27,28)            121.0015                                         !
 ! A50   A(3,27,35)            120.6618                                         !
 ! A51   A(28,27,35)           115.8335                                         !
 ! A52   A(27,28,29)           112.8117                                         !
 ! A53   A(27,28,31)           114.2313                                         !
 ! A54   A(27,28,36)           104.6354                                         !
 ! A55   A(29,28,31)           111.0358                                         !
 ! A56   A(29,28,36)           106.3535                                         !
 ! A57   A(31,28,36)           107.0769                                         !
 ! A58   A(28,29,30)           122.1615                                         !
 ! A59   A(28,29,46)           120.0285                                         !
 ! A60   A(30,29,46)           117.7972                                         !
 ! A61   A(28,31,32)           109.5058                                         !
 ! A62   A(28,31,33)           111.0658                                         !
 ! A63   A(28,31,37)           107.4853                                         !
 ! A64   A(32,31,33)           110.6709                                         !
 ! A65   A(32,31,37)           108.7658                                         !
 ! A66   A(33,31,37)           109.2637                                         !
 ! A67   A(31,32,34)           113.4287                                         !
 ! A68   A(31,32,38)           108.5031                                         !
 ! A69   A(31,32,39)           109.6455                                         !
 ! A70   A(34,32,38)           110.0068                                         !
 ! A71   A(34,32,39)           108.1928                                         !
 ! A72   A(38,32,39)           106.8608                                         !
 ! A73   A(31,33,40)           110.3008                                         !
 ! A74   A(31,33,41)           112.4111                                         !
 ! A75   A(31,33,42)           111.3152                                         !
 ! A76   A(40,33,41)           107.0133                                         !
 ! A77   A(40,33,42)           107.605                                          !
 ! A78   A(41,33,42)           107.9776                                         !
 ! A79   A(32,34,43)           112.3351                                         !
 ! A80   A(32,34,44)           110.4218                                         !
 ! A81   A(32,34,45)           110.7172                                         !
 ! A82   A(43,34,44)           107.9564                                         !
 ! A83   A(43,34,45)           107.423                                          !
 ! A84   A(44,34,45)           107.8145                                         !
 ! A85   A(29,46,47)           130.6119                                         !
 ! A86   A(29,46,59)           108.6153                                         !
 ! A87   A(47,46,59)           115.2742                                         !
 ! A88   A(46,47,48)           108.0867                                         !
 ! A89   A(46,47,50)           115.7062                                         !
 ! A90   A(46,47,60)           104.6628                                         !
 ! A91   A(48,47,50)           115.8667                                         !
 ! A92   A(48,47,60)           103.8928                                         !
 ! A93   A(50,47,60)           107.3588                                         !
 ! A94   A(47,48,49)           125.8947                                         !
 ! A95   A(47,48,57)           114.8703                                         !
 ! A96   A(49,48,57)           119.1985                                         !
 ! A97   A(47,50,51)           116.6968                                         !
 ! A98   A(47,50,61)           104.9851                                         !
 ! A99   A(47,50,62)           109.7403                                         !
 ! A100  A(51,50,61)           109.0754                                         !
 ! A101  A(51,50,62)           109.2813                                         !
 ! A102  A(61,50,62)           106.5358                                         !
 ! A103  A(50,51,52)           115.8109                                         !
 ! A104  A(50,51,63)           107.8478                                         !
 ! A105  A(50,51,64)           111.0341                                         !
 ! A106  A(52,51,63)           107.6813                                         !
 ! A107  A(52,51,64)           107.9247                                         !
 ! A108  A(63,51,64)           106.0638                                         !
 ! A109  A(51,52,53)           113.6576                                         !
 ! A110  A(51,52,65)           110.4124                                         !
 ! A111  A(51,52,66)           108.6941                                         !
 ! A112  A(53,52,65)           110.0638                                         !
 ! A113  A(53,52,66)           107.3587                                         !
 ! A114  A(65,52,66)           106.3368                                         !
 ! A115  A(52,53,54)           124.266                                          !
 ! A116  A(52,53,67)           116.7889                                         !
 ! A117  A(54,53,67)           116.2051                                         !
 ! A118  A(53,54,55)           126.1192                                         !
 ! A119  A(53,54,56)           114.1924                                         !
 ! A120  A(55,54,56)           119.688                                          !
 ! A121  A(54,55,68)           110.2813                                         !
 ! A122  A(54,56,69)           118.1279                                         !
 ! A123  A(54,56,70)           114.2065                                         !
 ! A124  A(69,56,70)           114.4711                                         !
 ! A125  A(48,57,58)           107.6672                                         !
 ! D1    D(15,1,2,3)           176.6586                                         !
 ! D2    D(15,1,2,5)            46.225                                          !
 ! D3    D(15,1,2,16)          -71.3631                                         !
 ! D4    D(25,1,2,3)           -62.0526                                         !
 ! D5    D(25,1,2,5)           167.5139                                         !
 ! D6    D(25,1,2,16)           49.9258                                         !
 ! D7    D(26,1,2,3)            56.5736                                         !
 ! D8    D(26,1,2,5)           -73.86                                           !
 ! D9    D(26,1,2,16)          168.5519                                         !
 ! D10   D(1,2,3,4)             91.2168                                         !
 ! D11   D(1,2,3,27)           -86.8936                                         !
 ! D12   D(5,2,3,4)           -143.3842                                         !
 ! D13   D(5,2,3,27)            38.5053                                         !
 ! D14   D(16,2,3,4)           -20.3329                                         !
 ! D15   D(16,2,3,27)          161.5567                                         !
 ! D16   D(1,2,5,6)            -48.6686                                         !
 ! D17   D(1,2,5,17)            73.5667                                         !
 ! D18   D(1,2,5,18)          -170.314                                          !
 ! D19   D(3,2,5,6)           -174.4763                                         !
 ! D20   D(3,2,5,17)           -52.241                                          !
 ! D21   D(3,2,5,18)            63.8783                                         !
 ! D22   D(16,2,5,6)            65.1394                                         !
 ! D23   D(16,2,5,17)         -172.6254                                         !
 ! D24   D(16,2,5,18)          -56.506                                          !
 ! D25   D(2,3,27,28)         -164.6647                                         !
 ! D26   D(2,3,27,35)           -3.3579                                         !
 ! D27   D(4,3,27,28)           17.3263                                         !
 ! D28   D(4,3,27,35)          178.6331                                         !
 ! D29   D(2,5,6,7)            114.4643                                         !
 ! D30   D(2,5,6,8)            -63.0318                                         !
 ! D31   D(17,5,6,7)            -8.3431                                         !
 ! D32   D(17,5,6,8)           174.1608                                         !
 ! D33   D(18,5,6,7)          -126.9576                                         !
 ! D34   D(18,5,6,8)            55.5463                                         !
 ! D35   D(5,6,7,11)          -178.1628                                         !
 ! D36   D(5,6,7,19)             3.7284                                         !
 ! D37   D(8,6,7,11)            -0.2343                                         !
 ! D38   D(8,6,7,19)          -178.3432                                         !
 ! D39   D(5,6,8,9)            178.1214                                         !
 ! D40   D(5,6,8,10)            -2.4309                                         !
 ! D41   D(7,6,8,9)              0.244                                          !
 ! D42   D(7,6,8,10)           179.6918                                         !
 ! D43   D(6,7,11,9)             0.1353                                         !
 ! D44   D(6,7,11,20)         -176.3958                                         !
 ! D45   D(19,7,11,9)          178.4143                                         !
 ! D46   D(19,7,11,20)           1.8832                                         !
 ! D47   D(6,8,9,11)            -0.1649                                         !
 ! D48   D(6,8,9,12)          -179.9857                                         !
 ! D49   D(10,8,9,11)         -179.7115                                         !
 ! D50   D(10,8,9,12)            0.4677                                         !
 ! D51   D(6,8,10,13)         -179.8596                                         !
 ! D52   D(6,8,10,21)           -1.2278                                         !
 ! D53   D(9,8,10,13)           -0.4641                                         !
 ! D54   D(9,8,10,21)          178.1677                                         !
 ! D55   D(8,9,11,7)             0.0241                                         !
 ! D56   D(8,9,11,20)          176.5564                                         !
 ! D57   D(12,9,11,7)          179.8253                                         !
 ! D58   D(12,9,11,20)          -3.6424                                         !
 ! D59   D(8,9,12,14)           -0.1031                                         !
 ! D60   D(8,9,12,22)         -179.845                                          !
 ! D61   D(11,9,12,14)        -179.8785                                         !
 ! D62   D(11,9,12,22)           0.3796                                         !
 ! D63   D(8,10,13,14)           0.1201                                         !
 ! D64   D(8,10,13,23)         179.6472                                         !
 ! D65   D(21,10,13,14)       -178.5198                                         !
 ! D66   D(21,10,13,23)          1.0072                                         !
 ! D67   D(9,12,14,13)          -0.2567                                         !
 ! D68   D(9,12,14,24)        -179.8578                                         !
 ! D69   D(22,12,14,13)        179.4854                                         !
 ! D70   D(22,12,14,24)         -0.1157                                         !
 ! D71   D(10,13,14,12)          0.2532                                         !
 ! D72   D(10,13,14,24)        179.8545                                         !
 ! D73   D(23,13,14,12)       -179.2759                                         !
 ! D74   D(23,13,14,24)          0.3253                                         !
 ! D75   D(3,27,28,29)         -63.6492                                         !
 ! D76   D(3,27,28,31)          64.3997                                         !
 ! D77   D(3,27,28,36)        -178.8336                                         !
 ! D78   D(35,27,28,29)        134.1873                                         !
 ! D79   D(35,27,28,31)        -97.7637                                         !
 ! D80   D(35,27,28,36)         19.0029                                         !
 ! D81   D(27,28,29,30)        136.1098                                         !
 ! D82   D(27,28,29,46)        -45.218                                          !
 ! D83   D(31,28,29,30)          6.4079                                         !
 ! D84   D(31,28,29,46)       -174.9199                                         !
 ! D85   D(36,28,29,30)       -109.743                                          !
 ! D86   D(36,28,29,46)         68.9292                                         !
 ! D87   D(27,28,31,32)        157.2827                                         !
 ! D88   D(27,28,31,33)         34.7516                                         !
 ! D89   D(27,28,31,37)        -84.7212                                         !
 ! D90   D(29,28,31,32)        -73.7697                                         !
 ! D91   D(29,28,31,33)        163.6992                                         !
 ! D92   D(29,28,31,37)         44.2264                                         !
 ! D93   D(36,28,31,32)         41.9344                                         !
 ! D94   D(36,28,31,33)        -80.5967                                         !
 ! D95   D(36,28,31,37)        159.9304                                         !
 ! D96   D(28,29,46,47)        -15.6008                                         !
 ! D97   D(28,29,46,59)       -167.5204                                         !
 ! D98   D(30,29,46,47)        163.1285                                         !
 ! D99   D(30,29,46,59)         11.2088                                         !
 ! D100  D(28,31,32,34)        161.5016                                         !
 ! D101  D(28,31,32,38)        -75.9361                                         !
 ! D102  D(28,31,32,39)         40.4378                                         !
 ! D103  D(33,31,32,34)        -75.7324                                         !
 ! D104  D(33,31,32,38)         46.8299                                         !
 ! D105  D(33,31,32,39)        163.2038                                         !
 ! D106  D(37,31,32,34)         44.3075                                         !
 ! D107  D(37,31,32,38)        166.8698                                         !
 ! D108  D(37,31,32,39)        -76.7563                                         !
 ! D109  D(28,31,33,40)        171.7584                                         !
 ! D110  D(28,31,33,41)        -68.8999                                         !
 ! D111  D(28,31,33,42)         52.3846                                         !
 ! D112  D(32,31,33,40)         49.9042                                         !
 ! D113  D(32,31,33,41)        169.2458                                         !
 ! D114  D(32,31,33,42)        -69.4696                                         !
 ! D115  D(37,31,33,40)        -69.8372                                         !
 ! D116  D(37,31,33,41)         49.5045                                         !
 ! D117  D(37,31,33,42)        170.789                                          !
 ! D118  D(31,32,34,43)         59.5762                                         !
 ! D119  D(31,32,34,44)        -60.9959                                         !
 ! D120  D(31,32,34,45)        179.6738                                         !
 ! D121  D(38,32,34,43)        -62.1502                                         !
 ! D122  D(38,32,34,44)        177.2777                                         !
 ! D123  D(38,32,34,45)         57.9474                                         !
 ! D124  D(39,32,34,43)       -178.5465                                         !
 ! D125  D(39,32,34,44)         60.8813                                         !
 ! D126  D(39,32,34,45)        -58.4489                                         !
 ! D127  D(29,46,47,48)         86.558                                          !
 ! D128  D(29,46,47,50)        -45.2465                                         !
 ! D129  D(29,46,47,60)       -163.166                                          !
 ! D130  D(59,46,47,48)       -123.0                                            !
 ! D131  D(59,46,47,50)        105.1955                                         !
 ! D132  D(59,46,47,60)        -12.724                                          !
 ! D133  D(46,47,48,49)       -152.8819                                         !
 ! D134  D(46,47,48,57)         29.3496                                         !
 ! D135  D(50,47,48,49)        -21.1643                                         !
 ! D136  D(50,47,48,57)        161.0672                                         !
 ! D137  D(60,47,48,49)         96.319                                          !
 ! D138  D(60,47,48,57)        -81.4495                                         !
 ! D139  D(46,47,50,51)       -162.9256                                         !
 ! D140  D(46,47,50,61)        -42.0423                                         !
 ! D141  D(46,47,50,62)         72.1049                                         !
 ! D142  D(48,47,50,51)         69.0258                                         !
 ! D143  D(48,47,50,61)       -170.0908                                         !
 ! D144  D(48,47,50,62)        -55.9436                                         !
 ! D145  D(60,47,50,51)        -46.5138                                         !
 ! D146  D(60,47,50,61)         74.3696                                         !
 ! D147  D(60,47,50,62)       -171.4832                                         !
 ! D148  D(47,48,57,58)        -16.2542                                         !
 ! D149  D(49,48,57,58)        165.8166                                         !
 ! D150  D(47,50,51,52)       -105.3109                                         !
 ! D151  D(47,50,51,63)        134.0141                                         !
 ! D152  D(47,50,51,64)         18.2118                                         !
 ! D153  D(61,50,51,52)        135.9951                                         !
 ! D154  D(61,50,51,63)         15.3201                                         !
 ! D155  D(61,50,51,64)       -100.4822                                         !
 ! D156  D(62,50,51,52)         19.8901                                         !
 ! D157  D(62,50,51,63)       -100.7849                                         !
 ! D158  D(62,50,51,64)        143.4127                                         !
 ! D159  D(50,51,52,53)        -52.6021                                         !
 ! D160  D(50,51,52,65)         71.6385                                         !
 ! D161  D(50,51,52,66)       -172.081                                          !
 ! D162  D(63,51,52,53)         68.1626                                         !
 ! D163  D(63,51,52,65)       -167.5967                                         !
 ! D164  D(63,51,52,66)        -51.3163                                         !
 ! D165  D(64,51,52,53)       -177.7356                                         !
 ! D166  D(64,51,52,65)        -53.495                                          !
 ! D167  D(64,51,52,66)         62.7854                                         !
 ! D168  D(51,52,53,54)         95.0137                                         !
 ! D169  D(51,52,53,67)       -104.5027                                         !
 ! D170  D(65,52,53,54)        -29.4151                                         !
 ! D171  D(65,52,53,67)        131.0685                                         !
 ! D172  D(66,52,53,54)       -144.7503                                         !
 ! D173  D(66,52,53,67)         15.7333                                         !
 ! D174  D(52,53,54,55)          0.0469                                         !
 ! D175  D(52,53,54,56)        179.8295                                         !
 ! D176  D(67,53,54,55)       -160.5395                                         !
 ! D177  D(67,53,54,56)         19.243                                          !
 ! D178  D(53,54,55,68)          9.0445                                         !
 ! D179  D(56,54,55,68)       -170.7272                                         !
 ! D180  D(53,54,56,69)         36.0759                                         !
 ! D181  D(53,54,56,70)        175.1283                                         !
 ! D182  D(55,54,56,69)       -144.1263                                         !
 ! D183  D(55,54,56,70)         -5.0739                                         !
 --------------------------------------------------------------------------------
 Symmetry turned off by external request.
 Stoichiometry    C23H36N7O4(1+)
 Framework group  C1[X(C23H36N7O4)]
 Deg. of freedom   204
 Full point group                 C1      NOp   1
                          Input orientation:                          
 ---------------------------------------------------------------------
 Center     Atomic      Atomic             Coordinates (Angstroms)
 Number     Number       Type             X           Y           Z
 ---------------------------------------------------------------------
      1          7           0      -97.769550  -14.274082    5.536260
      2          6           0      -96.384928  -14.198267    6.159755
      3          6           0      -95.612876  -12.993063    5.571939
      4          8           0      -95.684994  -11.908603    6.140360
      5          6           0      -95.724144  -15.588362    6.077989
      6          6           0      -96.648121  -16.663987    6.566228
      7          6           0      -97.181391  -17.677090    5.797143
      8          6           0      -97.192261  -16.821837    7.895837
      9          6           0      -98.045512  -17.957961    7.859417
     10          6           0      -97.035082  -16.124159    9.108068
     11          7           0      -98.015793  -18.453381    6.568054
     12          6           0      -98.744844  -18.404396    8.985577
     13          6           0      -97.727624  -16.563902   10.227878
     14          6           0      -98.575286  -17.690701   10.165442
     15          1           0      -98.229430  -15.119149    5.909735
     16          1           0      -96.572517  -13.931702    7.201067
     17          1           0      -95.413866  -15.808112    5.051247
     18          1           0      -94.813977  -15.532842    6.688304
     19          1           0      -96.997923  -17.910400    4.756581
     20          1           0      -98.488158  -19.288057    6.254585
     21          1           0      -96.367049  -15.268986    9.177101
     22          1           0      -99.391084  -19.276235    8.941098
     23          1           0      -97.612014  -16.039340   11.171488
     24          1           0      -99.100935  -18.010175   11.060102
     25          1           0      -98.316462  -13.435224    5.753242
     26          1           0      -97.754070  -14.335082    4.496640
     27          7           0      -94.922120  -13.198404    4.423936
     28          6           0      -93.905105  -12.240005    3.971122
     29          6           0      -94.495819  -10.849730    3.642639
     30          8           0      -93.960768   -9.820605    3.997517
     31          6           0      -92.679772  -12.115703    4.917914
     32          6           0      -91.468026  -11.571260    4.125614
     33          6           0      -92.342099  -13.467081    5.563842
     34          6           0      -90.366272  -10.992888    5.019017
     35          1           0      -94.876703  -14.136903    3.997956
     36          1           0      -93.539295  -12.651445    3.023771
     37          1           0      -92.940567  -11.396561    5.700547
     38          1           0      -91.061615  -12.385387    3.505525
     39          1           0      -91.799553  -10.785793    3.440428
     40          1           0      -91.397150  -13.401050    6.109595
     41          1           0      -93.103912  -13.788924    6.280457
     42          1           0      -92.234098  -14.255757    4.806644
     43          1           0      -89.965341  -11.734568    5.718590
     44          1           0      -90.751424  -10.150299    5.604052
     45          1           0      -89.529885  -10.626550    4.414604
     46          7           0      -95.678969  -10.747577    2.884298
     47          6           0      -96.368173  -11.741509    2.045486
     48          6           0      -97.304829  -12.555857    2.944984
     49          8           0      -97.669102  -13.705640    2.746039
     50          6           0      -95.466369  -12.558276    1.099099
     51          6           0      -96.169880  -13.300827   -0.063620
     52          6           0      -96.306119  -14.827936    0.099927
     53          7           0      -95.041956  -15.501495    0.400903
     54          6           0      -94.611678  -15.809560    1.670549
     55          7           0      -95.247314  -15.556927    2.779146
     56          7           0      -93.390992  -16.447476    1.713877
     57          8           0      -97.776285  -11.896654    4.010006
     58          1           0      -97.214658  -11.095437    4.139085
     59          1           0      -95.797245   -9.781017    2.596839
     60          1           0      -97.051437  -11.150962    1.418892
     61          1           0      -94.759910  -11.831950    0.684352
     62          1           0      -94.877437  -13.268942    1.675103
     63          1           0      -95.595574  -13.114004   -0.977615
     64          1           0      -97.171774  -12.889650   -0.244934
     65          1           0      -97.047878  -15.064233    0.865284
     66          1           0      -96.685241  -15.248466   -0.836338
     67          1           0      -94.608065  -16.014660   -0.354268
     68          1           0      -96.188496  -15.226975    2.578652
     69          1           0      -92.686720  -16.175904    1.040200
     70          1           0      -93.038220  -16.604550    2.648381
 ---------------------------------------------------------------------
 Rotational constants (GHZ):           0.1653782           0.0794645           0.0695118
 Standard basis: 6-31G(d) (6D, 7F)
   582 basis functions,  1096 primitive gaussians,   582 cartesian basis functions
   127 alpha electrons      127 beta electrons
       nuclear repulsion energy      3947.0814724842 Hartrees.
 NAtoms=   70 NActive=   70 NUniq=   70 SFac= 1.00D+00 NAtFMM=   60 NAOKFM=T Big=T
 Integral buffers will be    131072 words long.
 Raffenetti 2 integral format.
 Two-electron integral symmetry is turned off.
 Nuclear repulsion after empirical dispersion term =     3946.9805318481 Hartrees.
 One-electron integrals computed using PRISM.
 NBasis=   582 RedAO= T EigKep=  3.75D-04  NBF=   582
 NBsUse=   582 1.00D-06 EigRej= -1.00D+00 NBFU=   582
 Initial guess from the checkpoint file:  "conf-3.chk"
 B after Tr=     0.000000    0.000000    0.000000
         Rot=    1.000000    0.000000    0.000000    0.000000 Ang=   0.00 deg.
 Requested convergence on RMS density matrix=1.00D-08 within 128 cycles.
 Requested convergence on MAX density matrix=1.00D-06.
 Requested convergence on             energy=1.00D-06.
 No special actions if energy rises.
 SCF Done:  E(RB3LYP) =  -1582.22703697     A.U. after    1 cycles
            NFock=  1  Conv=0.48D-08     -V/T= 2.0095

 **********************************************************************

            Population analysis using the SCF Density.

 **********************************************************************

 Alpha  occ. eigenvalues --  -19.32897 -19.28443 -19.23684 -19.22868 -14.57527
 Alpha  occ. eigenvalues --  -14.48040 -14.47925 -14.47203 -14.46461 -14.45252
 Alpha  occ. eigenvalues --  -14.39825 -10.46273 -10.41094 -10.40379 -10.40063
 Alpha  occ. eigenvalues --  -10.37904 -10.37476 -10.34269 -10.32908 -10.32424
 Alpha  occ. eigenvalues --  -10.31355 -10.31042 -10.30804 -10.29908 -10.28945
 Alpha  occ. eigenvalues --  -10.28175 -10.27795 -10.27791 -10.27768 -10.27140
 Alpha  occ. eigenvalues --  -10.26872 -10.26354 -10.25721 -10.24046  -1.24510
 Alpha  occ. eigenvalues --   -1.16100  -1.15803  -1.14997  -1.12156  -1.08997
 Alpha  occ. eigenvalues --   -1.07814  -1.04482  -1.03388  -0.99766  -0.95288
 Alpha  occ. eigenvalues --   -0.93289  -0.92114  -0.90973  -0.89865  -0.87108
 Alpha  occ. eigenvalues --   -0.85633  -0.82993  -0.82640  -0.81579  -0.79883
 Alpha  occ. eigenvalues --   -0.79336  -0.77905  -0.74703  -0.73000  -0.72768
 Alpha  occ. eigenvalues --   -0.71660  -0.71521  -0.70975  -0.70247  -0.69043
 Alpha  occ. eigenvalues --   -0.68539  -0.68243  -0.66539  -0.66307  -0.65252
 Alpha  occ. eigenvalues --   -0.64234  -0.64075  -0.63605  -0.63213  -0.62252
 Alpha  occ. eigenvalues --   -0.61552  -0.59987  -0.58980  -0.58436  -0.57843
 Alpha  occ. eigenvalues --   -0.56780  -0.56607  -0.56463  -0.55721  -0.55438
 Alpha  occ. eigenvalues --   -0.55164  -0.54165  -0.53621  -0.53494  -0.52954
 Alpha  occ. eigenvalues --   -0.52276  -0.52095  -0.52044  -0.51509  -0.50818
 Alpha  occ. eigenvalues --   -0.50707  -0.50271  -0.49910  -0.49685  -0.49330
 Alpha  occ. eigenvalues --   -0.49082  -0.48672  -0.47477  -0.46965  -0.46271
 Alpha  occ. eigenvalues --   -0.46047  -0.45694  -0.45110  -0.44830  -0.44360
 Alpha  occ. eigenvalues --   -0.43597  -0.42822  -0.42543  -0.42418  -0.42129
 Alpha  occ. eigenvalues --   -0.40605  -0.40260  -0.38680  -0.37977  -0.37649
 Alpha  occ. eigenvalues --   -0.37522  -0.36759  -0.36326  -0.35294  -0.33945
 Alpha  occ. eigenvalues --   -0.31651  -0.30217
 Alpha virt. eigenvalues --   -0.14127  -0.11662  -0.10586  -0.09816  -0.06734
 Alpha virt. eigenvalues --   -0.06537  -0.06205  -0.04096  -0.04077  -0.03602
 Alpha virt. eigenvalues --   -0.01845  -0.01510  -0.01287  -0.00764  -0.00566
 Alpha virt. eigenvalues --   -0.00116   0.00503   0.01326   0.01735   0.02188
 Alpha virt. eigenvalues --    0.02573   0.03216   0.03296   0.03829   0.04278
 Alpha virt. eigenvalues --    0.05087   0.05122   0.05461   0.05867   0.06312
 Alpha virt. eigenvalues --    0.06851   0.07122   0.07211   0.07773   0.08267
 Alpha virt. eigenvalues --    0.08386   0.08487   0.08741   0.09408   0.09922
 Alpha virt. eigenvalues --    0.10173   0.10762   0.10886   0.11252   0.11681
 Alpha virt. eigenvalues --    0.11914   0.12146   0.13013   0.13330   0.13791
 Alpha virt. eigenvalues --    0.14093   0.14383   0.15127   0.15546   0.16223
 Alpha virt. eigenvalues --    0.16954   0.17077   0.17462   0.18466   0.18825
 Alpha virt. eigenvalues --    0.19546   0.19870   0.20976   0.21074   0.22133
 Alpha virt. eigenvalues --    0.22879   0.24207   0.24969   0.25718   0.26503
 Alpha virt. eigenvalues --    0.26973   0.27392   0.28485   0.31092   0.31806
 Alpha virt. eigenvalues --    0.33816   0.34208   0.34718   0.36165   0.37576
 Alpha virt. eigenvalues --    0.39213   0.40535   0.41116   0.41935   0.42619
 Alpha virt. eigenvalues --    0.42683   0.43115   0.43666   0.44055   0.44428
 Alpha virt. eigenvalues --    0.45081   0.45604   0.46116   0.46313   0.46508
 Alpha virt. eigenvalues --    0.47043   0.47260   0.47615   0.47796   0.48575
 Alpha virt. eigenvalues --    0.48982   0.49274   0.50190   0.50419   0.51116
 Alpha virt. eigenvalues --    0.51493   0.51765   0.52402   0.52610   0.52801
 Alpha virt. eigenvalues --    0.53082   0.53249   0.53666   0.54013   0.54536
 Alpha virt. eigenvalues --    0.54549   0.54862   0.55528   0.56871   0.57103
 Alpha virt. eigenvalues --    0.57695   0.58182   0.58363   0.58762   0.59445
 Alpha virt. eigenvalues --    0.59816   0.60033   0.60768   0.61649   0.62732
 Alpha virt. eigenvalues --    0.63355   0.64154   0.64836   0.65460   0.66390
 Alpha virt. eigenvalues --    0.66958   0.67742   0.67948   0.68396   0.69035
 Alpha virt. eigenvalues --    0.70707   0.71067   0.71457   0.72422   0.72721
 Alpha virt. eigenvalues --    0.72990   0.73186   0.73362   0.73654   0.74524
 Alpha virt. eigenvalues --    0.74772   0.74787   0.75114   0.75409   0.76309
 Alpha virt. eigenvalues --    0.76720   0.76865   0.77302   0.77486   0.77657
 Alpha virt. eigenvalues --    0.78329   0.78635   0.79078   0.79657   0.80246
 Alpha virt. eigenvalues --    0.80633   0.80993   0.81318   0.81752   0.82247
 Alpha virt. eigenvalues --    0.82392   0.82744   0.83376   0.83974   0.84545
 Alpha virt. eigenvalues --    0.85050   0.85466   0.85731   0.86039   0.86927
 Alpha virt. eigenvalues --    0.87626   0.88149   0.88560   0.88772   0.89200
 Alpha virt. eigenvalues --    0.89608   0.89898   0.90075   0.90618   0.91579
 Alpha virt. eigenvalues --    0.91870   0.92316   0.92528   0.93414   0.93926
 Alpha virt. eigenvalues --    0.94847   0.95290   0.97030   0.97671   0.97931
 Alpha virt. eigenvalues --    0.98576   0.99529   1.00885   1.01896   1.02593
 Alpha virt. eigenvalues --    1.03664   1.04363   1.05960   1.06144   1.07100
 Alpha virt. eigenvalues --    1.07753   1.08778   1.09767   1.10360   1.11035
 Alpha virt. eigenvalues --    1.11654   1.12085   1.13650   1.15338   1.15767
 Alpha virt. eigenvalues --    1.16038   1.17408   1.17965   1.19669   1.20337
 Alpha virt. eigenvalues --    1.20790   1.22272   1.23305   1.24092   1.24125
 Alpha virt. eigenvalues --    1.25792   1.26654   1.26956   1.27678   1.28665
 Alpha virt. eigenvalues --    1.30780   1.31152   1.31340   1.31957   1.32703
 Alpha virt. eigenvalues --    1.34046   1.34790   1.36385   1.37545   1.37903
 Alpha virt. eigenvalues --    1.38636   1.39171   1.40200   1.40757   1.41774
 Alpha virt. eigenvalues --    1.41808   1.43617   1.45244   1.46756   1.46996
 Alpha virt. eigenvalues --    1.48575   1.49079   1.51698   1.51895   1.52533
 Alpha virt. eigenvalues --    1.53108   1.54063   1.54485   1.55886   1.56359
 Alpha virt. eigenvalues --    1.56656   1.58301   1.59011   1.60519   1.61633
 Alpha virt. eigenvalues --    1.62717   1.63468   1.64616   1.64882   1.65857
 Alpha virt. eigenvalues --    1.67092   1.67301   1.67807   1.68322   1.69128
 Alpha virt. eigenvalues --    1.69508   1.70422   1.71114   1.71854   1.71886
 Alpha virt. eigenvalues --    1.72776   1.74101   1.74256   1.74456   1.75132
 Alpha virt. eigenvalues --    1.75574   1.76987   1.78449   1.78753   1.80017
 Alpha virt. eigenvalues --    1.80702   1.81551   1.81808   1.82540   1.82607
 Alpha virt. eigenvalues --    1.82881   1.84011   1.85098   1.85452   1.86322
 Alpha virt. eigenvalues --    1.86917   1.87256   1.87891   1.88772   1.90001
 Alpha virt. eigenvalues --    1.90418   1.90698   1.91103   1.92099   1.92335
 Alpha virt. eigenvalues --    1.92650   1.93267   1.93851   1.94461   1.95084
 Alpha virt. eigenvalues --    1.95507   1.96767   1.97494   1.97750   1.98045
 Alpha virt. eigenvalues --    1.99190   1.99677   2.02357   2.03135   2.04368
 Alpha virt. eigenvalues --    2.04585   2.05528   2.05942   2.07367   2.07704
 Alpha virt. eigenvalues --    2.08000   2.08895   2.10045   2.11089   2.14094
 Alpha virt. eigenvalues --    2.14616   2.15207   2.16114   2.16564   2.17519
 Alpha virt. eigenvalues --    2.18374   2.18852   2.19568   2.20447   2.21292
 Alpha virt. eigenvalues --    2.22419   2.22754   2.24045   2.24448   2.25165
 Alpha virt. eigenvalues --    2.26859   2.27950   2.28308   2.29168   2.29940
 Alpha virt. eigenvalues --    2.30686   2.31848   2.32707   2.34630   2.35509
 Alpha virt. eigenvalues --    2.35950   2.37412   2.38356   2.38688   2.40523
 Alpha virt. eigenvalues --    2.40942   2.41489   2.42610   2.43713   2.44401
 Alpha virt. eigenvalues --    2.45735   2.45935   2.46524   2.46989   2.47384
 Alpha virt. eigenvalues --    2.48892   2.50242   2.51762   2.52236   2.52998
 Alpha virt. eigenvalues --    2.53687   2.54511   2.56159   2.57249   2.57682
 Alpha virt. eigenvalues --    2.58510   2.59362   2.59493   2.59950   2.62657
 Alpha virt. eigenvalues --    2.65038   2.65617   2.67594   2.68007   2.69313
 Alpha virt. eigenvalues --    2.70934   2.71558   2.73118   2.74707   2.77915
 Alpha virt. eigenvalues --    2.78440   2.82325   2.83372   2.87527   2.88586
 Alpha virt. eigenvalues --    2.89203   2.90918   2.92338   2.94373   2.96769
 Alpha virt. eigenvalues --    2.99638   3.03391   3.03992   3.06456   3.15466
 Alpha virt. eigenvalues --    3.34960   3.70929   3.73238   3.78771   3.86372
 Alpha virt. eigenvalues --    3.88510   3.94049   3.95987   3.97929   4.00714
 Alpha virt. eigenvalues --    4.03552   4.06412   4.08136   4.08934   4.10787
 Alpha virt. eigenvalues --    4.12529   4.14050   4.18224   4.20314   4.23790
 Alpha virt. eigenvalues --    4.24990   4.27192   4.31320   4.31701   4.34582
 Alpha virt. eigenvalues --    4.35573   4.37614   4.42203   4.46195   4.47915
 Alpha virt. eigenvalues --    4.53375   4.55420   4.61928   4.63708   4.70748
          Condensed to atoms (all electrons):
 Mulliken charges:
               1
     1  N   -0.759706
     2  C   -0.118730
     3  C    0.608154
     4  O   -0.510687
     5  C   -0.403367
     6  C   -0.020959
     7  C   -0.003295
     8  C    0.084063
     9  C    0.310272
    10  C   -0.219414
    11  N   -0.678062
    12  C   -0.156030
    13  C   -0.135869
    14  C   -0.147719
    15  H    0.404957
    16  H    0.222640
    17  H    0.224862
    18  H    0.195456
    19  H    0.177633
    20  H    0.346486
    21  H    0.133029
    22  H    0.148326
    23  H    0.148785
    24  H    0.153294
    25  H    0.418241
    26  H    0.429506
    27  N   -0.668814
    28  C   -0.071608
    29  C    0.630083
    30  O   -0.451451
    31  C   -0.067802
    32  C   -0.268301
    33  C   -0.468636
    34  C   -0.454094
    35  H    0.409924
    36  H    0.171429
    37  H    0.179333
    38  H    0.119744
    39  H    0.157597
    40  H    0.175080
    41  H    0.141659
    42  H    0.126610
    43  H    0.148453
    44  H    0.165946
    45  H    0.157494
    46  N   -0.694502
    47  C   -0.059957
    48  C    0.655331
    49  O   -0.514340
    50  C   -0.288946
    51  C   -0.262609
    52  C   -0.169414
    53  N   -0.600051
    54  C    0.631927
    55  N   -0.752997
    56  N   -0.744854
    57  O   -0.586559
    58  H    0.459662
    59  H    0.358861
    60  H    0.207119
    61  H    0.171230
    62  H    0.171377
    63  H    0.163477
    64  H    0.154288
    65  H    0.186188
    66  H    0.172556
    67  H    0.342813
    68  H    0.324234
    69  H    0.339871
    70  H    0.350783
 Sum of Mulliken charges =   1.00000
 Mulliken charges with hydrogens summed into heavy atoms:
               1
     1  N    0.492998
     2  C    0.103910
     3  C    0.608154
     4  O   -0.510687
     5  C    0.016952
     6  C   -0.020959
     7  C    0.174339
     8  C    0.084063
     9  C    0.310272
    10  C   -0.086386
    11  N   -0.331576
    12  C   -0.007704
    13  C    0.012915
    14  C    0.005575
    27  N   -0.258890
    28  C    0.099821
    29  C    0.630083
    30  O   -0.451451
    31  C    0.111531
    32  C    0.009039
    33  C   -0.025287
    34  C    0.017800
    46  N   -0.335640
    47  C    0.147162
    48  C    0.655331
    49  O   -0.514340
    50  C    0.053661
    51  C    0.055155
    52  C    0.189330
    53  N   -0.257238
    54  C    0.631927
    55  N   -0.428763
    56  N   -0.054200
    57  O   -0.126897
 Electronic spatial extent (au):  <R**2>=        8519558.8550
 Charge=              1.0000 electrons
 Dipole moment (field-independent basis, Debye):
    X=           -463.7982    Y=            -72.0835    Z=             15.9912  Tot=            469.6388
 Quadrupole moment (field-independent basis, Debye-Ang):
   XX=          44616.0134   YY=            906.7618   ZZ=            -94.9987
   XY=           6962.7449   XZ=          -1568.5344   YZ=           -262.4013
 Traceless Quadrupole moment (field-independent basis, Debye-Ang):
   XX=          29473.4212   YY=         -14235.8304   ZZ=         -15237.5909
   XY=           6962.7449   XZ=          -1568.5344   YZ=           -262.4013
 Octapole moment (field-independent basis, Debye-Ang**2):
  XXX=       -4276042.5711  YYY=          -8903.3450  ZZZ=          -2011.7251  XYY=         -87911.5878
  XXY=        -670209.2749  XXZ=         153001.2374  XZZ=           8795.3205  YZZ=           1066.3183
  YYZ=           3399.8042  XYZ=          25752.9768
 Hexadecapole moment (field-independent basis, Debye-Ang**3):
 XXXX=      408305460.7500 YYYY=          32285.3187 ZZZZ=         -28446.0770 XXXY=       64289790.7253
 XXXZ=      -14845286.5310 YYYX=         871858.5323 YYYZ=         -31111.2319 ZZZX=         191194.9162
 ZZZY=          28186.6168 XXYY=        8488309.0187 XXZZ=        -819074.6429 YYZZ=         -17559.8420
 XXYZ=       -2514894.2400 YYXZ=        -336344.5182 ZZXY=         -97500.0318
 N-N= 3.946980531848D+03 E-N=-1.154733012301D+04  KE= 1.567343480164D+03
 Unable to Open any file for archive entry.
 1\1\GINC-QML-003\SP\RB3LYP\6-31G(d)\C23H36N7O4(1+)\KENGMITH\24-May-202
 2\0\\# B3LYP/6-31G* empiricaldispersion=gd3 guess=read geom=check nosy
 mm integral(ultrafinegrid)\\Candidate Structure: Conf:3 Charge calc in
  gas phase\\1,1\N,0,-97.7695502395,-14.2740819821,5.5362598841\C,0,-96
 .3849279866,-14.198266619,6.159754722\C,0,-95.6128755807,-12.993063155
 1,5.5719386289\O,0,-95.6849942748,-11.9086025155,6.1403602638\C,0,-95.
 7241442183,-15.5883618565,6.0779888766\C,0,-96.6481205691,-16.66398748
 76,6.5662282473\C,0,-97.1813911772,-17.677089866,5.7971427697\C,0,-97.
 1922605095,-16.8218368136,7.8958374887\C,0,-98.0455124795,-17.95796093
 62,7.8594166718\C,0,-97.0350816082,-16.1241594107,9.1080679794\N,0,-98
 .0157934929,-18.4533808962,6.5680542053\C,0,-98.7448441421,-18.4043959
 501,8.9855769069\C,0,-97.7276241701,-16.5639018879,10.2278780535\C,0,-
 98.5752858176,-17.6907013327,10.1654422717\H,0,-98.2294295023,-15.1191
 485869,5.9097351394\H,0,-96.5725167213,-13.9317016117,7.201067316\H,0,
 -95.4138660742,-15.8081124775,5.0512467635\H,0,-94.8139765005,-15.5328
 419657,6.6883035005\H,0,-96.9979232149,-17.9104001997,4.7565811639\H,0
 ,-98.4881583705,-19.2880572874,6.2545854571\H,0,-96.3670490466,-15.268
 9856321,9.1771006713\H,0,-99.3910836912,-19.2762354471,8.9410976772\H,
 0,-97.6120141839,-16.0393396119,11.1714877044\H,0,-99.1009351251,-18.0
 101748646,11.0601018759\H,0,-98.3164620103,-13.4352236046,5.7532417803
 \H,0,-97.7540696607,-14.3350824828,4.4966399987\N,0,-94.922120316,-13.
 1984040989,4.4239355799\C,0,-93.905104867,-12.2400052164,3.9711216276\
 C,0,-94.4958192513,-10.8497297911,3.6426389624\O,0,-93.9607679851,-9.8
 206052748,3.9975166903\C,0,-92.6797716607,-12.1157034738,4.9179136978\
 C,0,-91.4680263269,-11.571259607,4.1256143733\C,0,-92.3420990838,-13.4
 670808184,5.5638421787\C,0,-90.3662721676,-10.9928878752,5.0190170432\
 H,0,-94.8767026046,-14.1369026616,3.9979558167\H,0,-93.5392954654,-12.
 6514450404,3.0237714556\H,0,-92.9405671777,-11.3965614154,5.7005469485
 \H,0,-91.0616145413,-12.3853870086,3.5055249629\H,0,-91.7995529713,-10
 .7857933689,3.440428375\H,0,-91.3971504013,-13.4010495554,6.1095952425
 \H,0,-93.1039122259,-13.7889239897,6.2804573492\H,0,-92.2340981267,-14
 .2557567712,4.8066439505\H,0,-89.9653410349,-11.734567847,5.7185896813
 \H,0,-90.7514244093,-10.1502993119,5.604052188\H,0,-89.5298851246,-10.
 6265496442,4.4146040481\N,0,-95.6789686515,-10.7475770642,2.8842978392
 \C,0,-96.3681733614,-11.7415091237,2.0454864673\C,0,-97.3048294012,-12
 .5558573902,2.9449842176\O,0,-97.6691019829,-13.7056396412,2.746039434
 5\C,0,-95.4663694955,-12.5582761126,1.0990988131\C,0,-96.1698804621,-1
 3.3008271273,-0.0636202131\C,0,-96.306119001,-14.827935596,0.099927082
 5\N,0,-95.0419562065,-15.5014950879,0.4009025104\C,0,-94.6116781982,-1
 5.809559524,1.6705486092\N,0,-95.2473138762,-15.5569267716,2.779146426
 2\N,0,-93.3909919211,-16.4474758562,1.7138771223\O,0,-97.7762846505,-1
 1.8966539949,4.0100060215\H,0,-97.2146584641,-11.0954374717,4.13908548
 43\H,0,-95.7972452069,-9.7810170624,2.5968388882\H,0,-97.0514373322,-1
 1.1509617851,1.4188915083\H,0,-94.7599104294,-11.831949614,0.684351999
 3\H,0,-94.8774374888,-13.2689416151,1.6751034279\H,0,-95.5955739869,-1
 3.1140043763,-0.9776149624\H,0,-97.1717742751,-12.8896497268,-0.244934
 1019\H,0,-97.0478780064,-15.0642332559,0.8652837935\H,0,-96.6852410867
 ,-15.2484664264,-0.8363381944\H,0,-94.6080646279,-16.014660254,-0.3542
 679481\H,0,-96.1884963513,-15.2269752196,2.5786524498\H,0,-92.68671973
 24,-16.1759044315,1.0401999282\H,0,-93.0382200547,-16.60455001,2.64838
 0957\\Version=ES64L-G16RevC.01\HF=-1582.227037\RMSD=4.830e-09\Dipole=-
 1.6787464,-1.6003588,-2.4257943\Quadrupole=21912.7662913,-10583.990956
 9,-11328.7753344,5176.630179,-1166.1668997,-195.0889108\PG=C01 [X(C23H
 36N7O4)]\\@
 The archive entry for this job was punched.


 THERE'S SMALL CHOICE IN A BOWL OF ROTTEN APPLES.
                     SHAKESPEARE
 Job cpu time:       0 days  0 hours  2 minutes 47.4 seconds.
 Elapsed time:       0 days  0 hours  0 minutes 42.4 seconds.
 File lengths (MBytes):  RWF=    296 Int=      0 D2E=      0 Chk=     40 Scr=     16
 Normal termination of Gaussian 16 at Tue May 24 23:12:50 2022.
