 Entering Gaussian System, Link 0=/opt/software/Gaussian/g16-AVX2-C.01/g16/g16
 Input=charge-conf-879.com
 Output=charge-conf-879.log
 Initial command:
 /opt/software/Gaussian/g16-AVX2-C.01/g16/l1.exe "/mnt/gs18/scratch/users/kengmith/Gau-17410.inp" -scrdir="/mnt/gs18/scratch/users/kengmith/"
 Entering Link 1 = /opt/software/Gaussian/g16-AVX2-C.01/g16/l1.exe PID=     17420.
  
 Copyright (c) 1988-2019, Gaussian, Inc.  All Rights Reserved.
  
 This is part of the Gaussian(R) 16 program.  It is based on
 the Gaussian(R) 09 system (copyright 2009, Gaussian, Inc.),
 the Gaussian(R) 03 system (copyright 2003, Gaussian, Inc.),
 the Gaussian(R) 98 system (copyright 1998, Gaussian, Inc.),
 the Gaussian(R) 94 system (copyright 1995, Gaussian, Inc.),
 the Gaussian 92(TM) system (copyright 1992, Gaussian, Inc.),
 the Gaussian 90(TM) system (copyright 1990, Gaussian, Inc.),
 the Gaussian 88(TM) system (copyright 1988, Gaussian, Inc.),
 the Gaussian 86(TM) system (copyright 1986, Carnegie Mellon
 University), and the Gaussian 82(TM) system (copyright 1983,
 Carnegie Mellon University). Gaussian is a federally registered
 trademark of Gaussian, Inc.
  
 This software contains proprietary and confidential information,
 including trade secrets, belonging to Gaussian, Inc.
  
 This software is provided under written license and may be
 used, copied, transmitted, or stored only in accord with that
 written license.
  
 The following legend is applicable only to US Government
 contracts under FAR:
  
                    RESTRICTED RIGHTS LEGEND
  
 Use, reproduction and disclosure by the US Government is
 subject to restrictions as set forth in subparagraphs (a)
 and (c) of the Commercial Computer Software - Restricted
 Rights clause in FAR 52.227-19.
  
 Gaussian, Inc.
 340 Quinnipiac St., Bldg. 40, Wallingford CT 06492
  
  
 ---------------------------------------------------------------
 Warning -- This program may not be used in any manner that
 competes with the business of Gaussian, Inc. or will provide
 assistance to any competitor of Gaussian, Inc.  The licensee
 of this program is prohibited from giving any competitor of
 Gaussian, Inc. access to this program.  By using this program,
 the user acknowledges that Gaussian, Inc. is engaged in the
 business of creating and licensing software in the field of
 computational chemistry and represents and warrants to the
 licensee that it is not a competitor of Gaussian, Inc. and that
 it will not use this program in any manner prohibited above.
 ---------------------------------------------------------------
  

 Cite this work as:
 Gaussian 16, Revision C.01,
 M. J. Frisch, G. W. Trucks, H. B. Schlegel, G. E. Scuseria, 
 M. A. Robb, J. R. Cheeseman, G. Scalmani, V. Barone, 
 G. A. Petersson, H. Nakatsuji, X. Li, M. Caricato, A. V. Marenich, 
 J. Bloino, B. G. Janesko, R. Gomperts, B. Mennucci, H. P. Hratchian, 
 J. V. Ortiz, A. F. Izmaylov, J. L. Sonnenberg, D. Williams-Young, 
 F. Ding, F. Lipparini, F. Egidi, J. Goings, B. Peng, A. Petrone, 
 T. Henderson, D. Ranasinghe, V. G. Zakrzewski, J. Gao, N. Rega, 
 G. Zheng, W. Liang, M. Hada, M. Ehara, K. Toyota, R. Fukuda, 
 J. Hasegawa, M. Ishida, T. Nakajima, Y. Honda, O. Kitao, H. Nakai, 
 T. Vreven, K. Throssell, J. A. Montgomery, Jr., J. E. Peralta, 
 F. Ogliaro, M. J. Bearpark, J. J. Heyd, E. N. Brothers, K. N. Kudin, 
 V. N. Staroverov, T. A. Keith, R. Kobayashi, J. Normand, 
 K. Raghavachari, A. P. Rendell, J. C. Burant, S. S. Iyengar, 
 J. Tomasi, M. Cossi, J. M. Millam, M. Klene, C. Adamo, R. Cammi, 
 J. W. Ochterski, R. L. Martin, K. Morokuma, O. Farkas, 
 J. B. Foresman, and D. J. Fox, Gaussian, Inc., Wallingford CT, 2019.
 
 ******************************************
 Gaussian 16:  ES64L-G16RevC.01  3-Jul-2019
                 3-Jun-2022 
 ******************************************
 %mem=8gb
 %nproc=4
 Will use up to    4 processors via shared memory.
 %chk=conf-879.chk
 ----------------------------------------------------------------------
 # B3LYP/6-31G* empiricaldispersion=gd3 guess=read geom=check nosymm in
 tegral(ultrafinegrid)
 ----------------------------------------------------------------------
 1/29=2,38=1,172=1/1;
 2/12=2,15=1,40=1/2;
 3/5=1,6=6,7=1,11=2,14=-4,25=1,30=1,74=-5,75=-5,116=-2,124=31/1,2,3;
 4/5=1/1;
 5/5=2,38=6/2;
 6/7=2,8=2,9=2,10=2,28=1/1;
 99/5=1,9=1/99;
 ------------------------------------------------------
 Candidate Structure: Conf:879 Charge calc in gas phase
 ------------------------------------------------------
 Structure from the checkpoint file:  "conf-879.chk"
 Charge =  1 Multiplicity = 1
 Redundant internal coordinates found in file.  (old form).
 N,0,-9.4683070135,-3.5128331639,-7.576166231
 C,0,-8.4242380618,-3.6999825691,-6.5548858175
 C,0,-8.0357844079,-2.279050011,-6.1213162346
 O,0,-8.9067371471,-1.5236941001,-5.702537734
 C,0,-7.2772026249,-4.5598081803,-7.1201945329
 C,0,-7.8255667386,-5.810394088,-7.8025239363
 N,0,-7.2432806757,-6.1319165539,-9.0347691629
 O,0,-8.755998158,-6.451853428,-7.3555063996
 H,0,-8.8017827562,-4.1887149,-5.6437643834
 H,0,-6.6846422246,-3.9891931559,-7.8374946565
 H,0,-6.6237840756,-4.8849127062,-6.2988870485
 H,0,-7.4178247128,-7.0909121421,-9.3238823228
 H,0,-6.2939928756,-5.8132290897,-9.2001404155
 H,0,-9.9679228805,-4.3923983637,-7.6971333301
 H,0,-10.1432438805,-2.8418547242,-7.2105367552
 N,0,-6.7377331513,-1.8671516349,-6.2976609093
 C,0,-6.2505344973,-0.6458916537,-5.6421652045
 C,0,-5.7701027957,0.3139599733,-6.7417143607
 O,0,-4.5593668112,0.4685910403,-6.9782851022
 C,0,-5.1385083159,-0.972632339,-4.6194451983
 C,0,-5.5029374793,-2.1991220073,-3.8115348637
 C,0,-6.5747951461,-2.1739870273,-2.9092787401
 C,0,-4.8474110675,-3.4159065533,-4.0420154473
 C,0,-6.9878434343,-3.3385661748,-2.2619712592
 C,0,-5.2564464287,-4.5848732715,-3.3938608444
 C,0,-6.3335566518,-4.5491106054,-2.506805558
 H,0,-6.0427700707,-2.5935381548,-6.4119195376
 H,0,-7.1131526352,-0.2200027517,-5.1250871307
 H,0,-4.1973212137,-1.1259620754,-5.1560811018
 H,0,-4.9916727024,-0.0929233804,-3.9827566467
 H,0,-7.0989279383,-1.2397925508,-2.7215894837
 H,0,-3.9993554044,-3.4462601155,-4.7242616055
 H,0,-7.82122852,-3.3018745196,-1.5663418716
 H,0,-4.7286198535,-5.5174277123,-3.5743669218
 H,0,-6.6554585108,-5.4549634516,-2.0015934219
 N,0,-6.6936956863,0.9243287327,-7.5174682484
 C,0,-8.152647431,0.9683653627,-7.4898708694
 C,0,-8.8201984351,0.1742205277,-8.6404111024
 O,0,-9.9452112852,0.4840198498,-9.0173269422
 C,0,-8.629287685,2.4298493944,-7.5892259464
 C,0,-8.2602793839,3.0497511911,-8.9385197117
 N,0,-9.0470765199,4.0521327856,-9.3684359306
 O,0,-7.2669127241,2.6745955304,-9.5831342876
 H,0,-6.3192954685,1.5098431512,-8.2576433015
 H,0,-8.5239233822,0.5221316591,-6.564285155
 H,0,-8.1593771787,3.0209837943,-6.7942810675
 H,0,-9.7108312067,2.4580751136,-7.4418680987
 H,0,-8.8331978235,4.4962467938,-10.251915738
 H,0,-9.9114549796,4.2958120197,-8.9068057492
 N,0,-8.1044278108,-0.8378444963,-9.1956144314
 C,0,-8.7455482182,-1.7443891328,-10.1478319124
 C,0,-7.948411144,-3.0361544734,-10.1829856328
 O,0,-6.7407678453,-3.1010903941,-9.9273321399
 C,0,-8.9669841794,-1.1141949642,-11.5488685807
 C,0,-7.76116984,-0.8177283038,-12.4598522208
 C,0,-6.6779481562,0.1202585006,-11.903950847
 N,0,-5.7633828538,-0.6525334726,-11.0534677413
 C,0,-4.9421199072,-0.179366458,-10.1222236923
 N,0,-4.6943675627,1.1347305407,-9.9873737374
 N,0,-4.281326441,-1.0547778399,-9.3329298105
 O,0,-8.6640694148,-4.0833116225,-10.538420197
 H,0,-8.1427984738,-4.9019586828,-10.3281244883
 H,0,-7.2769528486,-1.1660756751,-8.715494799
 H,0,-9.7338946427,-2.0021725483,-9.7605321062
 H,0,-9.6412591226,-1.784900883,-12.0937632513
 H,0,-9.525371784,-0.1919402263,-11.3637623608
 H,0,-7.2843200549,-1.750216052,-12.7952191484
 H,0,-8.1600116274,-0.3548654006,-13.3690263752
 H,0,-6.1043718963,0.5641772881,-12.7253590353
 H,0,-7.1367724715,0.9274351068,-11.3215286839
 H,0,-5.9797903695,-1.6402415833,-10.9517481049
 H,0,-4.1951948525,1.4166432228,-9.1494877252
 H,0,-5.3682580951,1.8059940215,-10.3403082683
 H,0,-3.9844986446,-0.7101538987,-8.4202282372
 H,0,-4.580774302,-2.020814067,-9.3713930142
 Recover connectivity data from disk.
                           ----------------------------
                           !    Current Parameters    !
                           ! (Angstroms and Degrees)  !
 --------------------------                            --------------------------
 ! Name  Definition              Value                                          !
 --------------------------------------------------------------------------------
 ! R1    R(1,2)                  1.4725                                         !
 ! R2    R(1,14)                 1.0188                                         !
 ! R3    R(1,15)                 1.0195                                         !
 ! R4    R(2,3)                  1.5356                                         !
 ! R5    R(2,5)                  1.541                                          !
 ! R6    R(2,9)                  1.1007                                         !
 ! R7    R(3,4)                  1.2266                                         !
 ! R8    R(3,16)                 1.3732                                         !
 ! R9    R(5,6)                  1.5265                                         !
 ! R10   R(5,10)                 1.0914                                         !
 ! R11   R(5,11)                 1.0987                                         !
 ! R12   R(6,7)                  1.4003                                         !
 ! R13   R(6,8)                  1.2153                                         !
 ! R14   R(7,12)                 1.0167                                         !
 ! R15   R(7,13)                 1.0149                                         !
 ! R16   R(16,17)                1.4692                                         !
 ! R17   R(16,27)                1.0118                                         !
 ! R18   R(17,18)                1.5366                                         !
 ! R19   R(17,20)                1.5457                                         !
 ! R20   R(17,28)                1.0922                                         !
 ! R21   R(18,19)                1.2433                                         !
 ! R22   R(18,36)                1.3518                                         !
 ! R23   R(20,21)                1.5132                                         !
 ! R24   R(20,29)                1.0942                                         !
 ! R25   R(20,30)                1.0958                                         !
 ! R26   R(21,22)                1.4013                                         !
 ! R27   R(21,23)                1.4012                                         !
 ! R28   R(22,24)                1.3949                                         !
 ! R29   R(22,31)                1.0875                                         !
 ! R30   R(23,25)                1.3978                                         !
 ! R31   R(23,32)                1.0888                                         !
 ! R32   R(24,26)                1.3977                                         !
 ! R33   R(24,33)                1.0862                                         !
 ! R34   R(25,26)                1.3958                                         !
 ! R35   R(25,34)                1.0867                                         !
 ! R36   R(26,35)                1.086                                          !
 ! R37   R(36,37)                1.4599                                         !
 ! R38   R(36,44)                1.0153                                         !
 ! R39   R(37,38)                1.5492                                         !
 ! R40   R(37,40)                1.5405                                         !
 ! R41   R(37,45)                1.0926                                         !
 ! R42   R(38,39)                1.2263                                         !
 ! R43   R(38,50)                1.3583                                         !
 ! R44   R(40,41)                1.53                                           !
 ! R45   R(40,46)                1.0964                                         !
 ! R46   R(40,47)                1.0919                                         !
 ! R47   R(41,42)                1.3449                                         !
 ! R48   R(41,43)                1.2422                                         !
 ! R49   R(42,48)                1.0117                                         !
 ! R50   R(42,49)                1.0098                                         !
 ! R51   R(50,51)                1.4627                                         !
 ! R52   R(50,63)                1.0114                                         !
 ! R53   R(51,52)                1.5183                                         !
 ! R54   R(51,54)                1.5521                                         !
 ! R55   R(51,64)                1.0924                                         !
 ! R56   R(52,53)                1.2361                                         !
 ! R57   R(52,61)                1.3172                                         !
 ! R58   R(54,55)                1.5401                                         !
 ! R59   R(54,65)                1.0961                                         !
 ! R60   R(54,66)                1.0939                                         !
 ! R61   R(55,56)                1.5369                                         !
 ! R62   R(55,67)                1.0997                                         !
 ! R63   R(55,68)                1.0954                                         !
 ! R64   R(56,57)                1.4687                                         !
 ! R65   R(56,69)                1.0958                                         !
 ! R66   R(56,70)                1.096                                          !
 ! R67   R(57,58)                1.3287                                         !
 ! R68   R(57,71)                1.0162                                         !
 ! R69   R(58,59)                1.344                                          !
 ! R70   R(58,60)                1.3513                                         !
 ! R71   R(59,72)                1.0152                                         !
 ! R72   R(59,73)                1.0145                                         !
 ! R73   R(60,74)                1.0198                                         !
 ! R74   R(60,75)                1.0121                                         !
 ! R75   R(61,62)                0.993                                          !
 ! A1    A(2,1,14)             108.6846                                         !
 ! A2    A(2,1,15)             107.7171                                         !
 ! A3    A(14,1,15)            106.6263                                         !
 ! A4    A(1,2,3)              104.9277                                         !
 ! A5    A(1,2,5)              110.1376                                         !
 ! A6    A(1,2,9)              112.7899                                         !
 ! A7    A(3,2,5)              115.5697                                         !
 ! A8    A(3,2,9)              105.303                                          !
 ! A9    A(5,2,9)              108.1337                                         !
 ! A10   A(2,3,4)              119.1192                                         !
 ! A11   A(2,3,16)             118.7136                                         !
 ! A12   A(4,3,16)             122.0278                                         !
 ! A13   A(2,5,6)              110.7141                                         !
 ! A14   A(2,5,10)             110.702                                          !
 ! A15   A(2,5,11)             109.4845                                         !
 ! A16   A(6,5,10)             109.243                                          !
 ! A17   A(6,5,11)             107.7794                                         !
 ! A18   A(10,5,11)            108.8497                                         !
 ! A19   A(5,6,7)              115.5989                                         !
 ! A20   A(5,6,8)              122.8892                                         !
 ! A21   A(7,6,8)              121.3884                                         !
 ! A22   A(6,7,12)             113.2919                                         !
 ! A23   A(6,7,13)             117.4016                                         !
 ! A24   A(12,7,13)            114.2308                                         !
 ! A25   A(3,16,17)            120.3647                                         !
 ! A26   A(3,16,27)            116.6438                                         !
 ! A27   A(17,16,27)           114.7964                                         !
 ! A28   A(16,17,18)           107.678                                          !
 ! A29   A(16,17,20)           110.9806                                         !
 ! A30   A(16,17,28)           105.8702                                         !
 ! A31   A(18,17,20)           112.3684                                         !
 ! A32   A(18,17,28)           110.0072                                         !
 ! A33   A(20,17,28)           109.7176                                         !
 ! A34   A(17,18,19)           121.2198                                         !
 ! A35   A(17,18,36)           118.6249                                         !
 ! A36   A(19,18,36)           119.9995                                         !
 ! A37   A(17,20,21)           110.5682                                         !
 ! A38   A(17,20,29)           108.901                                          !
 ! A39   A(17,20,30)           108.1271                                         !
 ! A40   A(21,20,29)           110.8189                                         !
 ! A41   A(21,20,30)           111.8846                                         !
 ! A42   A(29,20,30)           106.3905                                         !
 ! A43   A(20,21,22)           120.8938                                         !
 ! A44   A(20,21,23)           120.222                                          !
 ! A45   A(22,21,23)           118.6419                                         !
 ! A46   A(21,22,24)           120.6842                                         !
 ! A47   A(21,22,31)           119.6825                                         !
 ! A48   A(24,22,31)           119.6281                                         !
 ! A49   A(21,23,25)           120.8665                                         !
 ! A50   A(21,23,32)           119.4486                                         !
 ! A51   A(25,23,32)           119.6789                                         !
 ! A52   A(22,24,26)           120.2111                                         !
 ! A53   A(22,24,33)           119.7474                                         !
 ! A54   A(26,24,33)           120.0415                                         !
 ! A55   A(23,25,26)           119.9379                                         !
 ! A56   A(23,25,34)           119.902                                          !
 ! A57   A(26,25,34)           120.1573                                         !
 ! A58   A(24,26,25)           119.6538                                         !
 ! A59   A(24,26,35)           120.1451                                         !
 ! A60   A(25,26,35)           120.1983                                         !
 ! A61   A(18,36,37)           133.2804                                         !
 ! A62   A(18,36,44)           115.2645                                         !
 ! A63   A(37,36,44)           111.4018                                         !
 ! A64   A(36,37,38)           113.6485                                         !
 ! A65   A(36,37,40)           109.671                                          !
 ! A66   A(36,37,45)           110.0782                                         !
 ! A67   A(38,37,40)           107.7648                                         !
 ! A68   A(38,37,45)           105.8649                                         !
 ! A69   A(40,37,45)           109.6934                                         !
 ! A70   A(37,38,39)           119.6099                                         !
 ! A71   A(37,38,50)           117.2878                                         !
 ! A72   A(39,38,50)           123.0982                                         !
 ! A73   A(37,40,41)           111.5084                                         !
 ! A74   A(37,40,46)           109.3981                                         !
 ! A75   A(37,40,47)           108.8022                                         !
 ! A76   A(41,40,46)           108.5164                                         !
 ! A77   A(41,40,47)           110.33                                           !
 ! A78   A(46,40,47)           108.2238                                         !
 ! A79   A(40,41,42)           116.282                                          !
 ! A80   A(40,41,43)           121.8793                                         !
 ! A81   A(42,41,43)           121.8071                                         !
 ! A82   A(41,42,48)           118.8601                                         !
 ! A83   A(41,42,49)           122.3119                                         !
 ! A84   A(48,42,49)           118.3112                                         !
 ! A85   A(38,50,51)           119.7965                                         !
 ! A86   A(38,50,63)           118.6143                                         !
 ! A87   A(51,50,63)           117.8064                                         !
 ! A88   A(50,51,52)           108.1943                                         !
 ! A89   A(50,51,54)           113.4853                                         !
 ! A90   A(50,51,64)           108.1805                                         !
 ! A91   A(52,51,54)           113.543                                          !
 ! A92   A(52,51,64)           106.4065                                         !
 ! A93   A(54,51,64)           106.6647                                         !
 ! A94   A(51,52,53)           123.5609                                         !
 ! A95   A(51,52,61)           113.4131                                         !
 ! A96   A(53,52,61)           123.0142                                         !
 ! A97   A(51,54,55)           120.0267                                         !
 ! A98   A(51,54,65)           106.7414                                         !
 ! A99   A(51,54,66)           105.212                                          !
 ! A100  A(55,54,65)           107.7814                                         !
 ! A101  A(55,54,66)           109.7228                                         !
 ! A102  A(65,54,66)           106.6188                                         !
 ! A103  A(54,55,56)           117.088                                          !
 ! A104  A(54,55,67)           110.8953                                         !
 ! A105  A(54,55,68)           106.6916                                         !
 ! A106  A(56,55,67)           108.7949                                         !
 ! A107  A(56,55,68)           107.3938                                         !
 ! A108  A(67,55,68)           105.2518                                         !
 ! A109  A(55,56,57)           109.0994                                         !
 ! A110  A(55,56,69)           110.1831                                         !
 ! A111  A(55,56,70)           110.2803                                         !
 ! A112  A(57,56,69)           108.7413                                         !
 ! A113  A(57,56,70)           109.9061                                         !
 ! A114  A(69,56,70)           108.6091                                         !
 ! A115  A(56,57,58)           127.111                                          !
 ! A116  A(56,57,71)           115.898                                          !
 ! A117  A(58,57,71)           114.0522                                         !
 ! A118  A(57,58,59)           122.169                                          !
 ! A119  A(57,58,60)           118.7452                                         !
 ! A120  A(59,58,60)           118.9902                                         !
 ! A121  A(58,59,72)           116.4194                                         !
 ! A122  A(58,59,73)           119.3119                                         !
 ! A123  A(72,59,73)           115.4658                                         !
 ! A124  A(58,60,74)           116.4996                                         !
 ! A125  A(58,60,75)           116.8376                                         !
 ! A126  A(74,60,75)           116.276                                          !
 ! A127  A(52,61,62)           108.2418                                         !
 ! D1    D(14,1,2,3)          -162.7131                                         !
 ! D2    D(14,1,2,5)            72.2903                                         !
 ! D3    D(14,1,2,9)           -48.6161                                         !
 ! D4    D(15,1,2,3)           -47.5546                                         !
 ! D5    D(15,1,2,5)          -172.5511                                         !
 ! D6    D(15,1,2,9)            66.5424                                         !
 ! D7    D(1,2,3,4)             56.141                                          !
 ! D8    D(1,2,3,16)          -119.6564                                         !
 ! D9    D(5,2,3,4)            177.644                                          !
 ! D10   D(5,2,3,16)             1.8467                                         !
 ! D11   D(9,2,3,4)            -63.1054                                         !
 ! D12   D(9,2,3,16)           121.0973                                         !
 ! D13   D(1,2,5,6)            -48.4573                                         !
 ! D14   D(1,2,5,10)            72.8467                                         !
 ! D15   D(1,2,5,11)          -167.1481                                         !
 ! D16   D(3,2,5,6)           -167.1175                                         !
 ! D17   D(3,2,5,10)           -45.8134                                         !
 ! D18   D(3,2,5,11)            74.1918                                         !
 ! D19   D(9,2,5,6)             75.2002                                         !
 ! D20   D(9,2,5,10)          -163.4957                                         !
 ! D21   D(9,2,5,11)           -43.4905                                         !
 ! D22   D(2,3,16,17)         -166.6261                                         !
 ! D23   D(2,3,16,27)          -19.7217                                         !
 ! D24   D(4,3,16,17)           17.7048                                         !
 ! D25   D(4,3,16,27)          164.6092                                         !
 ! D26   D(2,5,6,7)            136.0831                                         !
 ! D27   D(2,5,6,8)            -39.9219                                         !
 ! D28   D(10,5,6,7)            13.9216                                         !
 ! D29   D(10,5,6,8)          -162.0834                                         !
 ! D30   D(11,5,6,7)          -104.1976                                         !
 ! D31   D(11,5,6,8)            79.7974                                         !
 ! D32   D(5,6,7,12)           162.6505                                         !
 ! D33   D(5,6,7,13)            26.0597                                         !
 ! D34   D(8,6,7,12)           -21.2792                                         !
 ! D35   D(8,6,7,13)          -157.8699                                         !
 ! D36   D(3,16,17,18)        -120.8295                                         !
 ! D37   D(3,16,17,20)         115.8032                                         !
 ! D38   D(3,16,17,28)          -3.1882                                         !
 ! D39   D(27,16,17,18)         91.6923                                         !
 ! D40   D(27,16,17,20)        -31.675                                          !
 ! D41   D(27,16,17,28)       -150.6665                                         !
 ! D42   D(16,17,18,19)       -103.0528                                         !
 ! D43   D(16,17,18,36)         72.4089                                         !
 ! D44   D(20,17,18,19)         19.4632                                         !
 ! D45   D(20,17,18,36)       -165.0751                                         !
 ! D46   D(28,17,18,19)        142.0183                                         !
 ! D47   D(28,17,18,36)        -42.5201                                         !
 ! D48   D(16,17,20,21)        -42.8215                                         !
 ! D49   D(16,17,20,29)         79.1658                                         !
 ! D50   D(16,17,20,30)       -165.6245                                         !
 ! D51   D(18,17,20,21)       -163.4521                                         !
 ! D52   D(18,17,20,29)        -41.4648                                         !
 ! D53   D(18,17,20,30)         73.7449                                         !
 ! D54   D(28,17,20,21)         73.8295                                         !
 ! D55   D(28,17,20,29)       -164.1832                                         !
 ! D56   D(28,17,20,30)        -48.9735                                         !
 ! D57   D(17,18,36,37)          5.9506                                         !
 ! D58   D(17,18,36,44)       -176.9902                                         !
 ! D59   D(19,18,36,37)       -178.5308                                         !
 ! D60   D(19,18,36,44)         -1.4716                                         !
 ! D61   D(17,20,21,22)        -67.4231                                         !
 ! D62   D(17,20,21,23)        106.8462                                         !
 ! D63   D(29,20,21,22)        171.7238                                         !
 ! D64   D(29,20,21,23)        -14.007                                          !
 ! D65   D(30,20,21,22)         53.164                                          !
 ! D66   D(30,20,21,23)       -132.5668                                         !
 ! D67   D(20,21,22,24)        173.8425                                         !
 ! D68   D(20,21,22,31)         -5.3273                                         !
 ! D69   D(23,21,22,24)         -0.5155                                         !
 ! D70   D(23,21,22,31)       -179.6853                                         !
 ! D71   D(20,21,23,25)       -173.9914                                         !
 ! D72   D(20,21,23,32)          6.9046                                         !
 ! D73   D(22,21,23,25)          0.4056                                         !
 ! D74   D(22,21,23,32)       -178.6984                                         !
 ! D75   D(21,22,24,26)          0.0343                                         !
 ! D76   D(21,22,24,33)       -179.9312                                         !
 ! D77   D(31,22,24,26)        179.2045                                         !
 ! D78   D(31,22,24,33)         -0.761                                          !
 ! D79   D(21,23,25,26)          0.1865                                         !
 ! D80   D(21,23,25,34)       -179.2034                                         !
 ! D81   D(32,23,25,26)        179.2885                                         !
 ! D82   D(32,23,25,34)         -0.1014                                         !
 ! D83   D(22,24,26,25)          0.5651                                         !
 ! D84   D(22,24,26,35)        179.9456                                         !
 ! D85   D(33,24,26,25)       -179.4696                                         !
 ! D86   D(33,24,26,35)         -0.089                                          !
 ! D87   D(23,25,26,24)         -0.6731                                         !
 ! D88   D(23,25,26,35)        179.9467                                         !
 ! D89   D(34,25,26,24)        178.7152                                         !
 ! D90   D(34,25,26,35)         -0.665                                          !
 ! D91   D(18,36,37,38)       -108.7301                                         !
 ! D92   D(18,36,37,40)        130.5886                                         !
 ! D93   D(18,36,37,45)          9.8118                                         !
 ! D94   D(44,36,37,38)         74.1263                                         !
 ! D95   D(44,36,37,40)        -46.555                                          !
 ! D96   D(44,36,37,45)       -167.3318                                         !
 ! D97   D(36,37,38,39)       -154.7784                                         !
 ! D98   D(36,37,38,50)         24.5064                                         !
 ! D99   D(40,37,38,39)        -33.0311                                         !
 ! D100  D(40,37,38,50)        146.2538                                         !
 ! D101  D(45,37,38,39)         84.2867                                         !
 ! D102  D(45,37,38,50)        -96.4285                                         !
 ! D103  D(36,37,40,41)         65.0977                                         !
 ! D104  D(36,37,40,46)        -54.9454                                         !
 ! D105  D(36,37,40,47)       -172.9878                                         !
 ! D106  D(38,37,40,41)        -59.0858                                         !
 ! D107  D(38,37,40,46)       -179.1289                                         !
 ! D108  D(38,37,40,47)         62.8287                                         !
 ! D109  D(45,37,40,41)       -173.8929                                         !
 ! D110  D(45,37,40,46)         66.064                                          !
 ! D111  D(45,37,40,47)        -51.9784                                         !
 ! D112  D(37,38,50,51)        171.2325                                         !
 ! D113  D(37,38,50,63)         13.6045                                         !
 ! D114  D(39,38,50,51)         -9.5097                                         !
 ! D115  D(39,38,50,63)       -167.1377                                         !
 ! D116  D(37,40,41,42)        153.4826                                         !
 ! D117  D(37,40,41,43)        -28.5249                                         !
 ! D118  D(46,40,41,42)        -85.9561                                         !
 ! D119  D(46,40,41,43)         92.0364                                         !
 ! D120  D(47,40,41,42)         32.4552                                         !
 ! D121  D(47,40,41,43)       -149.5523                                         !
 ! D122  D(40,41,42,48)        179.4212                                         !
 ! D123  D(40,41,42,49)         -8.9687                                         !
 ! D124  D(43,41,42,48)          1.427                                          !
 ! D125  D(43,41,42,49)        173.0372                                         !
 ! D126  D(38,50,51,52)       -158.0988                                         !
 ! D127  D(38,50,51,54)         74.942                                          !
 ! D128  D(38,50,51,64)        -43.2089                                         !
 ! D129  D(63,50,51,52)         -0.2932                                         !
 ! D130  D(63,50,51,54)       -127.2524                                         !
 ! D131  D(63,50,51,64)        114.5966                                         !
 ! D132  D(50,51,52,53)        -27.3882                                         !
 ! D133  D(50,51,52,61)        153.8317                                         !
 ! D134  D(54,51,52,53)         99.5376                                         !
 ! D135  D(54,51,52,61)        -79.2426                                         !
 ! D136  D(64,51,52,53)       -143.4377                                         !
 ! D137  D(64,51,52,61)         37.7822                                         !
 ! D138  D(50,51,54,55)         69.5973                                         !
 ! D139  D(50,51,54,65)       -167.5698                                         !
 ! D140  D(50,51,54,66)        -54.5344                                         !
 ! D141  D(52,51,54,55)        -54.5049                                         !
 ! D142  D(52,51,54,65)         68.3281                                         !
 ! D143  D(52,51,54,66)       -178.6365                                         !
 ! D144  D(64,51,54,55)       -171.3788                                         !
 ! D145  D(64,51,54,65)        -48.5459                                         !
 ! D146  D(64,51,54,66)         64.4895                                         !
 ! D147  D(51,52,61,62)       -166.5589                                         !
 ! D148  D(53,52,61,62)         14.6534                                         !
 ! D149  D(51,54,55,56)        -58.1198                                         !
 ! D150  D(51,54,55,67)         67.5147                                         !
 ! D151  D(51,54,55,68)       -178.3783                                         !
 ! D152  D(65,54,55,56)        179.5529                                         !
 ! D153  D(65,54,55,67)        -54.8126                                         !
 ! D154  D(65,54,55,68)         59.2944                                         !
 ! D155  D(66,54,55,56)         63.8286                                         !
 ! D156  D(66,54,55,67)       -170.5369                                         !
 ! D157  D(66,54,55,68)        -56.4299                                         !
 ! D158  D(54,55,56,57)         82.8121                                         !
 ! D159  D(54,55,56,69)       -157.8772                                         !
 ! D160  D(54,55,56,70)        -37.9903                                         !
 ! D161  D(67,55,56,57)        -43.86                                           !
 ! D162  D(67,55,56,69)         75.4507                                         !
 ! D163  D(67,55,56,70)       -164.6624                                         !
 ! D164  D(68,55,56,57)       -157.301                                          !
 ! D165  D(68,55,56,69)        -37.9904                                         !
 ! D166  D(68,55,56,70)         81.8965                                         !
 ! D167  D(55,56,57,58)       -160.1951                                         !
 ! D168  D(55,56,57,71)         -0.8885                                         !
 ! D169  D(69,56,57,58)         79.6031                                         !
 ! D170  D(69,56,57,71)       -121.0903                                         !
 ! D171  D(70,56,57,58)        -39.164                                          !
 ! D172  D(70,56,57,71)        120.1426                                         !
 ! D173  D(56,57,58,59)        -10.9196                                         !
 ! D174  D(56,57,58,60)        172.6724                                         !
 ! D175  D(71,57,58,59)       -170.5482                                         !
 ! D176  D(71,57,58,60)         13.0438                                         !
 ! D177  D(57,58,59,72)        169.0598                                         !
 ! D178  D(57,58,59,73)         23.0069                                         !
 ! D179  D(60,58,59,72)        -14.5407                                         !
 ! D180  D(60,58,59,73)       -160.5936                                         !
 ! D181  D(57,58,60,74)       -155.3135                                         !
 ! D182  D(57,58,60,75)        -11.5447                                         !
 ! D183  D(59,58,60,74)         28.1625                                         !
 ! D184  D(59,58,60,75)        171.9313                                         !
 --------------------------------------------------------------------------------
 Symmetry turned off by external request.
 Stoichiometry    C23H36N9O7(1+)
 Framework group  C1[X(C23H36N9O7)]
 Deg. of freedom   219
 Full point group                 C1      NOp   1
                          Input orientation:                          
 ---------------------------------------------------------------------
 Center     Atomic      Atomic             Coordinates (Angstroms)
 Number     Number       Type             X           Y           Z
 ---------------------------------------------------------------------
      1          7           0       -9.468307   -3.512833   -7.576166
      2          6           0       -8.424238   -3.699983   -6.554886
      3          6           0       -8.035784   -2.279050   -6.121316
      4          8           0       -8.906737   -1.523694   -5.702538
      5          6           0       -7.277203   -4.559808   -7.120195
      6          6           0       -7.825567   -5.810394   -7.802524
      7          7           0       -7.243281   -6.131917   -9.034769
      8          8           0       -8.755998   -6.451853   -7.355506
      9          1           0       -8.801783   -4.188715   -5.643764
     10          1           0       -6.684642   -3.989193   -7.837495
     11          1           0       -6.623784   -4.884913   -6.298887
     12          1           0       -7.417825   -7.090912   -9.323882
     13          1           0       -6.293993   -5.813229   -9.200140
     14          1           0       -9.967923   -4.392398   -7.697133
     15          1           0      -10.143244   -2.841855   -7.210537
     16          7           0       -6.737733   -1.867152   -6.297661
     17          6           0       -6.250534   -0.645892   -5.642165
     18          6           0       -5.770103    0.313960   -6.741714
     19          8           0       -4.559367    0.468591   -6.978285
     20          6           0       -5.138508   -0.972632   -4.619445
     21          6           0       -5.502937   -2.199122   -3.811535
     22          6           0       -6.574795   -2.173987   -2.909279
     23          6           0       -4.847411   -3.415907   -4.042015
     24          6           0       -6.987843   -3.338566   -2.261971
     25          6           0       -5.256446   -4.584873   -3.393861
     26          6           0       -6.333557   -4.549111   -2.506806
     27          1           0       -6.042770   -2.593538   -6.411920
     28          1           0       -7.113153   -0.220003   -5.125087
     29          1           0       -4.197321   -1.125962   -5.156081
     30          1           0       -4.991673   -0.092923   -3.982757
     31          1           0       -7.098928   -1.239793   -2.721589
     32          1           0       -3.999355   -3.446260   -4.724262
     33          1           0       -7.821229   -3.301875   -1.566342
     34          1           0       -4.728620   -5.517428   -3.574367
     35          1           0       -6.655459   -5.454963   -2.001593
     36          7           0       -6.693696    0.924329   -7.517468
     37          6           0       -8.152647    0.968365   -7.489871
     38          6           0       -8.820198    0.174221   -8.640411
     39          8           0       -9.945211    0.484020   -9.017327
     40          6           0       -8.629288    2.429849   -7.589226
     41          6           0       -8.260279    3.049751   -8.938520
     42          7           0       -9.047077    4.052133   -9.368436
     43          8           0       -7.266913    2.674596   -9.583134
     44          1           0       -6.319295    1.509843   -8.257643
     45          1           0       -8.523923    0.522132   -6.564285
     46          1           0       -8.159377    3.020984   -6.794281
     47          1           0       -9.710831    2.458075   -7.441868
     48          1           0       -8.833198    4.496247  -10.251916
     49          1           0       -9.911455    4.295812   -8.906806
     50          7           0       -8.104428   -0.837844   -9.195614
     51          6           0       -8.745548   -1.744389  -10.147832
     52          6           0       -7.948411   -3.036154  -10.182986
     53          8           0       -6.740768   -3.101090   -9.927332
     54          6           0       -8.966984   -1.114195  -11.548869
     55          6           0       -7.761170   -0.817728  -12.459852
     56          6           0       -6.677948    0.120259  -11.903951
     57          7           0       -5.763383   -0.652533  -11.053468
     58          6           0       -4.942120   -0.179366  -10.122224
     59          7           0       -4.694368    1.134731   -9.987374
     60          7           0       -4.281326   -1.054778   -9.332930
     61          8           0       -8.664069   -4.083312  -10.538420
     62          1           0       -8.142798   -4.901959  -10.328124
     63          1           0       -7.276953   -1.166076   -8.715495
     64          1           0       -9.733895   -2.002173   -9.760532
     65          1           0       -9.641259   -1.784901  -12.093763
     66          1           0       -9.525372   -0.191940  -11.363762
     67          1           0       -7.284320   -1.750216  -12.795219
     68          1           0       -8.160012   -0.354865  -13.369026
     69          1           0       -6.104372    0.564177  -12.725359
     70          1           0       -7.136772    0.927435  -11.321529
     71          1           0       -5.979790   -1.640242  -10.951748
     72          1           0       -4.195195    1.416643   -9.149488
     73          1           0       -5.368258    1.805994  -10.340308
     74          1           0       -3.984499   -0.710154   -8.420228
     75          1           0       -4.580774   -2.020814   -9.371393
 ---------------------------------------------------------------------
 Rotational constants (GHZ):           0.1300445           0.0837403           0.0671058
 Standard basis: 6-31G(d) (6D, 7F)
   657 basis functions,  1236 primitive gaussians,   657 cartesian basis functions
   146 alpha electrons      146 beta electrons
       nuclear repulsion energy      5195.8149996723 Hartrees.
 NAtoms=   75 NActive=   75 NUniq=   75 SFac= 1.00D+00 NAtFMM=   60 NAOKFM=T Big=T
 Integral buffers will be    131072 words long.
 Raffenetti 2 integral format.
 Two-electron integral symmetry is turned off.
 Nuclear repulsion after empirical dispersion term =     5195.6901379989 Hartrees.
 One-electron integrals computed using PRISM.
 NBasis=   657 RedAO= T EigKep=  4.67D-04  NBF=   657
 NBsUse=   657 1.00D-06 EigRej= -1.00D+00 NBFU=   657
 Initial guess from the checkpoint file:  "conf-879.chk"
 B after Tr=     0.000000    0.000000    0.000000
         Rot=    1.000000    0.000000    0.000000    0.000000 Ang=   0.00 deg.
 Requested convergence on RMS density matrix=1.00D-08 within 128 cycles.
 Requested convergence on MAX density matrix=1.00D-06.
 Requested convergence on             energy=1.00D-06.
 No special actions if energy rises.
 SCF Done:  E(RB3LYP) =  -1917.51751617     A.U. after    1 cycles
            NFock=  1  Conv=0.61D-08     -V/T= 2.0093

 **********************************************************************

            Population analysis using the SCF Density.

 **********************************************************************

 Alpha  occ. eigenvalues --  -19.30566 -19.26887 -19.23872 -19.23822 -19.22944
 Alpha  occ. eigenvalues --  -19.22825 -19.21856 -14.49336 -14.49189 -14.48782
 Alpha  occ. eigenvalues --  -14.47763 -14.47508 -14.47356 -14.47259 -14.46582
 Alpha  occ. eigenvalues --  -14.41300 -10.45609 -10.44729 -10.41320 -10.41011
 Alpha  occ. eigenvalues --  -10.40410 -10.39853 -10.39175 -10.34858 -10.34461
 Alpha  occ. eigenvalues --  -10.34365 -10.34220 -10.32993 -10.31024 -10.30407
 Alpha  occ. eigenvalues --  -10.30334 -10.29559 -10.29023 -10.28579 -10.27733
 Alpha  occ. eigenvalues --  -10.27548 -10.27356 -10.27291 -10.27169  -1.22635
 Alpha  occ. eigenvalues --   -1.15826  -1.15172  -1.14906  -1.14752  -1.14454
 Alpha  occ. eigenvalues --   -1.14006  -1.13401  -1.04757  -1.04046  -1.03806
 Alpha  occ. eigenvalues --   -1.02726  -1.02403  -1.02154  -1.01507  -0.98726
 Alpha  occ. eigenvalues --   -0.94181  -0.91138  -0.89524  -0.88705  -0.86490
 Alpha  occ. eigenvalues --   -0.86351  -0.83254  -0.82849  -0.80551  -0.79136
 Alpha  occ. eigenvalues --   -0.77378  -0.76376  -0.75744  -0.73760  -0.72225
 Alpha  occ. eigenvalues --   -0.71223  -0.70428  -0.69963  -0.69752  -0.68706
 Alpha  occ. eigenvalues --   -0.68221  -0.67924  -0.66920  -0.66755  -0.65526
 Alpha  occ. eigenvalues --   -0.64590  -0.63988  -0.63579  -0.62781  -0.62150
 Alpha  occ. eigenvalues --   -0.61864  -0.61047  -0.60411  -0.60313  -0.59781
 Alpha  occ. eigenvalues --   -0.59433  -0.59248  -0.58465  -0.58043  -0.57525
 Alpha  occ. eigenvalues --   -0.57112  -0.56374  -0.56225  -0.55272  -0.54603
 Alpha  occ. eigenvalues --   -0.54395  -0.53921  -0.53765  -0.53104  -0.52964
 Alpha  occ. eigenvalues --   -0.52729  -0.52415  -0.51730  -0.51508  -0.51418
 Alpha  occ. eigenvalues --   -0.50888  -0.50420  -0.50181  -0.50057  -0.49726
 Alpha  occ. eigenvalues --   -0.49128  -0.48972  -0.48371  -0.48158  -0.47691
 Alpha  occ. eigenvalues --   -0.47269  -0.46774  -0.45840  -0.45791  -0.45517
 Alpha  occ. eigenvalues --   -0.44713  -0.44163  -0.43452  -0.42516  -0.42356
 Alpha  occ. eigenvalues --   -0.41204  -0.40633  -0.39558  -0.39251  -0.39039
 Alpha  occ. eigenvalues --   -0.38804  -0.38102  -0.37861  -0.37060  -0.36595
 Alpha  occ. eigenvalues --   -0.35969  -0.35929  -0.34455  -0.34002  -0.33557
 Alpha  occ. eigenvalues --   -0.32978
 Alpha virt. eigenvalues --   -0.12153  -0.11022  -0.10588  -0.09855  -0.09258
 Alpha virt. eigenvalues --   -0.09209  -0.08818  -0.08439  -0.07892  -0.05100
 Alpha virt. eigenvalues --   -0.02692  -0.02441  -0.01805  -0.00950  -0.00238
 Alpha virt. eigenvalues --    0.00026   0.00436   0.00755   0.01523   0.01625
 Alpha virt. eigenvalues --    0.01999   0.02229   0.02759   0.03303   0.03544
 Alpha virt. eigenvalues --    0.03826   0.04410   0.04841   0.05198   0.05271
 Alpha virt. eigenvalues --    0.05643   0.05953   0.06119   0.06593   0.06854
 Alpha virt. eigenvalues --    0.07311   0.07641   0.07806   0.07906   0.08355
 Alpha virt. eigenvalues --    0.08409   0.09089   0.09303   0.09756   0.10056
 Alpha virt. eigenvalues --    0.10545   0.10869   0.11316   0.11461   0.11720
 Alpha virt. eigenvalues --    0.12131   0.12674   0.12794   0.13320   0.14252
 Alpha virt. eigenvalues --    0.14472   0.14646   0.15388   0.15994   0.16222
 Alpha virt. eigenvalues --    0.17010   0.18274   0.18351   0.18758   0.19914
 Alpha virt. eigenvalues --    0.21702   0.22382   0.22901   0.23143   0.23534
 Alpha virt. eigenvalues --    0.24217   0.25040   0.25647   0.25795   0.26434
 Alpha virt. eigenvalues --    0.26601   0.27400   0.27718   0.28794   0.29314
 Alpha virt. eigenvalues --    0.31301   0.33054   0.34365   0.36215   0.37147
 Alpha virt. eigenvalues --    0.37674   0.37929   0.39239   0.39593   0.40597
 Alpha virt. eigenvalues --    0.41110   0.41356   0.42129   0.42487   0.44040
 Alpha virt. eigenvalues --    0.44209   0.44937   0.45157   0.45377   0.45671
 Alpha virt. eigenvalues --    0.46487   0.46869   0.46911   0.47626   0.48024
 Alpha virt. eigenvalues --    0.48416   0.48649   0.49000   0.49482   0.50073
 Alpha virt. eigenvalues --    0.50285   0.50553   0.50731   0.51510   0.52088
 Alpha virt. eigenvalues --    0.52128   0.52561   0.53103   0.53437   0.53475
 Alpha virt. eigenvalues --    0.53647   0.53901   0.54080   0.55049   0.55222
 Alpha virt. eigenvalues --    0.55498   0.55713   0.55847   0.56330   0.57298
 Alpha virt. eigenvalues --    0.57795   0.58116   0.58368   0.58680   0.58977
 Alpha virt. eigenvalues --    0.59474   0.59981   0.60884   0.61784   0.62381
 Alpha virt. eigenvalues --    0.63118   0.63631   0.63934   0.64507   0.65843
 Alpha virt. eigenvalues --    0.65882   0.66359   0.66697   0.68404   0.68503
 Alpha virt. eigenvalues --    0.68755   0.68967   0.69721   0.70701   0.71028
 Alpha virt. eigenvalues --    0.71704   0.71898   0.72306   0.73278   0.73447
 Alpha virt. eigenvalues --    0.73867   0.74247   0.74599   0.74656   0.74980
 Alpha virt. eigenvalues --    0.75500   0.76054   0.76083   0.76207   0.76979
 Alpha virt. eigenvalues --    0.77215   0.77512   0.77758   0.77999   0.78155
 Alpha virt. eigenvalues --    0.78628   0.79305   0.79432   0.79619   0.80523
 Alpha virt. eigenvalues --    0.80583   0.81078   0.81390   0.81991   0.82315
 Alpha virt. eigenvalues --    0.82787   0.83073   0.83482   0.83830   0.84249
 Alpha virt. eigenvalues --    0.84798   0.85381   0.85842   0.86211   0.86813
 Alpha virt. eigenvalues --    0.87318   0.87440   0.88463   0.89177   0.89214
 Alpha virt. eigenvalues --    0.89964   0.90109   0.90324   0.91033   0.91302
 Alpha virt. eigenvalues --    0.92244   0.93326   0.93643   0.93961   0.94418
 Alpha virt. eigenvalues --    0.94702   0.95529   0.96598   0.97200   0.98325
 Alpha virt. eigenvalues --    0.98571   0.99608   0.99807   1.00333   1.01023
 Alpha virt. eigenvalues --    1.01291   1.02583   1.03173   1.03760   1.04584
 Alpha virt. eigenvalues --    1.05096   1.05851   1.06508   1.07425   1.07947
 Alpha virt. eigenvalues --    1.09021   1.09301   1.10031   1.10322   1.11005
 Alpha virt. eigenvalues --    1.11230   1.12683   1.12864   1.13744   1.14541
 Alpha virt. eigenvalues --    1.14813   1.15439   1.16629   1.17508   1.18475
 Alpha virt. eigenvalues --    1.19145   1.19754   1.20553   1.22233   1.22578
 Alpha virt. eigenvalues --    1.23364   1.24923   1.25361   1.25951   1.26369
 Alpha virt. eigenvalues --    1.27382   1.28020   1.28891   1.29545   1.30270
 Alpha virt. eigenvalues --    1.30883   1.31880   1.32278   1.33778   1.33878
 Alpha virt. eigenvalues --    1.34149   1.34800   1.35307   1.36311   1.36862
 Alpha virt. eigenvalues --    1.37813   1.38952   1.39328   1.39632   1.40694
 Alpha virt. eigenvalues --    1.41561   1.42779   1.43623   1.44852   1.45477
 Alpha virt. eigenvalues --    1.46452   1.47674   1.48736   1.49160   1.50672
 Alpha virt. eigenvalues --    1.52214   1.52775   1.53016   1.53907   1.54418
 Alpha virt. eigenvalues --    1.55346   1.56945   1.57761   1.59098   1.59635
 Alpha virt. eigenvalues --    1.60747   1.61369   1.61944   1.62371   1.63094
 Alpha virt. eigenvalues --    1.64072   1.64585   1.65607   1.65627   1.65974
 Alpha virt. eigenvalues --    1.67106   1.67837   1.68053   1.68729   1.69304
 Alpha virt. eigenvalues --    1.69663   1.70023   1.70631   1.71229   1.71706
 Alpha virt. eigenvalues --    1.72067   1.72557   1.72898   1.73520   1.73827
 Alpha virt. eigenvalues --    1.74681   1.75584   1.76198   1.76512   1.76876
 Alpha virt. eigenvalues --    1.77981   1.78490   1.79364   1.79424   1.79609
 Alpha virt. eigenvalues --    1.80465   1.81229   1.81381   1.81824   1.81907
 Alpha virt. eigenvalues --    1.82795   1.84268   1.84510   1.84831   1.85641
 Alpha virt. eigenvalues --    1.86538   1.87102   1.87411   1.88570   1.88910
 Alpha virt. eigenvalues --    1.89892   1.90296   1.90636   1.91701   1.92543
 Alpha virt. eigenvalues --    1.93170   1.93694   1.94397   1.94826   1.95364
 Alpha virt. eigenvalues --    1.95876   1.96416   1.97453   1.98034   1.98553
 Alpha virt. eigenvalues --    1.99346   1.99902   2.00830   2.02618   2.02876
 Alpha virt. eigenvalues --    2.03097   2.04146   2.05158   2.05781   2.05908
 Alpha virt. eigenvalues --    2.06785   2.07452   2.08119   2.08542   2.08694
 Alpha virt. eigenvalues --    2.09797   2.10895   2.11971   2.12702   2.14215
 Alpha virt. eigenvalues --    2.14798   2.15714   2.16306   2.17056   2.18038
 Alpha virt. eigenvalues --    2.18463   2.19850   2.20241   2.21132   2.22051
 Alpha virt. eigenvalues --    2.22495   2.23558   2.23761   2.24924   2.25388
 Alpha virt. eigenvalues --    2.26051   2.26882   2.28078   2.29305   2.30630
 Alpha virt. eigenvalues --    2.31297   2.32609   2.32818   2.33548   2.33875
 Alpha virt. eigenvalues --    2.34740   2.35467   2.35957   2.36706   2.38219
 Alpha virt. eigenvalues --    2.38605   2.39988   2.40988   2.42132   2.43641
 Alpha virt. eigenvalues --    2.44047   2.44429   2.45662   2.46051   2.47823
 Alpha virt. eigenvalues --    2.48803   2.49652   2.49842   2.50064   2.50587
 Alpha virt. eigenvalues --    2.51389   2.51814   2.52838   2.53678   2.53758
 Alpha virt. eigenvalues --    2.54455   2.54919   2.55715   2.57043   2.57504
 Alpha virt. eigenvalues --    2.58797   2.60361   2.61131   2.62077   2.62492
 Alpha virt. eigenvalues --    2.64077   2.64839   2.66109   2.66189   2.67254
 Alpha virt. eigenvalues --    2.69261   2.69767   2.70614   2.74247   2.75143
 Alpha virt. eigenvalues --    2.76112   2.78646   2.81886   2.84758   2.86073
 Alpha virt. eigenvalues --    2.88122   2.88310   2.89533   2.90289   2.91510
 Alpha virt. eigenvalues --    2.91759   2.93050   2.94241   2.96363   2.97082
 Alpha virt. eigenvalues --    2.97365   2.99032   3.00637   3.03618   3.06053
 Alpha virt. eigenvalues --    3.10023   3.32535   3.69780   3.72838   3.75152
 Alpha virt. eigenvalues --    3.77965   3.82138   3.85749   3.92889   3.93643
 Alpha virt. eigenvalues --    3.94746   3.97169   3.98901   4.01331   4.02081
 Alpha virt. eigenvalues --    4.03609   4.05569   4.08106   4.08902   4.11506
 Alpha virt. eigenvalues --    4.14652   4.15095   4.16705   4.17729   4.21729
 Alpha virt. eigenvalues --    4.23429   4.24174   4.28465   4.30727   4.33731
 Alpha virt. eigenvalues --    4.34914   4.39884   4.41730   4.43752   4.46402
 Alpha virt. eigenvalues --    4.48450   4.56860   4.59348   4.63004   4.64678
 Alpha virt. eigenvalues --    4.66754
          Condensed to atoms (all electrons):
 Mulliken charges:
               1
     1  N   -0.770362
     2  C   -0.038527
     3  C    0.624909
     4  O   -0.518049
     5  C   -0.419185
     6  C    0.582914
     7  N   -0.785433
     8  O   -0.457071
     9  H    0.190130
    10  H    0.163314
    11  H    0.195385
    12  H    0.363114
    13  H    0.350519
    14  H    0.339241
    15  H    0.336932
    16  N   -0.632553
    17  C   -0.059900
    18  C    0.613462
    19  O   -0.564193
    20  C   -0.382162
    21  C    0.165665
    22  C   -0.174049
    23  C   -0.213834
    24  C   -0.129060
    25  C   -0.132062
    26  C   -0.130636
    27  H    0.345228
    28  H    0.203830
    29  H    0.171129
    30  H    0.183047
    31  H    0.141068
    32  H    0.125851
    33  H    0.155167
    34  H    0.146597
    35  H    0.154419
    36  N   -0.623984
    37  C   -0.105424
    38  C    0.647521
    39  O   -0.529902
    40  C   -0.369397
    41  C    0.636879
    42  N   -0.726732
    43  O   -0.572580
    44  H    0.371112
    45  H    0.236139
    46  H    0.197613
    47  H    0.203114
    48  H    0.362234
    49  H    0.367337
    50  N   -0.643798
    51  C   -0.007018
    52  C    0.628840
    53  O   -0.558971
    54  C   -0.287656
    55  C   -0.329601
    56  C   -0.149833
    57  N   -0.604263
    58  C    0.749067
    59  N   -0.758426
    60  N   -0.768979
    61  O   -0.558980
    62  H    0.451863
    63  H    0.352244
    64  H    0.218089
    65  H    0.177930
    66  H    0.199518
    67  H    0.158791
    68  H    0.183628
    69  H    0.186030
    70  H    0.201946
    71  H    0.381151
    72  H    0.376679
    73  H    0.402223
    74  H    0.394263
    75  H    0.366490
 Sum of Mulliken charges =   1.00000
 Mulliken charges with hydrogens summed into heavy atoms:
               1
     1  N   -0.094190
     2  C    0.151602
     3  C    0.624909
     4  O   -0.518049
     5  C   -0.060486
     6  C    0.582914
     7  N   -0.071800
     8  O   -0.457071
    16  N   -0.287325
    17  C    0.143930
    18  C    0.613462
    19  O   -0.564193
    20  C   -0.027987
    21  C    0.165665
    22  C   -0.032981
    23  C   -0.087983
    24  C    0.026107
    25  C    0.014536
    26  C    0.023783
    36  N   -0.252872
    37  C    0.130715
    38  C    0.647521
    39  O   -0.529902
    40  C    0.031330
    41  C    0.636879
    42  N    0.002839
    43  O   -0.572580
    50  N   -0.291554
    51  C    0.211071
    52  C    0.628840
    53  O   -0.558971
    54  C    0.089792
    55  C    0.012818
    56  C    0.238143
    57  N   -0.223112
    58  C    0.749067
    59  N    0.020476
    60  N   -0.008226
    61  O   -0.107117
 Electronic spatial extent (au):  <R**2>=         137291.7474
 Charge=              1.0000 electrons
 Dipole moment (field-independent basis, Debye):
    X=            -31.8987    Y=             -4.0084    Z=            -42.8639  Tot=             53.5809
 Quadrupole moment (field-independent basis, Debye-Ang):
   XX=             -7.3587   YY=           -148.2473   ZZ=            197.4110
   XY=              0.7316   XZ=            288.1193   YZ=             29.5891
 Traceless Quadrupole moment (field-independent basis, Debye-Ang):
   XX=            -21.2937   YY=           -162.1823   ZZ=            183.4760
   XY=              0.7316   XZ=            288.1193   YZ=             29.5891
 Octapole moment (field-independent basis, Debye-Ang**2):
  XXX=           3305.6463  YYY=            834.5833  ZZZ=            832.5553  XYY=           1098.9328
  XXY=            547.9215  XXZ=           -256.0771  XZZ=          -1295.8228  YZZ=             47.5918
  YYZ=           1064.1325  XYZ=             10.3899
 Hexadecapole moment (field-independent basis, Debye-Ang**3):
 XXXX=         -61681.2491 YYYY=          -9760.5390 ZZZZ=         -43400.7816 XXXY=         -10459.9086
 XXXZ=         -23870.6276 YYYX=          -6878.3595 YYYZ=          -4855.9050 ZZZX=          -7288.6965
 ZZZY=          -3406.4749 XXYY=         -10487.0306 XXZZ=          -6670.4509 YYZZ=         -10573.0219
 XXYZ=          -3968.7168 YYXZ=          -8018.0726 ZZXY=          -2082.6169
 N-N= 5.195690137999D+03 E-N=-1.483071249817D+04  KE= 1.899792326347D+03
 Unable to Open any file for archive entry.
 1\1\GINC-LAC-316\SP\RB3LYP\6-31G(d)\C23H36N9O7(1+)\KENGMITH\03-Jun-202
 2\0\\# B3LYP/6-31G* empiricaldispersion=gd3 guess=read geom=check nosy
 mm integral(ultrafinegrid)\\Candidate Structure: Conf:879 Charge calc 
 in gas phase\\1,1\N,0,-9.4683070135,-3.5128331639,-7.576166231\C,0,-8.
 4242380618,-3.6999825691,-6.5548858175\C,0,-8.0357844079,-2.279050011,
 -6.1213162346\O,0,-8.9067371471,-1.5236941001,-5.702537734\C,0,-7.2772
 026249,-4.5598081803,-7.1201945329\C,0,-7.8255667386,-5.810394088,-7.8
 025239363\N,0,-7.2432806757,-6.1319165539,-9.0347691629\O,0,-8.7559981
 58,-6.451853428,-7.3555063996\H,0,-8.8017827562,-4.1887149,-5.64376438
 34\H,0,-6.6846422246,-3.9891931559,-7.8374946565\H,0,-6.6237840756,-4.
 8849127062,-6.2988870485\H,0,-7.4178247128,-7.0909121421,-9.3238823228
 \H,0,-6.2939928756,-5.8132290897,-9.2001404155\H,0,-9.9679228805,-4.39
 23983637,-7.6971333301\H,0,-10.1432438805,-2.8418547242,-7.2105367552\
 N,0,-6.7377331513,-1.8671516349,-6.2976609093\C,0,-6.2505344973,-0.645
 8916537,-5.6421652045\C,0,-5.7701027957,0.3139599733,-6.7417143607\O,0
 ,-4.5593668112,0.4685910403,-6.9782851022\C,0,-5.1385083159,-0.9726323
 39,-4.6194451983\C,0,-5.5029374793,-2.1991220073,-3.8115348637\C,0,-6.
 5747951461,-2.1739870273,-2.9092787401\C,0,-4.8474110675,-3.4159065533
 ,-4.0420154473\C,0,-6.9878434343,-3.3385661748,-2.2619712592\C,0,-5.25
 64464287,-4.5848732715,-3.3938608444\C,0,-6.3335566518,-4.5491106054,-
 2.506805558\H,0,-6.0427700707,-2.5935381548,-6.4119195376\H,0,-7.11315
 26352,-0.2200027517,-5.1250871307\H,0,-4.1973212137,-1.1259620754,-5.1
 560811018\H,0,-4.9916727024,-0.0929233804,-3.9827566467\H,0,-7.0989279
 383,-1.2397925508,-2.7215894837\H,0,-3.9993554044,-3.4462601155,-4.724
 2616055\H,0,-7.82122852,-3.3018745196,-1.5663418716\H,0,-4.7286198535,
 -5.5174277123,-3.5743669218\H,0,-6.6554585108,-5.4549634516,-2.0015934
 219\N,0,-6.6936956863,0.9243287327,-7.5174682484\C,0,-8.152647431,0.96
 83653627,-7.4898708694\C,0,-8.8201984351,0.1742205277,-8.6404111024\O,
 0,-9.9452112852,0.4840198498,-9.0173269422\C,0,-8.629287685,2.42984939
 44,-7.5892259464\C,0,-8.2602793839,3.0497511911,-8.9385197117\N,0,-9.0
 470765199,4.0521327856,-9.3684359306\O,0,-7.2669127241,2.6745955304,-9
 .5831342876\H,0,-6.3192954685,1.5098431512,-8.2576433015\H,0,-8.523923
 3822,0.5221316591,-6.564285155\H,0,-8.1593771787,3.0209837943,-6.79428
 10675\H,0,-9.7108312067,2.4580751136,-7.4418680987\H,0,-8.8331978235,4
 .4962467938,-10.251915738\H,0,-9.9114549796,4.2958120197,-8.9068057492
 \N,0,-8.1044278108,-0.8378444963,-9.1956144314\C,0,-8.7455482182,-1.74
 43891328,-10.1478319124\C,0,-7.948411144,-3.0361544734,-10.1829856328\
 O,0,-6.7407678453,-3.1010903941,-9.9273321399\C,0,-8.9669841794,-1.114
 1949642,-11.5488685807\C,0,-7.76116984,-0.8177283038,-12.4598522208\C,
 0,-6.6779481562,0.1202585006,-11.903950847\N,0,-5.7633828538,-0.652533
 4726,-11.0534677413\C,0,-4.9421199072,-0.179366458,-10.1222236923\N,0,
 -4.6943675627,1.1347305407,-9.9873737374\N,0,-4.281326441,-1.054777839
 9,-9.3329298105\O,0,-8.6640694148,-4.0833116225,-10.538420197\H,0,-8.1
 427984738,-4.9019586828,-10.3281244883\H,0,-7.2769528486,-1.1660756751
 ,-8.715494799\H,0,-9.7338946427,-2.0021725483,-9.7605321062\H,0,-9.641
 2591226,-1.784900883,-12.0937632513\H,0,-9.525371784,-0.1919402263,-11
 .3637623608\H,0,-7.2843200549,-1.750216052,-12.7952191484\H,0,-8.16001
 16274,-0.3548654006,-13.3690263752\H,0,-6.1043718963,0.5641772881,-12.
 7253590353\H,0,-7.1367724715,0.9274351068,-11.3215286839\H,0,-5.979790
 3695,-1.6402415833,-10.9517481049\H,0,-4.1951948525,1.4166432228,-9.14
 94877252\H,0,-5.3682580951,1.8059940215,-10.3403082683\H,0,-3.98449864
 46,-0.7101538987,-8.4202282372\H,0,-4.580774302,-2.020814067,-9.371393
 0142\\Version=ES64L-G16RevC.01\HF=-1917.5175162\RMSD=6.091e-09\Dipole=
 1.0514429,1.1831903,-2.0875104\Quadrupole=-15.8313606,-120.5785723,136
 .4099329,0.5439109,214.2096481,21.998802\PG=C01 [X(C23H36N9O7)]\\@
 The archive entry for this job was punched.


 Discoveries are often made by not following instructions,
 by going off the main road, by trying the untried.
 -- Frank Tyger
 Job cpu time:       0 days  0 hours  2 minutes 49.9 seconds.
 Elapsed time:       0 days  0 hours  0 minutes 43.3 seconds.
 File lengths (MBytes):  RWF=    344 Int=      0 D2E=      0 Chk=     48 Scr=     16
 Normal termination of Gaussian 16 at Fri Jun  3 06:26:24 2022.
