 Entering Gaussian System, Link 0=/opt/software/Gaussian/g16-AVX2-C.01/g16/g16
 Input=charge-conf-549.com
 Output=charge-conf-549.log
 Initial command:
 /opt/software/Gaussian/g16-AVX2-C.01/g16/l1.exe "/mnt/gs18/scratch/users/kengmith/Gau-106846.inp" -scrdir="/mnt/gs18/scratch/users/kengmith/"
 Entering Link 1 = /opt/software/Gaussian/g16-AVX2-C.01/g16/l1.exe PID=    106856.
  
 Copyright (c) 1988-2019, Gaussian, Inc.  All Rights Reserved.
  
 This is part of the Gaussian(R) 16 program.  It is based on
 the Gaussian(R) 09 system (copyright 2009, Gaussian, Inc.),
 the Gaussian(R) 03 system (copyright 2003, Gaussian, Inc.),
 the Gaussian(R) 98 system (copyright 1998, Gaussian, Inc.),
 the Gaussian(R) 94 system (copyright 1995, Gaussian, Inc.),
 the Gaussian 92(TM) system (copyright 1992, Gaussian, Inc.),
 the Gaussian 90(TM) system (copyright 1990, Gaussian, Inc.),
 the Gaussian 88(TM) system (copyright 1988, Gaussian, Inc.),
 the Gaussian 86(TM) system (copyright 1986, Carnegie Mellon
 University), and the Gaussian 82(TM) system (copyright 1983,
 Carnegie Mellon University). Gaussian is a federally registered
 trademark of Gaussian, Inc.
  
 This software contains proprietary and confidential information,
 including trade secrets, belonging to Gaussian, Inc.
  
 This software is provided under written license and may be
 used, copied, transmitted, or stored only in accord with that
 written license.
  
 The following legend is applicable only to US Government
 contracts under FAR:
  
                    RESTRICTED RIGHTS LEGEND
  
 Use, reproduction and disclosure by the US Government is
 subject to restrictions as set forth in subparagraphs (a)
 and (c) of the Commercial Computer Software - Restricted
 Rights clause in FAR 52.227-19.
  
 Gaussian, Inc.
 340 Quinnipiac St., Bldg. 40, Wallingford CT 06492
  
  
 ---------------------------------------------------------------
 Warning -- This program may not be used in any manner that
 competes with the business of Gaussian, Inc. or will provide
 assistance to any competitor of Gaussian, Inc.  The licensee
 of this program is prohibited from giving any competitor of
 Gaussian, Inc. access to this program.  By using this program,
 the user acknowledges that Gaussian, Inc. is engaged in the
 business of creating and licensing software in the field of
 computational chemistry and represents and warrants to the
 licensee that it is not a competitor of Gaussian, Inc. and that
 it will not use this program in any manner prohibited above.
 ---------------------------------------------------------------
  

 Cite this work as:
 Gaussian 16, Revision C.01,
 M. J. Frisch, G. W. Trucks, H. B. Schlegel, G. E. Scuseria, 
 M. A. Robb, J. R. Cheeseman, G. Scalmani, V. Barone, 
 G. A. Petersson, H. Nakatsuji, X. Li, M. Caricato, A. V. Marenich, 
 J. Bloino, B. G. Janesko, R. Gomperts, B. Mennucci, H. P. Hratchian, 
 J. V. Ortiz, A. F. Izmaylov, J. L. Sonnenberg, D. Williams-Young, 
 F. Ding, F. Lipparini, F. Egidi, J. Goings, B. Peng, A. Petrone, 
 T. Henderson, D. Ranasinghe, V. G. Zakrzewski, J. Gao, N. Rega, 
 G. Zheng, W. Liang, M. Hada, M. Ehara, K. Toyota, R. Fukuda, 
 J. Hasegawa, M. Ishida, T. Nakajima, Y. Honda, O. Kitao, H. Nakai, 
 T. Vreven, K. Throssell, J. A. Montgomery, Jr., J. E. Peralta, 
 F. Ogliaro, M. J. Bearpark, J. J. Heyd, E. N. Brothers, K. N. Kudin, 
 V. N. Staroverov, T. A. Keith, R. Kobayashi, J. Normand, 
 K. Raghavachari, A. P. Rendell, J. C. Burant, S. S. Iyengar, 
 J. Tomasi, M. Cossi, J. M. Millam, M. Klene, C. Adamo, R. Cammi, 
 J. W. Ochterski, R. L. Martin, K. Morokuma, O. Farkas, 
 J. B. Foresman, and D. J. Fox, Gaussian, Inc., Wallingford CT, 2019.
 
 ******************************************
 Gaussian 16:  ES64L-G16RevC.01  3-Jul-2019
                 3-Jun-2022 
 ******************************************
 %mem=8gb
 %nproc=4
 Will use up to    4 processors via shared memory.
 %chk=conf-549.chk
 ----------------------------------------------------------------------
 # B3LYP/6-31G* empiricaldispersion=gd3 guess=read geom=check nosymm in
 tegral(ultrafinegrid)
 ----------------------------------------------------------------------
 1/29=2,38=1,172=1/1;
 2/12=2,15=1,40=1/2;
 3/5=1,6=6,7=1,11=2,14=-4,25=1,30=1,74=-5,75=-5,116=-2,124=31/1,2,3;
 4/5=1/1;
 5/5=2,38=6/2;
 6/7=2,8=2,9=2,10=2,28=1/1;
 99/5=1,9=1/99;
 ------------------------------------------------------
 Candidate Structure: Conf:549 Charge calc in gas phase
 ------------------------------------------------------
 Structure from the checkpoint file:  "conf-549.chk"
 Charge =  1 Multiplicity = 1
 Redundant internal coordinates found in file.  (old form).
 N,0,-10.7041322534,-0.1869419231,-8.3468164902
 C,0,-10.4214481796,-1.4691922369,-7.703782425
 C,0,-9.6006795341,-1.3120025203,-6.402483053
 O,0,-9.990779813,-0.5911513597,-5.4945402338
 C,0,-9.8235554275,-2.4434498116,-8.7387317576
 C,0,-10.7443633168,-2.519910144,-9.9527414757
 N,0,-10.1216956031,-2.2444665002,-11.1892756692
 O,0,-11.927180674,-2.7572301796,-9.8674352429
 H,0,-11.3834543922,-1.8900343676,-7.3916859135
 H,0,-8.8168715887,-2.1333755409,-9.0332840036
 H,0,-9.7547783083,-3.4547521313,-8.3198665953
 H,0,-10.7273517921,-2.4601365946,-11.9781248137
 H,0,-9.1762648291,-2.6079614407,-11.2966295753
 H,0,-11.3637722413,0.3334576768,-7.772940878
 H,0,-9.8641456054,0.3880284441,-8.3930366131
 N,0,-8.3927713265,-1.974527748,-6.3285363717
 C,0,-7.676862348,-2.1437066357,-5.0713000135
 C,0,-6.1938211566,-1.8341183548,-5.300706453
 O,0,-5.3124289365,-2.6853779373,-5.105625393
 C,0,-7.8991643061,-3.5451274972,-4.4394992768
 C,0,-7.6837073378,-4.7058941087,-5.389242599
 C,0,-8.6986790059,-5.0821918561,-6.2821765315
 C,0,-6.4718862203,-5.4155533174,-5.4254495945
 C,0,-8.4958599641,-6.0965014986,-7.2228064604
 C,0,-6.2696835243,-6.4396093535,-6.3556703455
 C,0,-7.2745874828,-6.7717606636,-7.2701427612
 H,0,-8.1525327933,-2.6333615841,-7.054080927
 H,0,-8.094694814,-1.3963880555,-4.3879832522
 H,0,-7.2442261127,-3.6347648996,-3.5683300389
 H,0,-8.9328807042,-3.5567044337,-4.0775402324
 H,0,-9.665070798,-4.5874618801,-6.2264667105
 H,0,-5.6849357178,-5.1517621295,-4.72752579
 H,0,-9.2998977271,-6.3726374745,-7.8997765076
 H,0,-5.3292055998,-6.9840180703,-6.3598336812
 H,0,-7.1170245022,-7.5695165035,-7.9902547869
 N,0,-5.8557858238,-0.6073996668,-5.7692067288
 C,0,-6.6834859426,0.5675114122,-6.011267219
 C,0,-7.1917938596,0.7540068976,-7.4567796693
 O,0,-8.2295073741,1.3741282255,-7.6513298522
 C,0,-5.8981361818,1.836779813,-5.6109667329
 C,0,-4.5920719936,2.0223014661,-6.393699054
 N,0,-4.1151193583,3.2809290206,-6.4399900277
 O,0,-3.9947243479,1.0782359802,-6.9356979417
 H,0,-4.8641894203,-0.4652776397,-5.9308762808
 H,0,-7.59256464,0.5206329946,-5.4078117094
 H,0,-5.644502283,1.7773187534,-4.5448235651
 H,0,-6.5515012207,2.705319874,-5.7426850887
 H,0,-3.2131155575,3.445487488,-6.8683963473
 H,0,-4.5775863457,4.0559466507,-5.9858461851
 N,0,-6.4024804123,0.2793503003,-8.4630153064
 C,0,-6.6412798388,0.6974536066,-9.8466690263
 C,0,-7.5484058607,-0.3403803009,-10.5219085225
 O,0,-7.2217216597,-1.5195804537,-10.701858997
 C,0,-5.3305589161,0.9980220982,-10.6048074678
 C,0,-4.3945393305,-0.1438136689,-11.0502557889
 C,0,-3.7819379431,-1.0184435154,-9.9445978064
 N,0,-4.7574688807,-2.0246048696,-9.5059473371
 C,0,-4.7747109438,-2.6454014048,-8.3278364974
 N,0,-3.790397289,-2.505176629,-7.4266848274
 N,0,-5.8293977517,-3.434455676,-8.0260287871
 O,0,-8.7281276883,0.1467666521,-10.8253492936
 H,0,-9.365571996,-0.588480191,-11.0892618057
 H,0,-5.4673061408,0.0069130257,-8.1984757756
 H,0,-7.2218869834,1.6221427599,-9.7989327637
 H,0,-5.6103801117,1.555846046,-11.5059063376
 H,0,-4.7671335153,1.696966762,-9.9731817418
 H,0,-4.8965147776,-0.7895285443,-11.7800231816
 H,0,-3.5620492692,0.325410669,-11.5854422947
 H,0,-2.8891020953,-1.5281672293,-10.3236287542
 H,0,-3.4725654716,-0.383726168,-9.1014824259
 H,0,-5.63904489,-2.0334738543,-10.0348056724
 H,0,-4.024127148,-2.7210242578,-6.4487297674
 H,0,-3.0969773397,-1.7840902096,-7.5705952614
 H,0,-5.7866225647,-4.0444738484,-7.2128514912
 H,0,-6.4218836471,-3.7595724668,-8.7778468002
 Recover connectivity data from disk.
                           ----------------------------
                           !    Current Parameters    !
                           ! (Angstroms and Degrees)  !
 --------------------------                            --------------------------
 ! Name  Definition              Value                                          !
 --------------------------------------------------------------------------------
 ! R1    R(1,2)                  1.462                                          !
 ! R2    R(1,14)                 1.0175                                         !
 ! R3    R(1,15)                 1.019                                          !
 ! R4    R(2,3)                  1.5465                                         !
 ! R5    R(2,5)                  1.542                                          !
 ! R6    R(2,9)                  1.0954                                         !
 ! R7    R(3,4)                  1.2232                                         !
 ! R8    R(3,16)                 1.3797                                         !
 ! R9    R(5,6)                  1.5256                                         !
 ! R10   R(5,10)                 1.0938                                         !
 ! R11   R(5,11)                 1.0968                                         !
 ! R12   R(6,7)                  1.4116                                         !
 ! R13   R(6,8)                  1.2094                                         !
 ! R14   R(7,12)                 1.0177                                         !
 ! R15   R(7,13)                 1.0186                                         !
 ! R16   R(16,17)                1.4566                                         !
 ! R17   R(16,27)                1.0091                                         !
 ! R18   R(17,18)                1.5323                                         !
 ! R19   R(17,20)                1.5532                                         !
 ! R20   R(17,28)                1.0954                                         !
 ! R21   R(18,19)                1.2408                                         !
 ! R22   R(18,36)                1.3559                                         !
 ! R23   R(20,21)                1.5152                                         !
 ! R24   R(20,29)                1.0936                                         !
 ! R25   R(20,30)                1.0953                                         !
 ! R26   R(21,22)                1.4032                                         !
 ! R27   R(21,23)                1.4048                                         !
 ! R28   R(22,24)                1.3981                                         !
 ! R29   R(22,31)                1.0871                                         !
 ! R30   R(23,25)                1.3982                                         !
 ! R31   R(23,32)                1.0844                                         !
 ! R32   R(24,26)                1.3963                                         !
 ! R33   R(24,33)                1.0867                                         !
 ! R34   R(25,26)                1.3987                                         !
 ! R35   R(25,34)                1.0867                                         !
 ! R36   R(26,35)                1.0862                                         !
 ! R37   R(36,37)                1.4574                                         !
 ! R38   R(36,44)                1.0147                                         !
 ! R39   R(37,38)                1.5436                                         !
 ! R40   R(37,40)                1.5453                                         !
 ! R41   R(37,45)                1.0921                                         !
 ! R42   R(38,39)                1.2244                                         !
 ! R43   R(38,50)                1.3641                                         !
 ! R44   R(40,41)                1.5339                                         !
 ! R45   R(40,46)                1.0975                                         !
 ! R46   R(40,47)                1.0948                                         !
 ! R47   R(41,42)                1.3468                                         !
 ! R48   R(41,43)                1.2417                                         !
 ! R49   R(42,48)                1.012                                          !
 ! R50   R(42,49)                1.0103                                         !
 ! R51   R(50,51)                1.465                                          !
 ! R52   R(50,63)                1.0093                                         !
 ! R53   R(51,52)                1.5349                                         !
 ! R54   R(51,54)                1.5437                                         !
 ! R55   R(51,64)                1.0929                                         !
 ! R56   R(52,53)                1.2368                                         !
 ! R57   R(52,61)                1.3119                                         !
 ! R58   R(54,55)                1.5422                                         !
 ! R59   R(54,65)                1.0961                                         !
 ! R60   R(54,66)                1.0977                                         !
 ! R61   R(55,56)                1.5371                                         !
 ! R62   R(55,67)                1.0961                                         !
 ! R63   R(55,68)                1.0953                                         !
 ! R64   R(56,57)                1.4685                                         !
 ! R65   R(56,69)                1.0957                                         !
 ! R66   R(56,70)                1.0997                                         !
 ! R67   R(57,58)                1.3318                                         !
 ! R68   R(57,71)                1.0281                                         !
 ! R69   R(58,59)                1.3419                                         !
 ! R70   R(58,60)                1.3513                                         !
 ! R71   R(59,72)                1.0284                                         !
 ! R72   R(59,73)                1.0107                                         !
 ! R73   R(60,74)                1.0175                                         !
 ! R74   R(60,75)                1.0109                                         !
 ! R75   R(61,62)                1.0083                                         !
 ! A1    A(2,1,14)             109.0169                                         !
 ! A2    A(2,1,15)             110.8203                                         !
 ! A3    A(14,1,15)            105.7484                                         !
 ! A4    A(1,2,3)              112.5538                                         !
 ! A5    A(1,2,5)              109.5051                                         !
 ! A6    A(1,2,9)              107.0044                                         !
 ! A7    A(3,2,5)              115.0358                                         !
 ! A8    A(3,2,9)              105.3903                                         !
 ! A9    A(5,2,9)              106.7983                                         !
 ! A10   A(2,3,4)              121.0123                                         !
 ! A11   A(2,3,16)             117.4478                                         !
 ! A12   A(4,3,16)             121.4959                                         !
 ! A13   A(2,5,6)              109.3733                                         !
 ! A14   A(2,5,10)             111.0082                                         !
 ! A15   A(2,5,11)             110.5219                                         !
 ! A16   A(6,5,10)             110.8191                                         !
 ! A17   A(6,5,11)             107.1897                                         !
 ! A18   A(10,5,11)            107.8504                                         !
 ! A19   A(5,6,7)              114.9004                                         !
 ! A20   A(5,6,8)              122.9561                                         !
 ! A21   A(7,6,8)              122.1063                                         !
 ! A22   A(6,7,12)             112.0337                                         !
 ! A23   A(6,7,13)             115.6024                                         !
 ! A24   A(12,7,13)            113.2712                                         !
 ! A25   A(3,16,17)            122.1632                                         !
 ! A26   A(3,16,27)            118.9107                                         !
 ! A27   A(17,16,27)           115.3254                                         !
 ! A28   A(16,17,18)           108.8445                                         !
 ! A29   A(16,17,20)           112.6766                                         !
 ! A30   A(16,17,28)           105.7651                                         !
 ! A31   A(18,17,20)           112.44                                           !
 ! A32   A(18,17,28)           108.9489                                         !
 ! A33   A(20,17,28)           107.8908                                         !
 ! A34   A(17,18,19)           121.6931                                         !
 ! A35   A(17,18,36)           118.4117                                         !
 ! A36   A(19,18,36)           119.862                                          !
 ! A37   A(17,20,21)           114.5752                                         !
 ! A38   A(17,20,29)           108.1965                                         !
 ! A39   A(17,20,30)           106.2021                                         !
 ! A40   A(21,20,29)           110.5716                                         !
 ! A41   A(21,20,30)           109.4656                                         !
 ! A42   A(29,20,30)           107.5233                                         !
 ! A43   A(20,21,22)           120.0957                                         !
 ! A44   A(20,21,23)           121.7237                                         !
 ! A45   A(22,21,23)           118.1692                                         !
 ! A46   A(21,22,24)           121.1804                                         !
 ! A47   A(21,22,31)           119.2318                                         !
 ! A48   A(24,22,31)           119.5773                                         !
 ! A49   A(21,23,25)           120.7905                                         !
 ! A50   A(21,23,32)           119.1127                                         !
 ! A51   A(25,23,32)           120.093                                          !
 ! A52   A(22,24,26)           120.0349                                         !
 ! A53   A(22,24,33)           119.743                                          !
 ! A54   A(26,24,33)           120.2058                                         !
 ! A55   A(23,25,26)           120.3315                                         !
 ! A56   A(23,25,34)           119.6459                                         !
 ! A57   A(26,25,34)           120.0204                                         !
 ! A58   A(24,26,25)           119.4309                                         !
 ! A59   A(24,26,35)           120.3002                                         !
 ! A60   A(25,26,35)           120.241                                          !
 ! A61   A(18,36,37)           130.1752                                         !
 ! A62   A(18,36,44)           115.1753                                         !
 ! A63   A(37,36,44)           114.5581                                         !
 ! A64   A(36,37,38)           116.1007                                         !
 ! A65   A(36,37,40)           109.2989                                         !
 ! A66   A(36,37,45)           110.2643                                         !
 ! A67   A(38,37,40)           108.1013                                         !
 ! A68   A(38,37,45)           104.3897                                         !
 ! A69   A(40,37,45)           108.3697                                         !
 ! A70   A(37,38,39)           119.2793                                         !
 ! A71   A(37,38,50)           117.2706                                         !
 ! A72   A(39,38,50)           123.3263                                         !
 ! A73   A(37,40,41)           113.5703                                         !
 ! A74   A(37,40,46)           108.9402                                         !
 ! A75   A(37,40,47)           108.4905                                         !
 ! A76   A(41,40,46)           107.7871                                         !
 ! A77   A(41,40,47)           110.536                                          !
 ! A78   A(46,40,47)           107.3238                                         !
 ! A79   A(40,41,42)           115.6017                                         !
 ! A80   A(40,41,43)           122.7102                                         !
 ! A81   A(42,41,43)           121.6794                                         !
 ! A82   A(41,42,48)           118.8261                                         !
 ! A83   A(41,42,49)           122.6383                                         !
 ! A84   A(48,42,49)           118.2628                                         !
 ! A85   A(38,50,51)           120.202                                          !
 ! A86   A(38,50,63)           115.8935                                         !
 ! A87   A(51,50,63)           118.3976                                         !
 ! A88   A(50,51,52)           108.5935                                         !
 ! A89   A(50,51,54)           112.3954                                         !
 ! A90   A(50,51,64)           106.6667                                         !
 ! A91   A(52,51,54)           114.6701                                         !
 ! A92   A(52,51,64)           106.101                                          !
 ! A93   A(54,51,64)           107.9256                                         !
 ! A94   A(51,52,53)           123.5442                                         !
 ! A95   A(51,52,61)           112.4654                                         !
 ! A96   A(53,52,61)           123.9113                                         !
 ! A97   A(51,54,55)           120.8656                                         !
 ! A98   A(51,54,65)           106.6227                                         !
 ! A99   A(51,54,66)           106.0928                                         !
 ! A100  A(55,54,65)           107.115                                          !
 ! A101  A(55,54,66)           109.033                                          !
 ! A102  A(65,54,66)           106.262                                          !
 ! A103  A(54,55,56)           117.0917                                         !
 ! A104  A(54,55,67)           110.5186                                         !
 ! A105  A(54,55,68)           106.5747                                         !
 ! A106  A(56,55,67)           109.0389                                         !
 ! A107  A(56,55,68)           106.997                                          !
 ! A108  A(67,55,68)           105.9699                                         !
 ! A109  A(55,56,57)           109.8754                                         !
 ! A110  A(55,56,69)           109.9145                                         !
 ! A111  A(55,56,70)           109.5827                                         !
 ! A112  A(57,56,69)           109.0198                                         !
 ! A113  A(57,56,70)           110.6907                                         !
 ! A114  A(69,56,70)           107.7256                                         !
 ! A115  A(56,57,58)           126.3155                                         !
 ! A116  A(56,57,71)           114.9544                                         !
 ! A117  A(58,57,71)           116.0998                                         !
 ! A118  A(57,58,59)           122.4028                                         !
 ! A119  A(57,58,60)           118.6766                                         !
 ! A120  A(59,58,60)           118.9174                                         !
 ! A121  A(58,59,72)           116.7419                                         !
 ! A122  A(58,59,73)           118.8293                                         !
 ! A123  A(72,59,73)           116.1725                                         !
 ! A124  A(58,60,74)           119.7211                                         !
 ! A125  A(58,60,75)           118.628                                          !
 ! A126  A(74,60,75)           115.2268                                         !
 ! A127  A(52,61,62)           110.9947                                         !
 ! D1    D(14,1,2,3)           -69.3805                                         !
 ! D2    D(14,1,2,5)           161.3299                                         !
 ! D3    D(14,1,2,9)            45.9296                                         !
 ! D4    D(15,1,2,3)            46.6087                                         !
 ! D5    D(15,1,2,5)           -82.6809                                         !
 ! D6    D(15,1,2,9)           161.9188                                         !
 ! D7    D(1,2,3,4)             55.3817                                         !
 ! D8    D(1,2,3,16)          -122.2407                                         !
 ! D9    D(5,2,3,4)           -178.2472                                         !
 ! D10   D(5,2,3,16)             4.1305                                         !
 ! D11   D(9,2,3,4)            -60.8985                                         !
 ! D12   D(9,2,3,16)           121.4791                                         !
 ! D13   D(1,2,5,6)            -53.1348                                         !
 ! D14   D(1,2,5,10)            69.4546                                         !
 ! D15   D(1,2,5,11)          -170.9179                                         !
 ! D16   D(3,2,5,6)            178.9466                                         !
 ! D17   D(3,2,5,10)           -58.464                                          !
 ! D18   D(3,2,5,11)            61.1634                                         !
 ! D19   D(9,2,5,6)             62.397                                          !
 ! D20   D(9,2,5,10)          -175.0136                                         !
 ! D21   D(9,2,5,11)           -55.3861                                         !
 ! D22   D(2,3,16,17)         -166.3124                                         !
 ! D23   D(2,3,16,27)           -8.7141                                         !
 ! D24   D(4,3,16,17)           16.0774                                         !
 ! D25   D(4,3,16,27)          173.6758                                         !
 ! D26   D(2,5,6,7)            125.4276                                         !
 ! D27   D(2,5,6,8)            -52.3949                                         !
 ! D28   D(10,5,6,7)             2.7254                                         !
 ! D29   D(10,5,6,8)          -175.0971                                         !
 ! D30   D(11,5,6,7)          -114.7204                                         !
 ! D31   D(11,5,6,8)            67.4571                                         !
 ! D32   D(5,6,7,12)           170.273                                          !
 ! D33   D(5,6,7,13)            38.4722                                         !
 ! D34   D(8,6,7,12)           -11.884                                          !
 ! D35   D(8,6,7,13)          -143.6848                                         !
 ! D36   D(3,16,17,18)        -135.394                                          !
 ! D37   D(3,16,17,20)          99.1745                                         !
 ! D38   D(3,16,17,28)         -18.4654                                         !
 ! D39   D(27,16,17,18)         66.2644                                         !
 ! D40   D(27,16,17,20)        -59.1671                                         !
 ! D41   D(27,16,17,28)       -176.807                                          !
 ! D42   D(16,17,18,19)       -119.3595                                         !
 ! D43   D(16,17,18,36)         58.5388                                         !
 ! D44   D(20,17,18,19)          6.2098                                         !
 ! D45   D(20,17,18,36)       -175.8919                                         !
 ! D46   D(28,17,18,19)        125.7613                                         !
 ! D47   D(28,17,18,36)        -56.3404                                         !
 ! D48   D(16,17,20,21)         49.7223                                         !
 ! D49   D(16,17,20,29)        173.5738                                         !
 ! D50   D(16,17,20,30)        -71.2397                                         !
 ! D51   D(18,17,20,21)        -73.7338                                         !
 ! D52   D(18,17,20,29)         50.1177                                         !
 ! D53   D(18,17,20,30)        165.3042                                         !
 ! D54   D(28,17,20,21)        166.1008                                         !
 ! D55   D(28,17,20,29)        -70.0477                                         !
 ! D56   D(28,17,20,30)         45.1388                                         !
 ! D57   D(17,18,36,37)          5.5638                                         !
 ! D58   D(17,18,36,44)       -178.1475                                         !
 ! D59   D(19,18,36,37)       -176.4983                                         !
 ! D60   D(19,18,36,44)         -0.2096                                         !
 ! D61   D(17,20,21,22)        -81.0865                                         !
 ! D62   D(17,20,21,23)         97.6641                                         !
 ! D63   D(29,20,21,22)        156.3385                                         !
 ! D64   D(29,20,21,23)        -24.9109                                         !
 ! D65   D(30,20,21,22)         38.0606                                         !
 ! D66   D(30,20,21,23)       -143.1888                                         !
 ! D67   D(20,21,22,24)        176.1095                                         !
 ! D68   D(20,21,22,31)         -5.0742                                         !
 ! D69   D(23,21,22,24)         -2.6851                                         !
 ! D70   D(23,21,22,31)        176.1313                                         !
 ! D71   D(20,21,23,25)       -176.7463                                         !
 ! D72   D(20,21,23,32)          2.5442                                         !
 ! D73   D(22,21,23,25)          2.0275                                         !
 ! D74   D(22,21,23,32)       -178.6819                                         !
 ! D75   D(21,22,24,26)          1.1517                                         !
 ! D76   D(21,22,24,33)        179.6865                                         !
 ! D77   D(31,22,24,26)       -177.6606                                         !
 ! D78   D(31,22,24,33)          0.8742                                         !
 ! D79   D(21,23,25,26)          0.1549                                         !
 ! D80   D(21,23,25,34)       -179.3111                                         !
 ! D81   D(32,23,25,26)       -179.1287                                         !
 ! D82   D(32,23,25,34)          1.4053                                         !
 ! D83   D(22,24,26,25)          1.0895                                         !
 ! D84   D(22,24,26,35)        179.1741                                         !
 ! D85   D(33,24,26,25)       -177.4384                                         !
 ! D86   D(33,24,26,35)          0.6462                                         !
 ! D87   D(23,25,26,24)         -1.7351                                         !
 ! D88   D(23,25,26,35)       -179.8208                                         !
 ! D89   D(34,25,26,24)        177.7289                                         !
 ! D90   D(34,25,26,35)         -0.3568                                         !
 ! D91   D(18,36,37,38)        -95.5992                                         !
 ! D92   D(18,36,37,40)        141.8442                                         !
 ! D93   D(18,36,37,45)         22.8169                                         !
 ! D94   D(44,36,37,38)         88.0937                                         !
 ! D95   D(44,36,37,40)        -34.463                                          !
 ! D96   D(44,36,37,45)       -153.4902                                         !
 ! D97   D(36,37,38,39)        153.4699                                         !
 ! D98   D(36,37,38,50)        -30.4394                                         !
 ! D99   D(40,37,38,39)        -83.3461                                         !
 ! D100  D(40,37,38,50)         92.7445                                         !
 ! D101  D(45,37,38,39)         31.8779                                         !
 ! D102  D(45,37,38,50)       -152.0314                                         !
 ! D103  D(36,37,40,41)         59.9289                                         !
 ! D104  D(36,37,40,46)        -60.2087                                         !
 ! D105  D(36,37,40,47)       -176.7415                                         !
 ! D106  D(38,37,40,41)        -67.2912                                         !
 ! D107  D(38,37,40,46)        172.5712                                         !
 ! D108  D(38,37,40,47)         56.0384                                         !
 ! D109  D(45,37,40,41)       -179.8753                                         !
 ! D110  D(45,37,40,46)         59.9871                                         !
 ! D111  D(45,37,40,47)        -56.5457                                         !
 ! D112  D(37,38,50,51)       -165.0238                                         !
 ! D113  D(37,38,50,63)        -11.612                                          !
 ! D114  D(39,38,50,51)         10.8949                                         !
 ! D115  D(39,38,50,63)        164.3067                                         !
 ! D116  D(37,40,41,42)        157.9072                                         !
 ! D117  D(37,40,41,43)        -23.1443                                         !
 ! D118  D(46,40,41,42)        -81.3044                                         !
 ! D119  D(46,40,41,43)         97.644                                          !
 ! D120  D(47,40,41,42)         35.7039                                         !
 ! D121  D(47,40,41,43)       -145.3476                                         !
 ! D122  D(40,41,42,48)        174.3345                                         !
 ! D123  D(40,41,42,49)          0.4426                                         !
 ! D124  D(43,41,42,48)         -4.6259                                         !
 ! D125  D(43,41,42,49)       -178.5177                                         !
 ! D126  D(38,50,51,52)        -94.0193                                         !
 ! D127  D(38,50,51,54)        138.0338                                         !
 ! D128  D(38,50,51,64)         19.944                                          !
 ! D129  D(63,50,51,52)        113.2208                                         !
 ! D130  D(63,50,51,54)        -14.7261                                         !
 ! D131  D(63,50,51,64)       -132.8159                                         !
 ! D132  D(50,51,52,53)        -63.3822                                         !
 ! D133  D(50,51,52,61)        113.4926                                         !
 ! D134  D(54,51,52,53)         63.264                                          !
 ! D135  D(54,51,52,61)       -119.8612                                         !
 ! D136  D(64,51,52,53)       -177.7164                                         !
 ! D137  D(64,51,52,61)         -0.8416                                         !
 ! D138  D(50,51,54,55)         72.935                                          !
 ! D139  D(50,51,54,65)       -164.6375                                         !
 ! D140  D(50,51,54,66)        -51.6649                                         !
 ! D141  D(52,51,54,55)        -51.7298                                         !
 ! D142  D(52,51,54,65)         70.6976                                         !
 ! D143  D(52,51,54,66)       -176.3297                                         !
 ! D144  D(64,51,54,55)       -169.7213                                         !
 ! D145  D(64,51,54,65)        -47.2938                                         !
 ! D146  D(64,51,54,66)         65.6788                                         !
 ! D147  D(51,52,61,62)       -168.3408                                         !
 ! D148  D(53,52,61,62)          8.5205                                         !
 ! D149  D(51,54,55,56)        -61.9547                                         !
 ! D150  D(51,54,55,67)         63.6847                                         !
 ! D151  D(51,54,55,68)        178.3865                                         !
 ! D152  D(65,54,55,56)        175.8539                                         !
 ! D153  D(65,54,55,67)        -58.5067                                         !
 ! D154  D(65,54,55,68)         56.195                                          !
 ! D155  D(66,54,55,56)         61.2605                                         !
 ! D156  D(66,54,55,67)       -173.1002                                         !
 ! D157  D(66,54,55,68)        -58.3984                                         !
 ! D158  D(54,55,56,57)         80.5816                                         !
 ! D159  D(54,55,56,69)       -159.4485                                         !
 ! D160  D(54,55,56,70)        -41.2465                                         !
 ! D161  D(67,55,56,57)        -45.79                                           !
 ! D162  D(67,55,56,69)         74.1798                                         !
 ! D163  D(67,55,56,70)       -167.6182                                         !
 ! D164  D(68,55,56,57)       -159.9843                                         !
 ! D165  D(68,55,56,69)        -40.0144                                         !
 ! D166  D(68,55,56,70)         78.1876                                         !
 ! D167  D(55,56,57,58)       -156.5226                                         !
 ! D168  D(55,56,57,71)          4.2507                                         !
 ! D169  D(69,56,57,58)         82.9651                                         !
 ! D170  D(69,56,57,71)       -116.2617                                         !
 ! D171  D(70,56,57,58)        -35.3575                                         !
 ! D172  D(70,56,57,71)        125.4157                                         !
 ! D173  D(56,57,58,59)         -6.7075                                         !
 ! D174  D(56,57,58,60)        172.6301                                         !
 ! D175  D(71,57,58,59)       -167.289                                          !
 ! D176  D(71,57,58,60)         12.0486                                         !
 ! D177  D(57,58,59,72)        158.3637                                         !
 ! D178  D(57,58,59,73)         11.1058                                         !
 ! D179  D(60,58,59,72)        -20.9724                                         !
 ! D180  D(60,58,59,73)       -168.2303                                         !
 ! D181  D(57,58,60,74)        169.0427                                         !
 ! D182  D(57,58,60,75)         18.4993                                         !
 ! D183  D(59,58,60,74)        -11.5963                                         !
 ! D184  D(59,58,60,75)       -162.1397                                         !
 --------------------------------------------------------------------------------
 Symmetry turned off by external request.
 Stoichiometry    C23H36N9O7(1+)
 Framework group  C1[X(C23H36N9O7)]
 Deg. of freedom   219
 Full point group                 C1      NOp   1
                          Input orientation:                          
 ---------------------------------------------------------------------
 Center     Atomic      Atomic             Coordinates (Angstroms)
 Number     Number       Type             X           Y           Z
 ---------------------------------------------------------------------
      1          7           0      -10.704132   -0.186942   -8.346816
      2          6           0      -10.421448   -1.469192   -7.703782
      3          6           0       -9.600680   -1.312003   -6.402483
      4          8           0       -9.990780   -0.591151   -5.494540
      5          6           0       -9.823555   -2.443450   -8.738732
      6          6           0      -10.744363   -2.519910   -9.952741
      7          7           0      -10.121696   -2.244467  -11.189276
      8          8           0      -11.927181   -2.757230   -9.867435
      9          1           0      -11.383454   -1.890034   -7.391686
     10          1           0       -8.816872   -2.133376   -9.033284
     11          1           0       -9.754778   -3.454752   -8.319867
     12          1           0      -10.727352   -2.460137  -11.978125
     13          1           0       -9.176265   -2.607961  -11.296630
     14          1           0      -11.363772    0.333458   -7.772941
     15          1           0       -9.864146    0.388028   -8.393037
     16          7           0       -8.392771   -1.974528   -6.328536
     17          6           0       -7.676862   -2.143707   -5.071300
     18          6           0       -6.193821   -1.834118   -5.300706
     19          8           0       -5.312429   -2.685378   -5.105625
     20          6           0       -7.899164   -3.545127   -4.439499
     21          6           0       -7.683707   -4.705894   -5.389243
     22          6           0       -8.698679   -5.082192   -6.282177
     23          6           0       -6.471886   -5.415553   -5.425450
     24          6           0       -8.495860   -6.096501   -7.222806
     25          6           0       -6.269684   -6.439609   -6.355670
     26          6           0       -7.274587   -6.771761   -7.270143
     27          1           0       -8.152533   -2.633362   -7.054081
     28          1           0       -8.094695   -1.396388   -4.387983
     29          1           0       -7.244226   -3.634765   -3.568330
     30          1           0       -8.932881   -3.556704   -4.077540
     31          1           0       -9.665071   -4.587462   -6.226467
     32          1           0       -5.684936   -5.151762   -4.727526
     33          1           0       -9.299898   -6.372637   -7.899777
     34          1           0       -5.329206   -6.984018   -6.359834
     35          1           0       -7.117025   -7.569517   -7.990255
     36          7           0       -5.855786   -0.607400   -5.769207
     37          6           0       -6.683486    0.567511   -6.011267
     38          6           0       -7.191794    0.754007   -7.456780
     39          8           0       -8.229507    1.374128   -7.651330
     40          6           0       -5.898136    1.836780   -5.610967
     41          6           0       -4.592072    2.022301   -6.393699
     42          7           0       -4.115119    3.280929   -6.439990
     43          8           0       -3.994724    1.078236   -6.935698
     44          1           0       -4.864189   -0.465278   -5.930876
     45          1           0       -7.592565    0.520633   -5.407812
     46          1           0       -5.644502    1.777319   -4.544824
     47          1           0       -6.551501    2.705320   -5.742685
     48          1           0       -3.213116    3.445487   -6.868396
     49          1           0       -4.577586    4.055947   -5.985846
     50          7           0       -6.402480    0.279350   -8.463015
     51          6           0       -6.641280    0.697454   -9.846669
     52          6           0       -7.548406   -0.340380  -10.521909
     53          8           0       -7.221722   -1.519580  -10.701859
     54          6           0       -5.330559    0.998022  -10.604807
     55          6           0       -4.394539   -0.143814  -11.050256
     56          6           0       -3.781938   -1.018444   -9.944598
     57          7           0       -4.757469   -2.024605   -9.505947
     58          6           0       -4.774711   -2.645401   -8.327836
     59          7           0       -3.790397   -2.505177   -7.426685
     60          7           0       -5.829398   -3.434456   -8.026029
     61          8           0       -8.728128    0.146767  -10.825349
     62          1           0       -9.365572   -0.588480  -11.089262
     63          1           0       -5.467306    0.006913   -8.198476
     64          1           0       -7.221887    1.622143   -9.798933
     65          1           0       -5.610380    1.555846  -11.505906
     66          1           0       -4.767134    1.696967   -9.973182
     67          1           0       -4.896515   -0.789529  -11.780023
     68          1           0       -3.562049    0.325411  -11.585442
     69          1           0       -2.889102   -1.528167  -10.323629
     70          1           0       -3.472565   -0.383726   -9.101482
     71          1           0       -5.639045   -2.033474  -10.034806
     72          1           0       -4.024127   -2.721024   -6.448730
     73          1           0       -3.096977   -1.784090   -7.570595
     74          1           0       -5.786623   -4.044474   -7.212851
     75          1           0       -6.421884   -3.759572   -8.777847
 ---------------------------------------------------------------------
 Rotational constants (GHZ):           0.1150303           0.0947155           0.0799836
 Standard basis: 6-31G(d) (6D, 7F)
   657 basis functions,  1236 primitive gaussians,   657 cartesian basis functions
   146 alpha electrons      146 beta electrons
       nuclear repulsion energy      5266.2311008605 Hartrees.
 NAtoms=   75 NActive=   75 NUniq=   75 SFac= 1.00D+00 NAtFMM=   60 NAOKFM=T Big=T
 Integral buffers will be    131072 words long.
 Raffenetti 2 integral format.
 Two-electron integral symmetry is turned off.
 Nuclear repulsion after empirical dispersion term =     5266.1019563271 Hartrees.
 One-electron integrals computed using PRISM.
 NBasis=   657 RedAO= T EigKep=  4.71D-04  NBF=   657
 NBsUse=   657 1.00D-06 EigRej= -1.00D+00 NBFU=   657
 Initial guess from the checkpoint file:  "conf-549.chk"
 B after Tr=     0.000000    0.000000    0.000000
         Rot=    1.000000    0.000000    0.000000    0.000000 Ang=   0.00 deg.
 Requested convergence on RMS density matrix=1.00D-08 within 128 cycles.
 Requested convergence on MAX density matrix=1.00D-06.
 Requested convergence on             energy=1.00D-06.
 No special actions if energy rises.
 SCF Done:  E(RB3LYP) =  -1917.51396962     A.U. after    3 cycles
            NFock=  3  Conv=0.10D-08     -V/T= 2.0093

 **********************************************************************

            Population analysis using the SCF Density.

 **********************************************************************

 Alpha  occ. eigenvalues --  -19.30374 -19.27089 -19.25414 -19.24107 -19.23380
 Alpha  occ. eigenvalues --  -19.21444 -19.20752 -14.50105 -14.50060 -14.49864
 Alpha  occ. eigenvalues --  -14.48999 -14.47964 -14.47952 -14.46154 -14.45654
 Alpha  occ. eigenvalues --  -14.38709 -10.46730 -10.44656 -10.42992 -10.41126
 Alpha  occ. eigenvalues --  -10.40479 -10.38817 -10.37811 -10.36064 -10.35999
 Alpha  occ. eigenvalues --  -10.35712 -10.34184 -10.32942 -10.31789 -10.31710
 Alpha  occ. eigenvalues --  -10.31415 -10.29701 -10.29300 -10.29039 -10.28946
 Alpha  occ. eigenvalues --  -10.28866 -10.28799 -10.28730 -10.28467  -1.22433
 Alpha  occ. eigenvalues --   -1.16925  -1.16063  -1.15457  -1.15217  -1.13463
 Alpha  occ. eigenvalues --   -1.13287  -1.12787  -1.05505  -1.04786  -1.04032
 Alpha  occ. eigenvalues --   -1.03782  -1.03377  -1.02420  -1.00042  -0.96697
 Alpha  occ. eigenvalues --   -0.95362  -0.92585  -0.90663  -0.88658  -0.87553
 Alpha  occ. eigenvalues --   -0.85480  -0.84205  -0.83506  -0.81886  -0.80113
 Alpha  occ. eigenvalues --   -0.77286  -0.77182  -0.74961  -0.74842  -0.73196
 Alpha  occ. eigenvalues --   -0.72257  -0.70975  -0.70434  -0.70235  -0.69718
 Alpha  occ. eigenvalues --   -0.69118  -0.68718  -0.67398  -0.66680  -0.66344
 Alpha  occ. eigenvalues --   -0.65372  -0.64411  -0.63531  -0.62929  -0.62543
 Alpha  occ. eigenvalues --   -0.62199  -0.61560  -0.61324  -0.60814  -0.60414
 Alpha  occ. eigenvalues --   -0.59379  -0.59033  -0.58581  -0.58103  -0.57621
 Alpha  occ. eigenvalues --   -0.57448  -0.56800  -0.56501  -0.55501  -0.55362
 Alpha  occ. eigenvalues --   -0.54967  -0.54487  -0.53931  -0.53751  -0.53601
 Alpha  occ. eigenvalues --   -0.53163  -0.52924  -0.52543  -0.52036  -0.51822
 Alpha  occ. eigenvalues --   -0.51362  -0.50994  -0.50602  -0.50325  -0.49680
 Alpha  occ. eigenvalues --   -0.49226  -0.48882  -0.48663  -0.48181  -0.47732
 Alpha  occ. eigenvalues --   -0.47230  -0.47125  -0.47006  -0.46359  -0.45559
 Alpha  occ. eigenvalues --   -0.45014  -0.43689  -0.43598  -0.43468  -0.43115
 Alpha  occ. eigenvalues --   -0.42084  -0.41082  -0.40487  -0.40292  -0.39733
 Alpha  occ. eigenvalues --   -0.39076  -0.38603  -0.38360  -0.37375  -0.36054
 Alpha  occ. eigenvalues --   -0.35608  -0.35331  -0.34862  -0.34335  -0.33873
 Alpha  occ. eigenvalues --   -0.31326
 Alpha virt. eigenvalues --   -0.12423  -0.11899  -0.11301  -0.10969  -0.10504
 Alpha virt. eigenvalues --   -0.09983  -0.09517  -0.08019  -0.07140  -0.05968
 Alpha virt. eigenvalues --   -0.04465  -0.03539  -0.02487  -0.01127  -0.00659
 Alpha virt. eigenvalues --   -0.00077   0.00274   0.00924   0.01265   0.01534
 Alpha virt. eigenvalues --    0.01879   0.02038   0.02760   0.03194   0.03264
 Alpha virt. eigenvalues --    0.03722   0.04065   0.04496   0.04543   0.04827
 Alpha virt. eigenvalues --    0.05116   0.05471   0.05653   0.05840   0.06521
 Alpha virt. eigenvalues --    0.06580   0.06870   0.07209   0.07602   0.07993
 Alpha virt. eigenvalues --    0.08187   0.08479   0.08847   0.08959   0.09660
 Alpha virt. eigenvalues --    0.10352   0.10777   0.11062   0.11190   0.11560
 Alpha virt. eigenvalues --    0.11829   0.12321   0.12987   0.13392   0.13986
 Alpha virt. eigenvalues --    0.14193   0.14527   0.14966   0.15961   0.16209
 Alpha virt. eigenvalues --    0.16706   0.17434   0.18664   0.19083   0.19552
 Alpha virt. eigenvalues --    0.21427   0.21919   0.22422   0.23035   0.23409
 Alpha virt. eigenvalues --    0.23884   0.24464   0.25043   0.25177   0.25938
 Alpha virt. eigenvalues --    0.26415   0.27277   0.27363   0.28514   0.28918
 Alpha virt. eigenvalues --    0.29860   0.30622   0.33996   0.34968   0.36716
 Alpha virt. eigenvalues --    0.37437   0.38084   0.39646   0.39977   0.40234
 Alpha virt. eigenvalues --    0.40708   0.41015   0.41397   0.41620   0.42367
 Alpha virt. eigenvalues --    0.43116   0.43780   0.44131   0.44939   0.44943
 Alpha virt. eigenvalues --    0.45511   0.45558   0.46273   0.46497   0.47279
 Alpha virt. eigenvalues --    0.48046   0.48232   0.48402   0.48653   0.48977
 Alpha virt. eigenvalues --    0.49676   0.50004   0.50162   0.51196   0.51447
 Alpha virt. eigenvalues --    0.51649   0.52017   0.52194   0.52386   0.52792
 Alpha virt. eigenvalues --    0.52905   0.53433   0.54070   0.54530   0.55015
 Alpha virt. eigenvalues --    0.55479   0.55747   0.55899   0.56403   0.56843
 Alpha virt. eigenvalues --    0.57008   0.57504   0.58328   0.59104   0.59770
 Alpha virt. eigenvalues --    0.59820   0.60432   0.60827   0.61231   0.62513
 Alpha virt. eigenvalues --    0.62664   0.63179   0.63721   0.64105   0.64562
 Alpha virt. eigenvalues --    0.65184   0.66087   0.66129   0.67618   0.67795
 Alpha virt. eigenvalues --    0.68416   0.68666   0.69787   0.70228   0.70815
 Alpha virt. eigenvalues --    0.71041   0.71783   0.72238   0.72801   0.73163
 Alpha virt. eigenvalues --    0.73661   0.73843   0.74078   0.74500   0.74760
 Alpha virt. eigenvalues --    0.75147   0.75427   0.75520   0.75624   0.76522
 Alpha virt. eigenvalues --    0.76850   0.77167   0.77204   0.77772   0.78229
 Alpha virt. eigenvalues --    0.78502   0.78709   0.79280   0.79811   0.80291
 Alpha virt. eigenvalues --    0.80581   0.80807   0.81280   0.81944   0.82254
 Alpha virt. eigenvalues --    0.82809   0.83087   0.83299   0.83805   0.84161
 Alpha virt. eigenvalues --    0.84386   0.84454   0.84674   0.85718   0.86182
 Alpha virt. eigenvalues --    0.86884   0.87061   0.87471   0.87890   0.88353
 Alpha virt. eigenvalues --    0.88803   0.89449   0.90197   0.91421   0.91901
 Alpha virt. eigenvalues --    0.92353   0.92884   0.94057   0.94650   0.95360
 Alpha virt. eigenvalues --    0.96280   0.96400   0.96904   0.97812   0.99061
 Alpha virt. eigenvalues --    0.99682   1.00232   1.00724   1.00866   1.01913
 Alpha virt. eigenvalues --    1.02466   1.02706   1.02994   1.03332   1.04218
 Alpha virt. eigenvalues --    1.05085   1.05867   1.06819   1.07289   1.08195
 Alpha virt. eigenvalues --    1.08697   1.09290   1.10123   1.11381   1.12043
 Alpha virt. eigenvalues --    1.12306   1.13083   1.14745   1.15325   1.16019
 Alpha virt. eigenvalues --    1.16538   1.17323   1.18259   1.18614   1.19502
 Alpha virt. eigenvalues --    1.19966   1.20470   1.21900   1.22448   1.23103
 Alpha virt. eigenvalues --    1.23381   1.23918   1.24859   1.26760   1.27395
 Alpha virt. eigenvalues --    1.27928   1.28304   1.30827   1.31476   1.32026
 Alpha virt. eigenvalues --    1.32633   1.32731   1.33445   1.33944   1.34195
 Alpha virt. eigenvalues --    1.35149   1.35751   1.36876   1.37736   1.38109
 Alpha virt. eigenvalues --    1.38971   1.39213   1.39804   1.40836   1.41331
 Alpha virt. eigenvalues --    1.41769   1.42505   1.43350   1.44692   1.45266
 Alpha virt. eigenvalues --    1.45679   1.47197   1.47668   1.49875   1.50020
 Alpha virt. eigenvalues --    1.50526   1.51507   1.53026   1.53247   1.54298
 Alpha virt. eigenvalues --    1.55363   1.57013   1.57413   1.58109   1.58502
 Alpha virt. eigenvalues --    1.59680   1.61090   1.61625   1.62506   1.63049
 Alpha virt. eigenvalues --    1.63669   1.64275   1.65133   1.65312   1.66303
 Alpha virt. eigenvalues --    1.66542   1.67324   1.68346   1.69137   1.69564
 Alpha virt. eigenvalues --    1.70342   1.70490   1.70845   1.71730   1.72086
 Alpha virt. eigenvalues --    1.72632   1.73085   1.73731   1.74001   1.74604
 Alpha virt. eigenvalues --    1.75324   1.75539   1.75997   1.76566   1.77042
 Alpha virt. eigenvalues --    1.77796   1.78790   1.79049   1.79267   1.79754
 Alpha virt. eigenvalues --    1.79862   1.80474   1.81370   1.81688   1.82056
 Alpha virt. eigenvalues --    1.82519   1.83023   1.83695   1.84090   1.85424
 Alpha virt. eigenvalues --    1.85831   1.86553   1.86968   1.88014   1.88617
 Alpha virt. eigenvalues --    1.89327   1.89603   1.90539   1.91089   1.91962
 Alpha virt. eigenvalues --    1.92620   1.92919   1.93335   1.93663   1.94498
 Alpha virt. eigenvalues --    1.95115   1.96204   1.96502   1.97710   1.98928
 Alpha virt. eigenvalues --    2.00148   2.00966   2.01224   2.02130   2.02713
 Alpha virt. eigenvalues --    2.02955   2.04608   2.04753   2.05296   2.05705
 Alpha virt. eigenvalues --    2.06507   2.07071   2.07636   2.08043   2.09356
 Alpha virt. eigenvalues --    2.09449   2.10832   2.11590   2.12322   2.13137
 Alpha virt. eigenvalues --    2.13707   2.13968   2.14559   2.15080   2.15989
 Alpha virt. eigenvalues --    2.16286   2.17356   2.18442   2.20225   2.20453
 Alpha virt. eigenvalues --    2.21346   2.22242   2.22667   2.23533   2.25321
 Alpha virt. eigenvalues --    2.25922   2.26265   2.28431   2.29325   2.30286
 Alpha virt. eigenvalues --    2.30604   2.31612   2.31851   2.32853   2.34488
 Alpha virt. eigenvalues --    2.35010   2.36075   2.36623   2.37694   2.38396
 Alpha virt. eigenvalues --    2.38944   2.39271   2.40862   2.42705   2.43267
 Alpha virt. eigenvalues --    2.44980   2.45754   2.46002   2.47368   2.47898
 Alpha virt. eigenvalues --    2.48326   2.48921   2.49468   2.49591   2.50530
 Alpha virt. eigenvalues --    2.50912   2.52089   2.52136   2.52693   2.53047
 Alpha virt. eigenvalues --    2.54117   2.55106   2.55621   2.56116   2.59010
 Alpha virt. eigenvalues --    2.59595   2.60228   2.61607   2.62633   2.63464
 Alpha virt. eigenvalues --    2.64212   2.64306   2.64952   2.65186   2.66214
 Alpha virt. eigenvalues --    2.67041   2.68879   2.70196   2.70701   2.73019
 Alpha virt. eigenvalues --    2.76202   2.79926   2.80725   2.81190   2.86272
 Alpha virt. eigenvalues --    2.88587   2.89879   2.90055   2.90523   2.91353
 Alpha virt. eigenvalues --    2.92790   2.93569   2.94103   2.95797   2.96191
 Alpha virt. eigenvalues --    2.96671   2.97151   2.99487   3.03831   3.06440
 Alpha virt. eigenvalues --    3.09607   3.30664   3.68408   3.74239   3.79625
 Alpha virt. eigenvalues --    3.81397   3.82951   3.88716   3.91595   3.94353
 Alpha virt. eigenvalues --    3.96726   3.99685   4.00668   4.00863   4.03381
 Alpha virt. eigenvalues --    4.03693   4.03936   4.07622   4.11751   4.12721
 Alpha virt. eigenvalues --    4.13580   4.15399   4.18441   4.18674   4.20555
 Alpha virt. eigenvalues --    4.24131   4.27334   4.28773   4.30742   4.34075
 Alpha virt. eigenvalues --    4.34783   4.39623   4.41662   4.43696   4.44680
 Alpha virt. eigenvalues --    4.48161   4.56187   4.58143   4.64183   4.65496
 Alpha virt. eigenvalues --    4.68359
          Condensed to atoms (all electrons):
 Mulliken charges:
               1
     1  N   -0.740454
     2  C   -0.065631
     3  C    0.604009
     4  O   -0.511856
     5  C   -0.433025
     6  C    0.617433
     7  N   -0.818194
     8  O   -0.441554
     9  H    0.201754
    10  H    0.145765
    11  H    0.173345
    12  H    0.357838
    13  H    0.357208
    14  H    0.328860
    15  H    0.348050
    16  N   -0.632841
    17  C   -0.081604
    18  C    0.635989
    19  O   -0.561646
    20  C   -0.345487
    21  C    0.149286
    22  C   -0.206312
    23  C   -0.213744
    24  C   -0.142847
    25  C   -0.146982
    26  C   -0.139206
    27  H    0.354689
    28  H    0.212288
    29  H    0.180157
    30  H    0.180439
    31  H    0.152376
    32  H    0.166306
    33  H    0.156869
    34  H    0.156559
    35  H    0.156203
    36  N   -0.617674
    37  C   -0.074138
    38  C    0.629420
    39  O   -0.512311
    40  C   -0.398032
    41  C    0.614397
    42  N   -0.724791
    43  O   -0.562375
    44  H    0.356328
    45  H    0.224762
    46  H    0.214829
    47  H    0.208219
    48  H    0.366371
    49  H    0.369680
    50  N   -0.634097
    51  C   -0.053587
    52  C    0.637938
    53  O   -0.545993
    54  C   -0.312221
    55  C   -0.311540
    56  C   -0.175885
    57  N   -0.631368
    58  C    0.758718
    59  N   -0.764840
    60  N   -0.794366
    61  O   -0.543453
    62  H    0.473010
    63  H    0.370808
    64  H    0.216066
    65  H    0.187623
    66  H    0.171325
    67  H    0.179835
    68  H    0.183538
    69  H    0.196591
    70  H    0.181513
    71  H    0.409509
    72  H    0.406566
    73  H    0.372980
    74  H    0.401501
    75  H    0.371108
 Sum of Mulliken charges =   1.00000
 Mulliken charges with hydrogens summed into heavy atoms:
               1
     1  N   -0.063545
     2  C    0.136122
     3  C    0.604009
     4  O   -0.511856
     5  C   -0.113915
     6  C    0.617433
     7  N   -0.103148
     8  O   -0.441554
    16  N   -0.278152
    17  C    0.130684
    18  C    0.635989
    19  O   -0.561646
    20  C    0.015109
    21  C    0.149286
    22  C   -0.053936
    23  C   -0.047438
    24  C    0.014022
    25  C    0.009576
    26  C    0.016996
    36  N   -0.261346
    37  C    0.150623
    38  C    0.629420
    39  O   -0.512311
    40  C    0.025017
    41  C    0.614397
    42  N    0.011259
    43  O   -0.562375
    50  N   -0.263289
    51  C    0.162479
    52  C    0.637938
    53  O   -0.545993
    54  C    0.046727
    55  C    0.051834
    56  C    0.202219
    57  N   -0.221858
    58  C    0.758718
    59  N    0.014706
    60  N   -0.021757
    61  O   -0.070443
 Electronic spatial extent (au):  <R**2>=         133984.7807
 Charge=              1.0000 electrons
 Dipole moment (field-independent basis, Debye):
    X=            -22.4493    Y=             -4.2043    Z=            -39.8542  Tot=             45.9348
 Quadrupole moment (field-independent basis, Debye-Ang):
   XX=           -133.1432   YY=           -161.6930   ZZ=            139.0556
   XY=             41.5188   XZ=            192.3906   YZ=             47.9238
 Traceless Quadrupole moment (field-independent basis, Debye-Ang):
   XX=            -81.2163   YY=           -109.7661   ZZ=            190.9824
   XY=             41.5188   XZ=            192.3906   YZ=             47.9238
 Octapole moment (field-independent basis, Debye-Ang**2):
  XXX=           4743.3252  YYY=            940.1873  ZZZ=           1601.2862  XYY=           1242.6703
  XXY=             17.4509  XXZ=            879.4520  XZZ=           -258.7981  YZZ=           -157.2359
  YYZ=           1249.6854  XYZ=           -415.7160
 Hexadecapole moment (field-independent basis, Debye-Ang**3):
 XXXX=         -81299.2255 YYYY=          -9865.8303 ZZZZ=         -47973.3209 XXXY=          -6212.1912
 XXXZ=         -35839.3288 YYYX=          -7450.1870 YYYZ=          -6288.4337 ZZZX=         -17509.3702
 ZZZY=          -2212.0647 XXYY=         -12282.4236 XXZZ=         -17512.3962 YYZZ=         -12327.7085
 XXYZ=            652.3538 YYXZ=          -9551.8068 ZZXY=           1448.4702
 N-N= 5.266101956327D+03 E-N=-1.497045585328D+04  KE= 1.899792779046D+03
 Unable to Open any file for archive entry.
 1\1\GINC-NAL-000\SP\RB3LYP\6-31G(d)\C23H36N9O7(1+)\KENGMITH\03-Jun-202
 2\0\\# B3LYP/6-31G* empiricaldispersion=gd3 guess=read geom=check nosy
 mm integral(ultrafinegrid)\\Candidate Structure: Conf:549 Charge calc 
 in gas phase\\1,1\N,0,-10.7041322534,-0.1869419231,-8.3468164902\C,0,-
 10.4214481796,-1.4691922369,-7.703782425\C,0,-9.6006795341,-1.31200252
 03,-6.402483053\O,0,-9.990779813,-0.5911513597,-5.4945402338\C,0,-9.82
 35554275,-2.4434498116,-8.7387317576\C,0,-10.7443633168,-2.519910144,-
 9.9527414757\N,0,-10.1216956031,-2.2444665002,-11.1892756692\O,0,-11.9
 27180674,-2.7572301796,-9.8674352429\H,0,-11.3834543922,-1.8900343676,
 -7.3916859135\H,0,-8.8168715887,-2.1333755409,-9.0332840036\H,0,-9.754
 7783083,-3.4547521313,-8.3198665953\H,0,-10.7273517921,-2.4601365946,-
 11.9781248137\H,0,-9.1762648291,-2.6079614407,-11.2966295753\H,0,-11.3
 637722413,0.3334576768,-7.772940878\H,0,-9.8641456054,0.3880284441,-8.
 3930366131\N,0,-8.3927713265,-1.974527748,-6.3285363717\C,0,-7.6768623
 48,-2.1437066357,-5.0713000135\C,0,-6.1938211566,-1.8341183548,-5.3007
 06453\O,0,-5.3124289365,-2.6853779373,-5.105625393\C,0,-7.8991643061,-
 3.5451274972,-4.4394992768\C,0,-7.6837073378,-4.7058941087,-5.38924259
 9\C,0,-8.6986790059,-5.0821918561,-6.2821765315\C,0,-6.4718862203,-5.4
 155533174,-5.4254495945\C,0,-8.4958599641,-6.0965014986,-7.2228064604\
 C,0,-6.2696835243,-6.4396093535,-6.3556703455\C,0,-7.2745874828,-6.771
 7606636,-7.2701427612\H,0,-8.1525327933,-2.6333615841,-7.054080927\H,0
 ,-8.094694814,-1.3963880555,-4.3879832522\H,0,-7.2442261127,-3.6347648
 996,-3.5683300389\H,0,-8.9328807042,-3.5567044337,-4.0775402324\H,0,-9
 .665070798,-4.5874618801,-6.2264667105\H,0,-5.6849357178,-5.1517621295
 ,-4.72752579\H,0,-9.2998977271,-6.3726374745,-7.8997765076\H,0,-5.3292
 055998,-6.9840180703,-6.3598336812\H,0,-7.1170245022,-7.5695165035,-7.
 9902547869\N,0,-5.8557858238,-0.6073996668,-5.7692067288\C,0,-6.683485
 9426,0.5675114122,-6.011267219\C,0,-7.1917938596,0.7540068976,-7.45677
 96693\O,0,-8.2295073741,1.3741282255,-7.6513298522\C,0,-5.8981361818,1
 .836779813,-5.6109667329\C,0,-4.5920719936,2.0223014661,-6.393699054\N
 ,0,-4.1151193583,3.2809290206,-6.4399900277\O,0,-3.9947243479,1.078235
 9802,-6.9356979417\H,0,-4.8641894203,-0.4652776397,-5.9308762808\H,0,-
 7.59256464,0.5206329946,-5.4078117094\H,0,-5.644502283,1.7773187534,-4
 .5448235651\H,0,-6.5515012207,2.705319874,-5.7426850887\H,0,-3.2131155
 575,3.445487488,-6.8683963473\H,0,-4.5775863457,4.0559466507,-5.985846
 1851\N,0,-6.4024804123,0.2793503003,-8.4630153064\C,0,-6.6412798388,0.
 6974536066,-9.8466690263\C,0,-7.5484058607,-0.3403803009,-10.521908522
 5\O,0,-7.2217216597,-1.5195804537,-10.701858997\C,0,-5.3305589161,0.99
 80220982,-10.6048074678\C,0,-4.3945393305,-0.1438136689,-11.0502557889
 \C,0,-3.7819379431,-1.0184435154,-9.9445978064\N,0,-4.7574688807,-2.02
 46048696,-9.5059473371\C,0,-4.7747109438,-2.6454014048,-8.3278364974\N
 ,0,-3.790397289,-2.505176629,-7.4266848274\N,0,-5.8293977517,-3.434455
 676,-8.0260287871\O,0,-8.7281276883,0.1467666521,-10.8253492936\H,0,-9
 .365571996,-0.588480191,-11.0892618057\H,0,-5.4673061408,0.0069130257,
 -8.1984757756\H,0,-7.2218869834,1.6221427599,-9.7989327637\H,0,-5.6103
 801117,1.555846046,-11.5059063376\H,0,-4.7671335153,1.696966762,-9.973
 1817418\H,0,-4.8965147776,-0.7895285443,-11.7800231816\H,0,-3.56204926
 92,0.325410669,-11.5854422947\H,0,-2.8891020953,-1.5281672293,-10.3236
 287542\H,0,-3.4725654716,-0.383726168,-9.1014824259\H,0,-5.63904489,-2
 .0334738543,-10.0348056724\H,0,-4.024127148,-2.7210242578,-6.448729767
 4\H,0,-3.0969773397,-1.7840902096,-7.5705952614\H,0,-5.7866225647,-4.0
 444738484,-7.2128514912\H,0,-6.4218836471,-3.7595724668,-8.7778468002\
 \Version=ES64L-G16RevC.01\HF=-1917.5139696\RMSD=1.004e-09\Dipole=4.665
 682,1.1963576,-1.0688426\Quadrupole=-60.382339,-81.6084314,141.9907704
 ,30.8681957,143.0377129,35.6301458\PG=C01 [X(C23H36N9O7)]\\@
 The archive entry for this job was punched.


 TOM, TOM, THE BURGLAR'S SON
 STOLE A MACHINE AND AWAY HE RUN
 THE JOB WAS NEAT, BUT TOM GOT BEAT
 BY THE TIME HE GOT HOME IT WAS OBSOLETE.
 Job cpu time:       0 days  0 hours  4 minutes 23.8 seconds.
 Elapsed time:       0 days  0 hours  1 minutes  6.8 seconds.
 File lengths (MBytes):  RWF=    344 Int=      0 D2E=      0 Chk=     48 Scr=     16
 Normal termination of Gaussian 16 at Fri Jun  3 06:16:53 2022.
