 Entering Gaussian System, Link 0=/opt/software/Gaussian/g16-AVX2-C.01/g16/g16
 Input=charge-conf-34.com
 Output=charge-conf-34.log
 Initial command:
 /opt/software/Gaussian/g16-AVX2-C.01/g16/l1.exe "/mnt/gs18/scratch/users/kengmith/Gau-11823.inp" -scrdir="/mnt/gs18/scratch/users/kengmith/"
 Entering Link 1 = /opt/software/Gaussian/g16-AVX2-C.01/g16/l1.exe PID=     11833.
  
 Copyright (c) 1988-2019, Gaussian, Inc.  All Rights Reserved.
  
 This is part of the Gaussian(R) 16 program.  It is based on
 the Gaussian(R) 09 system (copyright 2009, Gaussian, Inc.),
 the Gaussian(R) 03 system (copyright 2003, Gaussian, Inc.),
 the Gaussian(R) 98 system (copyright 1998, Gaussian, Inc.),
 the Gaussian(R) 94 system (copyright 1995, Gaussian, Inc.),
 the Gaussian 92(TM) system (copyright 1992, Gaussian, Inc.),
 the Gaussian 90(TM) system (copyright 1990, Gaussian, Inc.),
 the Gaussian 88(TM) system (copyright 1988, Gaussian, Inc.),
 the Gaussian 86(TM) system (copyright 1986, Carnegie Mellon
 University), and the Gaussian 82(TM) system (copyright 1983,
 Carnegie Mellon University). Gaussian is a federally registered
 trademark of Gaussian, Inc.
  
 This software contains proprietary and confidential information,
 including trade secrets, belonging to Gaussian, Inc.
  
 This software is provided under written license and may be
 used, copied, transmitted, or stored only in accord with that
 written license.
  
 The following legend is applicable only to US Government
 contracts under FAR:
  
                    RESTRICTED RIGHTS LEGEND
  
 Use, reproduction and disclosure by the US Government is
 subject to restrictions as set forth in subparagraphs (a)
 and (c) of the Commercial Computer Software - Restricted
 Rights clause in FAR 52.227-19.
  
 Gaussian, Inc.
 340 Quinnipiac St., Bldg. 40, Wallingford CT 06492
  
  
 ---------------------------------------------------------------
 Warning -- This program may not be used in any manner that
 competes with the business of Gaussian, Inc. or will provide
 assistance to any competitor of Gaussian, Inc.  The licensee
 of this program is prohibited from giving any competitor of
 Gaussian, Inc. access to this program.  By using this program,
 the user acknowledges that Gaussian, Inc. is engaged in the
 business of creating and licensing software in the field of
 computational chemistry and represents and warrants to the
 licensee that it is not a competitor of Gaussian, Inc. and that
 it will not use this program in any manner prohibited above.
 ---------------------------------------------------------------
  

 Cite this work as:
 Gaussian 16, Revision C.01,
 M. J. Frisch, G. W. Trucks, H. B. Schlegel, G. E. Scuseria, 
 M. A. Robb, J. R. Cheeseman, G. Scalmani, V. Barone, 
 G. A. Petersson, H. Nakatsuji, X. Li, M. Caricato, A. V. Marenich, 
 J. Bloino, B. G. Janesko, R. Gomperts, B. Mennucci, H. P. Hratchian, 
 J. V. Ortiz, A. F. Izmaylov, J. L. Sonnenberg, D. Williams-Young, 
 F. Ding, F. Lipparini, F. Egidi, J. Goings, B. Peng, A. Petrone, 
 T. Henderson, D. Ranasinghe, V. G. Zakrzewski, J. Gao, N. Rega, 
 G. Zheng, W. Liang, M. Hada, M. Ehara, K. Toyota, R. Fukuda, 
 J. Hasegawa, M. Ishida, T. Nakajima, Y. Honda, O. Kitao, H. Nakai, 
 T. Vreven, K. Throssell, J. A. Montgomery, Jr., J. E. Peralta, 
 F. Ogliaro, M. J. Bearpark, J. J. Heyd, E. N. Brothers, K. N. Kudin, 
 V. N. Staroverov, T. A. Keith, R. Kobayashi, J. Normand, 
 K. Raghavachari, A. P. Rendell, J. C. Burant, S. S. Iyengar, 
 J. Tomasi, M. Cossi, J. M. Millam, M. Klene, C. Adamo, R. Cammi, 
 J. W. Ochterski, R. L. Martin, K. Morokuma, O. Farkas, 
 J. B. Foresman, and D. J. Fox, Gaussian, Inc., Wallingford CT, 2019.
 
 ******************************************
 Gaussian 16:  ES64L-G16RevC.01  3-Jul-2019
                 3-Jun-2022 
 ******************************************
 %mem=8gb
 %nproc=4
 Will use up to    4 processors via shared memory.
 %chk=conf-34.chk
 ----------------------------------------------------------------------
 # B3LYP/6-31G* empiricaldispersion=gd3 guess=read geom=check nosymm in
 tegral(ultrafinegrid)
 ----------------------------------------------------------------------
 1/29=2,38=1,172=1/1;
 2/12=2,15=1,40=1/2;
 3/5=1,6=6,7=1,11=2,14=-4,25=1,30=1,74=-5,75=-5,116=-2,124=31/1,2,3;
 4/5=1/1;
 5/5=2,38=6/2;
 6/7=2,8=2,9=2,10=2,28=1/1;
 99/5=1,9=1/99;
 -----------------------------------------------------
 Candidate Structure: Conf:34 Charge calc in gas phase
 -----------------------------------------------------
 Structure from the checkpoint file:  "conf-34.chk"
 Charge =  1 Multiplicity = 1
 Redundant internal coordinates found in file.  (old form).
 N,0,-8.0103047133,-2.8115449888,-10.2581116683
 C,0,-7.9522147738,-3.9752808798,-9.3114541623
 C,0,-8.1521994165,-3.5966429611,-7.8350370752
 O,0,-8.9728785372,-4.2073609327,-7.1610345628
 C,0,-6.6091284063,-4.6921901265,-9.4865146637
 C,0,-6.440470024,-5.2546176338,-10.8946553067
 N,0,-5.5617518273,-6.2721735865,-11.0023940252
 O,0,-7.0522810453,-4.7870519683,-11.860763556
 H,0,-8.7805562079,-4.6374016507,-9.5674166231
 H,0,-5.7863806945,-3.9944260822,-9.2909761889
 H,0,-6.5298478847,-5.4814061452,-8.7341260047
 H,0,-5.3630400386,-6.6540010579,-11.9177906621
 H,0,-5.0712289922,-6.6381804898,-10.1979373539
 H,0,-7.8790836182,-3.2197260074,-11.2030763642
 H,0,-8.8925170273,-2.2866133455,-10.1496404724
 N,0,-7.3249531734,-2.63808384,-7.3280021636
 C,0,-7.1030101863,-2.551727429,-5.890132049
 C,0,-7.3862071459,-1.1510762553,-5.3258592191
 O,0,-6.5706750718,-0.5921679605,-4.5753488368
 C,0,-5.6716996535,-3.0075689009,-5.5290499038
 C,0,-5.2913381726,-4.336451976,-6.1511825153
 C,0,-6.0383155057,-5.499036878,-5.9063530613
 C,0,-4.1708138461,-4.4267407703,-6.9863395871
 C,0,-5.6699729026,-6.7178276489,-6.4774749692
 C,0,-3.7916035924,-5.6464312176,-7.5544799777
 C,0,-4.5411441146,-6.7975188873,-7.3012935933
 H,0,-6.6594656833,-2.1642744574,-7.9473835932
 H,0,-7.8375448879,-3.2273342784,-5.437803426
 H,0,-4.9648241136,-2.2382984299,-5.8586662992
 H,0,-5.5906354054,-3.0447363174,-4.4374297376
 H,0,-6.9176756572,-5.4553912441,-5.269538997
 H,0,-3.5818814769,-3.5356062206,-7.1903808481
 H,0,-6.2569928727,-7.6079258475,-6.269918809
 H,0,-2.9049671533,-5.6953939133,-8.1810263689
 H,0,-4.2383220343,-7.7543397174,-7.7193978096
 N,0,-8.5545892772,-0.5283426588,-5.6253490405
 C,0,-9.573625748,-0.8446235549,-6.620940191
 C,0,-9.1499827671,-0.5402795615,-8.0765408593
 O,0,-9.7553571201,-1.0887837654,-9.0045385392
 C,0,-10.8661726803,-0.061061572,-6.301537759
 C,0,-10.6662629372,1.4566557907,-6.3250475746
 N,0,-11.6747391491,2.1824620751,-6.8448259839
 O,0,-9.6369092089,1.9886838908,-5.8826017608
 H,0,-8.6511461834,0.4029334674,-5.2272519811
 H,0,-9.8096899517,-1.9112184246,-6.5976225691
 H,0,-11.2120703916,-0.338308134,-5.2982788665
 H,0,-11.6333230152,-0.372065447,-7.01606757
 H,0,-11.6190437094,3.1922562783,-6.8052436135
 H,0,-12.5253463539,1.7636056577,-7.1924609209
 N,0,-8.1551541219,0.3539088125,-8.2263050767
 C,0,-7.4872020299,0.696315157,-9.4827824878
 C,0,-6.0494095783,0.0595476981,-9.4168433837
 O,0,-5.0409312339,0.7873682705,-9.323750932
 C,0,-7.594286726,2.2090451158,-9.8379778625
 C,0,-7.8877856498,3.2162287323,-8.6997970142
 C,0,-6.6549807477,3.7446284637,-7.9452050646
 N,0,-5.7185118175,2.6907862792,-7.5633974527
 C,0,-5.7467753087,1.946827041,-6.4583915
 N,0,-6.5726068017,2.2054550949,-5.4247371724
 N,0,-4.8836582493,0.9186581963,-6.3575713763
 O,0,-6.0370267761,-1.2160648724,-9.4071411227
 H,0,-7.2241798407,-2.1215463035,-10.0486898068
 H,0,-7.771307833,0.7354244952,-7.3737437585
 H,0,-8.027868127,0.1401895629,-10.251980296
 H,0,-6.6808916067,2.4924097709,-10.3732318839
 H,0,-8.4137791134,2.301623801,-10.5575199871
 H,0,-8.3848164392,4.0904383084,-9.1367545803
 H,0,-8.6039238378,2.7877270123,-7.9913148168
 H,0,-6.0893875647,4.4262053402,-8.5878883892
 H,0,-6.9455819768,4.3217769335,-7.0614584885
 H,0,-5.2578538112,2.2202708204,-8.359851327
 H,0,-6.6229157772,1.4966370058,-4.6954551271
 H,0,-7.4113001201,2.7523613381,-5.5694694685
 H,0,-5.0387754941,0.2275096924,-5.6298297631
 H,0,-4.3788450976,0.6401773478,-7.1939129577
 Recover connectivity data from disk.
                           ----------------------------
                           !    Current Parameters    !
                           ! (Angstroms and Degrees)  !
 --------------------------                            --------------------------
 ! Name  Definition              Value                                          !
 --------------------------------------------------------------------------------
 ! R1    R(1,2)                  1.5013                                         !
 ! R2    R(1,14)                 1.0377                                         !
 ! R3    R(1,15)                 1.0323                                         !
 ! R4    R(2,3)                  1.5373                                         !
 ! R5    R(2,5)                  1.5325                                         !
 ! R6    R(2,9)                  1.0909                                         !
 ! R7    R(3,4)                  1.2251                                         !
 ! R8    R(3,16)                 1.3639                                         !
 ! R9    R(5,6)                  1.5257                                         !
 ! R10   R(5,10)                 1.0964                                         !
 ! R11   R(5,11)                 1.0933                                         !
 ! R12   R(6,7)                  1.3488                                         !
 ! R13   R(6,8)                  1.2354                                         !
 ! R14   R(7,12)                 1.0115                                         !
 ! R15   R(7,13)                 1.0108                                         !
 ! R16   R(16,17)                1.4575                                         !
 ! R17   R(16,27)                1.0252                                         !
 ! R18   R(17,18)                1.5364                                         !
 ! R19   R(17,20)                1.5449                                         !
 ! R20   R(17,28)                1.0957                                         !
 ! R21   R(18,19)                1.2413                                         !
 ! R22   R(18,36)                1.3574                                         !
 ! R23   R(20,21)                1.5158                                         !
 ! R24   R(20,29)                1.0955                                         !
 ! R25   R(20,30)                1.0953                                         !
 ! R26   R(21,22)                1.4034                                         !
 ! R27   R(21,23)                1.4004                                         !
 ! R28   R(22,24)                1.3955                                         !
 ! R29   R(22,31)                1.0866                                         !
 ! R30   R(23,25)                1.3979                                         !
 ! R31   R(23,32)                1.0875                                         !
 ! R32   R(24,26)                1.3997                                         !
 ! R33   R(24,33)                1.0863                                         !
 ! R34   R(25,26)                1.3968                                         !
 ! R35   R(25,34)                1.0868                                         !
 ! R36   R(26,35)                1.0872                                         !
 ! R37   R(36,37)                1.4593                                         !
 ! R38   R(36,44)                1.0174                                         !
 ! R39   R(37,38)                1.5462                                         !
 ! R40   R(37,40)                1.5449                                         !
 ! R41   R(37,45)                1.0927                                         !
 ! R42   R(38,39)                1.2363                                         !
 ! R43   R(38,50)                1.346                                          !
 ! R44   R(40,41)                1.531                                          !
 ! R45   R(40,46)                1.0968                                         !
 ! R46   R(40,47)                1.0935                                         !
 ! R47   R(41,42)                1.3468                                         !
 ! R48   R(41,43)                1.2403                                         !
 ! R49   R(42,48)                1.0121                                         !
 ! R50   R(42,49)                1.0099                                         !
 ! R51   R(50,51)                1.4636                                         !
 ! R52   R(50,63)                1.0098                                         !
 ! R53   R(51,52)                1.5739                                         !
 ! R54   R(51,54)                1.5576                                         !
 ! R55   R(51,64)                1.0924                                         !
 ! R56   R(52,53)                1.2472                                         !
 ! R57   R(52,61)                1.2757                                         !
 ! R58   R(54,55)                1.5479                                         !
 ! R59   R(54,65)                1.0959                                         !
 ! R60   R(54,66)                1.0945                                         !
 ! R61   R(55,56)                1.539                                          !
 ! R62   R(55,67)                1.0965                                         !
 ! R63   R(55,68)                1.0947                                         !
 ! R64   R(56,57)                1.4606                                         !
 ! R65   R(56,69)                1.0943                                         !
 ! R66   R(56,70)                1.0948                                         !
 ! R67   R(57,58)                1.3324                                         !
 ! R68   R(57,71)                1.0334                                         !
 ! R69   R(58,59)                1.3481                                         !
 ! R70   R(58,60)                1.3462                                         !
 ! R71   R(59,72)                1.0182                                         !
 ! R72   R(59,73)                1.0117                                         !
 ! R73   R(60,74)                1.0156                                         !
 ! R74   R(60,75)                1.0158                                         !
 ! R75   R(61,62)                1.6251                                         !
 ! A1    A(2,1,14)             105.3323                                         !
 ! A2    A(2,1,15)             111.1611                                         !
 ! A3    A(14,1,15)            113.8152                                         !
 ! A4    A(1,2,3)              114.1829                                         !
 ! A5    A(1,2,5)              108.9359                                         !
 ! A6    A(1,2,9)              107.0467                                         !
 ! A7    A(3,2,5)              109.813                                          !
 ! A8    A(3,2,9)              106.0253                                         !
 ! A9    A(5,2,9)              110.7774                                         !
 ! A10   A(2,3,4)              119.5224                                         !
 ! A11   A(2,3,16)             116.8231                                         !
 ! A12   A(4,3,16)             123.5145                                         !
 ! A13   A(2,5,6)              112.0105                                         !
 ! A14   A(2,5,10)             109.8516                                         !
 ! A15   A(2,5,11)             108.823                                          !
 ! A16   A(6,5,10)             108.4377                                         !
 ! A17   A(6,5,11)             111.1649                                         !
 ! A18   A(10,5,11)            106.3958                                         !
 ! A19   A(5,6,7)              115.079                                          !
 ! A20   A(5,6,8)              121.8367                                         !
 ! A21   A(7,6,8)              123.0721                                         !
 ! A22   A(6,7,12)             119.0153                                         !
 ! A23   A(6,7,13)             121.7196                                         !
 ! A24   A(12,7,13)            119.2223                                         !
 ! A25   A(3,16,17)            120.0502                                         !
 ! A26   A(3,16,27)            119.5995                                         !
 ! A27   A(17,16,27)           118.022                                          !
 ! A28   A(16,17,18)           112.848                                          !
 ! A29   A(16,17,20)           110.743                                          !
 ! A30   A(16,17,28)           105.5839                                         !
 ! A31   A(18,17,20)           110.7275                                         !
 ! A32   A(18,17,28)           106.6747                                         !
 ! A33   A(20,17,28)           110.0388                                         !
 ! A34   A(17,18,19)           120.761                                          !
 ! A35   A(17,18,36)           119.7265                                         !
 ! A36   A(19,18,36)           119.4951                                         !
 ! A37   A(17,20,21)           113.2798                                         !
 ! A38   A(17,20,29)           108.6803                                         !
 ! A39   A(17,20,30)           108.1513                                         !
 ! A40   A(21,20,29)           109.2818                                         !
 ! A41   A(21,20,30)           111.146                                          !
 ! A42   A(29,20,30)           106.0191                                         !
 ! A43   A(20,21,22)           121.4055                                         !
 ! A44   A(20,21,23)           120.1365                                         !
 ! A45   A(22,21,23)           118.4575                                         !
 ! A46   A(21,22,24)           120.7728                                         !
 ! A47   A(21,22,31)           119.981                                          !
 ! A48   A(24,22,31)           119.2455                                         !
 ! A49   A(21,23,25)           121.0419                                         !
 ! A50   A(21,23,32)           119.4971                                         !
 ! A51   A(25,23,32)           119.4595                                         !
 ! A52   A(22,24,26)           120.2299                                         !
 ! A53   A(22,24,33)           119.6587                                         !
 ! A54   A(26,24,33)           120.1072                                         !
 ! A55   A(23,25,26)           119.9866                                         !
 ! A56   A(23,25,34)           119.6646                                         !
 ! A57   A(26,25,34)           120.3434                                         !
 ! A58   A(24,26,25)           119.5073                                         !
 ! A59   A(24,26,35)           120.0705                                         !
 ! A60   A(25,26,35)           120.4047                                         !
 ! A61   A(18,36,37)           130.7024                                         !
 ! A62   A(18,36,44)           114.5375                                         !
 ! A63   A(37,36,44)           113.5195                                         !
 ! A64   A(36,37,38)           114.095                                          !
 ! A65   A(36,37,40)           109.4666                                         !
 ! A66   A(36,37,45)           110.3567                                         !
 ! A67   A(38,37,40)           108.9067                                         !
 ! A68   A(38,37,45)           105.7485                                         !
 ! A69   A(40,37,45)           108.0551                                         !
 ! A70   A(37,38,39)           119.0206                                         !
 ! A71   A(37,38,50)           115.9767                                         !
 ! A72   A(39,38,50)           124.9684                                         !
 ! A73   A(37,40,41)           112.9778                                         !
 ! A74   A(37,40,46)           108.9508                                         !
 ! A75   A(37,40,47)           107.9152                                         !
 ! A76   A(41,40,46)           107.8063                                         !
 ! A77   A(41,40,47)           111.3156                                         !
 ! A78   A(46,40,47)           107.7309                                         !
 ! A79   A(40,41,42)           116.2554                                         !
 ! A80   A(40,41,43)           121.8778                                         !
 ! A81   A(42,41,43)           121.8653                                         !
 ! A82   A(41,42,48)           118.7747                                         !
 ! A83   A(41,42,49)           122.6853                                         !
 ! A84   A(48,42,49)           118.2704                                         !
 ! A85   A(38,50,51)           126.0329                                         !
 ! A86   A(38,50,63)           115.9758                                         !
 ! A87   A(51,50,63)           117.5761                                         !
 ! A88   A(50,51,52)           106.6364                                         !
 ! A89   A(50,51,54)           113.0548                                         !
 ! A90   A(50,51,64)           105.0416                                         !
 ! A91   A(52,51,54)           117.7299                                         !
 ! A92   A(52,51,64)           106.0026                                         !
 ! A93   A(54,51,64)           107.448                                          !
 ! A94   A(51,52,53)           120.3793                                         !
 ! A95   A(51,52,61)           114.4401                                         !
 ! A96   A(53,52,61)           125.108                                          !
 ! A97   A(51,54,55)           118.5093                                         !
 ! A98   A(51,54,65)           107.7699                                         !
 ! A99   A(51,54,66)           106.4725                                         !
 ! A100  A(55,54,65)           110.4207                                         !
 ! A101  A(55,54,66)           106.6426                                         !
 ! A102  A(65,54,66)           106.3246                                         !
 ! A103  A(54,55,56)           115.598                                          !
 ! A104  A(54,55,67)           108.1621                                         !
 ! A105  A(54,55,68)           110.1953                                         !
 ! A106  A(56,55,67)           106.5455                                         !
 ! A107  A(56,55,68)           109.9439                                         !
 ! A108  A(67,55,68)           105.8701                                         !
 ! A109  A(55,56,57)           113.2066                                         !
 ! A110  A(55,56,69)           109.8717                                         !
 ! A111  A(55,56,70)           111.3569                                         !
 ! A112  A(57,56,69)           105.7554                                         !
 ! A113  A(57,56,70)           109.849                                          !
 ! A114  A(69,56,70)           106.4354                                         !
 ! A115  A(56,57,58)           127.3048                                         !
 ! A116  A(56,57,71)           114.3839                                         !
 ! A117  A(58,57,71)           113.2288                                         !
 ! A118  A(57,58,59)           122.8042                                         !
 ! A119  A(57,58,60)           118.3566                                         !
 ! A120  A(59,58,60)           118.8074                                         !
 ! A121  A(58,59,72)           116.48                                           !
 ! A122  A(58,59,73)           120.1242                                         !
 ! A123  A(72,59,73)           115.9655                                         !
 ! A124  A(58,60,74)           118.3931                                         !
 ! A125  A(58,60,75)           117.7974                                         !
 ! A126  A(74,60,75)           118.6413                                         !
 ! A127  A(52,61,62)           123.1658                                         !
 ! D1    D(14,1,2,3)          -178.9414                                         !
 ! D2    D(14,1,2,5)            57.9054                                         !
 ! D3    D(14,1,2,9)           -61.9268                                         !
 ! D4    D(15,1,2,3)           -55.2241                                         !
 ! D5    D(15,1,2,5)          -178.3773                                         !
 ! D6    D(15,1,2,9)            61.7904                                         !
 ! D7    D(1,2,3,4)            129.562                                          !
 ! D8    D(1,2,3,16)           -54.5855                                         !
 ! D9    D(5,2,3,4)           -107.7613                                         !
 ! D10   D(5,2,3,16)            68.0912                                         !
 ! D11   D(9,2,3,4)             11.9601                                         !
 ! D12   D(9,2,3,16)          -172.1874                                         !
 ! D13   D(1,2,5,6)            -61.8608                                         !
 ! D14   D(1,2,5,10)            58.7122                                         !
 ! D15   D(1,2,5,11)           174.8245                                         !
 ! D16   D(3,2,5,6)            172.4109                                         !
 ! D17   D(3,2,5,10)           -67.0161                                         !
 ! D18   D(3,2,5,11)            49.0962                                         !
 ! D19   D(9,2,5,6)             55.6328                                         !
 ! D20   D(9,2,5,10)           176.2058                                         !
 ! D21   D(9,2,5,11)           -67.6819                                         !
 ! D22   D(2,3,16,17)         -158.0256                                         !
 ! D23   D(2,3,16,27)            4.3125                                         !
 ! D24   D(4,3,16,17)           17.6454                                         !
 ! D25   D(4,3,16,27)          179.9835                                         !
 ! D26   D(2,5,6,7)           -157.215                                          !
 ! D27   D(2,5,6,8)             24.0195                                         !
 ! D28   D(10,5,6,7)            81.3944                                         !
 ! D29   D(10,5,6,8)           -97.371                                          !
 ! D30   D(11,5,6,7)           -35.2303                                         !
 ! D31   D(11,5,6,8)           146.0042                                         !
 ! D32   D(5,6,7,12)          -176.4366                                         !
 ! D33   D(5,6,7,13)             1.1663                                         !
 ! D34   D(8,6,7,12)             2.3118                                         !
 ! D35   D(8,6,7,13)           179.9147                                         !
 ! D36   D(3,16,17,18)        -126.1916                                         !
 ! D37   D(3,16,17,20)         109.0404                                         !
 ! D38   D(3,16,17,28)         -10.0389                                         !
 ! D39   D(27,16,17,18)         71.1963                                         !
 ! D40   D(27,16,17,20)        -53.5717                                         !
 ! D41   D(27,16,17,28)       -172.6509                                         !
 ! D42   D(16,17,18,19)       -131.4928                                         !
 ! D43   D(16,17,18,36)         50.0288                                         !
 ! D44   D(20,17,18,19)         -6.7164                                         !
 ! D45   D(20,17,18,36)        174.8052                                         !
 ! D46   D(28,17,18,19)        113.0062                                         !
 ! D47   D(28,17,18,36)        -65.4722                                         !
 ! D48   D(16,17,20,21)        -49.4365                                         !
 ! D49   D(16,17,20,29)         72.2277                                         !
 ! D50   D(16,17,20,30)       -173.1017                                         !
 ! D51   D(18,17,20,21)       -175.3988                                         !
 ! D52   D(18,17,20,29)        -53.7346                                         !
 ! D53   D(18,17,20,30)         60.936                                          !
 ! D54   D(28,17,20,21)         66.9177                                         !
 ! D55   D(28,17,20,29)       -171.4181                                         !
 ! D56   D(28,17,20,30)        -56.7475                                         !
 ! D57   D(17,18,36,37)        -12.4749                                         !
 ! D58   D(17,18,36,44)       -178.7265                                         !
 ! D59   D(19,18,36,37)        169.0273                                         !
 ! D60   D(19,18,36,44)          2.7757                                         !
 ! D61   D(17,20,21,22)        -58.1377                                         !
 ! D62   D(17,20,21,23)        122.1292                                         !
 ! D63   D(29,20,21,22)       -179.4643                                         !
 ! D64   D(29,20,21,23)          0.8027                                         !
 ! D65   D(30,20,21,22)         63.8704                                         !
 ! D66   D(30,20,21,23)       -115.8627                                         !
 ! D67   D(20,21,22,24)       -179.482                                          !
 ! D68   D(20,21,22,31)          0.8252                                         !
 ! D69   D(23,21,22,24)          0.2554                                         !
 ! D70   D(23,21,22,31)       -179.4374                                         !
 ! D71   D(20,21,23,25)        179.0646                                         !
 ! D72   D(20,21,23,32)         -0.4759                                         !
 ! D73   D(22,21,23,25)         -0.6762                                         !
 ! D74   D(22,21,23,32)        179.7833                                         !
 ! D75   D(21,22,24,26)          0.292                                          !
 ! D76   D(21,22,24,33)        179.5538                                         !
 ! D77   D(31,22,24,26)        179.987                                          !
 ! D78   D(31,22,24,33)         -0.7512                                         !
 ! D79   D(21,23,25,26)          0.5491                                         !
 ! D80   D(21,23,25,34)       -178.6074                                         !
 ! D81   D(32,23,25,26)       -179.9102                                         !
 ! D82   D(32,23,25,34)          0.9332                                         !
 ! D83   D(22,24,26,25)         -0.4257                                         !
 ! D84   D(22,24,26,35)        178.0573                                         !
 ! D85   D(33,24,26,25)       -179.6842                                         !
 ! D86   D(33,24,26,35)         -1.2012                                         !
 ! D87   D(23,25,26,24)          0.0102                                         !
 ! D88   D(23,25,26,35)       -178.4677                                         !
 ! D89   D(34,25,26,24)        179.161                                          !
 ! D90   D(34,25,26,35)          0.6831                                         !
 ! D91   D(18,36,37,38)        -72.8503                                         !
 ! D92   D(18,36,37,40)        164.8361                                         !
 ! D93   D(18,36,37,45)         46.0352                                         !
 ! D94   D(44,36,37,38)         93.5118                                         !
 ! D95   D(44,36,37,40)        -28.8017                                         !
 ! D96   D(44,36,37,45)       -147.6026                                         !
 ! D97   D(36,37,38,39)        160.4206                                         !
 ! D98   D(36,37,38,50)        -21.6037                                         !
 ! D99   D(40,37,38,39)        -76.9597                                         !
 ! D100  D(40,37,38,50)        101.016                                          !
 ! D101  D(45,37,38,39)         38.9511                                         !
 ! D102  D(45,37,38,50)       -143.0732                                         !
 ! D103  D(36,37,40,41)         60.6358                                         !
 ! D104  D(36,37,40,46)        -59.1516                                         !
 ! D105  D(36,37,40,47)       -175.8577                                         !
 ! D106  D(38,37,40,41)        -64.7276                                         !
 ! D107  D(38,37,40,46)        175.4849                                         !
 ! D108  D(38,37,40,47)         58.7788                                         !
 ! D109  D(45,37,40,41)       -179.1465                                         !
 ! D110  D(45,37,40,46)         61.066                                          !
 ! D111  D(45,37,40,47)        -55.6401                                         !
 ! D112  D(37,38,50,51)        173.0151                                         !
 ! D113  D(37,38,50,63)          0.6305                                         !
 ! D114  D(39,38,50,51)         -9.145                                          !
 ! D115  D(39,38,50,63)        178.4703                                         !
 ! D116  D(37,40,41,42)        141.6268                                         !
 ! D117  D(37,40,41,43)        -38.8093                                         !
 ! D118  D(46,40,41,42)        -97.9302                                         !
 ! D119  D(46,40,41,43)         81.6337                                         !
 ! D120  D(47,40,41,42)         20.0188                                         !
 ! D121  D(47,40,41,43)       -160.4173                                         !
 ! D122  D(40,41,42,48)        174.6765                                         !
 ! D123  D(40,41,42,49)          0.7485                                         !
 ! D124  D(43,41,42,48)         -4.8875                                         !
 ! D125  D(43,41,42,49)       -178.8155                                         !
 ! D126  D(38,50,51,52)       -107.5271                                         !
 ! D127  D(38,50,51,54)        121.5563                                         !
 ! D128  D(38,50,51,64)          4.697                                          !
 ! D129  D(63,50,51,52)         64.7488                                         !
 ! D130  D(63,50,51,54)        -66.1677                                         !
 ! D131  D(63,50,51,64)        176.973                                          !
 ! D132  D(50,51,52,53)       -111.035                                          !
 ! D133  D(50,51,52,61)         66.0222                                         !
 ! D134  D(54,51,52,53)         17.1955                                         !
 ! D135  D(54,51,52,61)       -165.7473                                         !
 ! D136  D(64,51,52,53)        137.4051                                         !
 ! D137  D(64,51,52,61)        -45.5377                                         !
 ! D138  D(50,51,54,55)         21.4659                                         !
 ! D139  D(50,51,54,65)        147.6958                                         !
 ! D140  D(50,51,54,66)        -98.5659                                         !
 ! D141  D(52,51,54,55)       -103.6513                                         !
 ! D142  D(52,51,54,65)         22.5786                                         !
 ! D143  D(52,51,54,66)        136.3169                                         !
 ! D144  D(64,51,54,55)        136.8967                                         !
 ! D145  D(64,51,54,65)        -96.8734                                         !
 ! D146  D(64,51,54,66)         16.8648                                         !
 ! D147  D(51,52,61,62)         26.024                                          !
 ! D148  D(53,52,61,62)       -157.0795                                         !
 ! D149  D(51,54,55,56)         87.1325                                         !
 ! D150  D(51,54,55,67)       -153.5605                                         !
 ! D151  D(51,54,55,68)        -38.2632                                         !
 ! D152  D(65,54,55,56)        -37.8149                                         !
 ! D153  D(65,54,55,67)         81.4921                                         !
 ! D154  D(65,54,55,68)       -163.2105                                         !
 ! D155  D(66,54,55,56)       -152.9233                                         !
 ! D156  D(66,54,55,67)        -33.6163                                         !
 ! D157  D(66,54,55,68)         81.681                                          !
 ! D158  D(54,55,56,57)        -46.6412                                         !
 ! D159  D(54,55,56,69)         71.3348                                         !
 ! D160  D(54,55,56,70)       -170.9963                                         !
 ! D161  D(67,55,56,57)       -166.8321                                         !
 ! D162  D(67,55,56,69)        -48.8561                                         !
 ! D163  D(67,55,56,70)         68.8128                                         !
 ! D164  D(68,55,56,57)         78.8835                                         !
 ! D165  D(68,55,56,69)       -163.1405                                         !
 ! D166  D(68,55,56,70)        -45.4716                                         !
 ! D167  D(55,56,57,58)        -86.7947                                         !
 ! D168  D(55,56,57,71)         66.0496                                         !
 ! D169  D(69,56,57,58)        152.8582                                         !
 ! D170  D(69,56,57,71)        -54.2975                                         !
 ! D171  D(70,56,57,58)         38.3772                                         !
 ! D172  D(70,56,57,71)       -168.7785                                         !
 ! D173  D(56,57,58,59)         -9.6573                                         !
 ! D174  D(56,57,58,60)        172.421                                          !
 ! D175  D(71,57,58,59)       -162.7616                                         !
 ! D176  D(71,57,58,60)         19.3168                                         !
 ! D177  D(57,58,59,72)        170.5553                                         !
 ! D178  D(57,58,59,73)         21.8427                                         !
 ! D179  D(60,58,59,72)        -11.532                                          !
 ! D180  D(60,58,59,73)       -160.2446                                         !
 ! D181  D(57,58,60,74)       -166.1613                                         !
 ! D182  D(57,58,60,75)        -11.8829                                         !
 ! D183  D(59,58,60,74)         15.8323                                         !
 ! D184  D(59,58,60,75)        170.1106                                         !
 --------------------------------------------------------------------------------
 Symmetry turned off by external request.
 Stoichiometry    C23H36N9O7(1+)
 Framework group  C1[X(C23H36N9O7)]
 Deg. of freedom   219
 Full point group                 C1      NOp   1
                          Input orientation:                          
 ---------------------------------------------------------------------
 Center     Atomic      Atomic             Coordinates (Angstroms)
 Number     Number       Type             X           Y           Z
 ---------------------------------------------------------------------
      1          7           0       -8.010305   -2.811545  -10.258112
      2          6           0       -7.952215   -3.975281   -9.311454
      3          6           0       -8.152199   -3.596643   -7.835037
      4          8           0       -8.972879   -4.207361   -7.161035
      5          6           0       -6.609128   -4.692190   -9.486515
      6          6           0       -6.440470   -5.254618  -10.894655
      7          7           0       -5.561752   -6.272174  -11.002394
      8          8           0       -7.052281   -4.787052  -11.860764
      9          1           0       -8.780556   -4.637402   -9.567417
     10          1           0       -5.786381   -3.994426   -9.290976
     11          1           0       -6.529848   -5.481406   -8.734126
     12          1           0       -5.363040   -6.654001  -11.917791
     13          1           0       -5.071229   -6.638180  -10.197937
     14          1           0       -7.879084   -3.219726  -11.203076
     15          1           0       -8.892517   -2.286613  -10.149640
     16          7           0       -7.324953   -2.638084   -7.328002
     17          6           0       -7.103010   -2.551727   -5.890132
     18          6           0       -7.386207   -1.151076   -5.325859
     19          8           0       -6.570675   -0.592168   -4.575349
     20          6           0       -5.671700   -3.007569   -5.529050
     21          6           0       -5.291338   -4.336452   -6.151183
     22          6           0       -6.038316   -5.499037   -5.906353
     23          6           0       -4.170814   -4.426741   -6.986340
     24          6           0       -5.669973   -6.717828   -6.477475
     25          6           0       -3.791604   -5.646431   -7.554480
     26          6           0       -4.541144   -6.797519   -7.301294
     27          1           0       -6.659466   -2.164274   -7.947384
     28          1           0       -7.837545   -3.227334   -5.437803
     29          1           0       -4.964824   -2.238298   -5.858666
     30          1           0       -5.590635   -3.044736   -4.437430
     31          1           0       -6.917676   -5.455391   -5.269539
     32          1           0       -3.581881   -3.535606   -7.190381
     33          1           0       -6.256993   -7.607926   -6.269919
     34          1           0       -2.904967   -5.695394   -8.181026
     35          1           0       -4.238322   -7.754340   -7.719398
     36          7           0       -8.554589   -0.528343   -5.625349
     37          6           0       -9.573626   -0.844624   -6.620940
     38          6           0       -9.149983   -0.540280   -8.076541
     39          8           0       -9.755357   -1.088784   -9.004539
     40          6           0      -10.866173   -0.061062   -6.301538
     41          6           0      -10.666263    1.456656   -6.325048
     42          7           0      -11.674739    2.182462   -6.844826
     43          8           0       -9.636909    1.988684   -5.882602
     44          1           0       -8.651146    0.402933   -5.227252
     45          1           0       -9.809690   -1.911218   -6.597623
     46          1           0      -11.212070   -0.338308   -5.298279
     47          1           0      -11.633323   -0.372065   -7.016068
     48          1           0      -11.619044    3.192256   -6.805244
     49          1           0      -12.525346    1.763606   -7.192461
     50          7           0       -8.155154    0.353909   -8.226305
     51          6           0       -7.487202    0.696315   -9.482782
     52          6           0       -6.049410    0.059548   -9.416843
     53          8           0       -5.040931    0.787368   -9.323751
     54          6           0       -7.594287    2.209045   -9.837978
     55          6           0       -7.887786    3.216229   -8.699797
     56          6           0       -6.654981    3.744628   -7.945205
     57          7           0       -5.718512    2.690786   -7.563397
     58          6           0       -5.746775    1.946827   -6.458391
     59          7           0       -6.572607    2.205455   -5.424737
     60          7           0       -4.883658    0.918658   -6.357571
     61          8           0       -6.037027   -1.216065   -9.407141
     62          1           0       -7.224180   -2.121546  -10.048690
     63          1           0       -7.771308    0.735424   -7.373744
     64          1           0       -8.027868    0.140190  -10.251980
     65          1           0       -6.680892    2.492410  -10.373232
     66          1           0       -8.413779    2.301624  -10.557520
     67          1           0       -8.384816    4.090438   -9.136755
     68          1           0       -8.603924    2.787727   -7.991315
     69          1           0       -6.089388    4.426205   -8.587888
     70          1           0       -6.945582    4.321777   -7.061458
     71          1           0       -5.257854    2.220271   -8.359851
     72          1           0       -6.622916    1.496637   -4.695455
     73          1           0       -7.411300    2.752361   -5.569469
     74          1           0       -5.038775    0.227510   -5.629830
     75          1           0       -4.378845    0.640177   -7.193913
 ---------------------------------------------------------------------
 Rotational constants (GHZ):           0.1525821           0.0712480           0.0695693
 Standard basis: 6-31G(d) (6D, 7F)
   657 basis functions,  1236 primitive gaussians,   657 cartesian basis functions
   146 alpha electrons      146 beta electrons
       nuclear repulsion energy      5210.4075808884 Hartrees.
 NAtoms=   75 NActive=   75 NUniq=   75 SFac= 1.00D+00 NAtFMM=   60 NAOKFM=T Big=T
 Integral buffers will be    131072 words long.
 Raffenetti 2 integral format.
 Two-electron integral symmetry is turned off.
 Nuclear repulsion after empirical dispersion term =     5210.2777389503 Hartrees.
 One-electron integrals computed using PRISM.
 NBasis=   657 RedAO= T EigKep=  4.64D-04  NBF=   657
 NBsUse=   657 1.00D-06 EigRej= -1.00D+00 NBFU=   657
 Initial guess from the checkpoint file:  "conf-34.chk"
 B after Tr=     0.000000    0.000000    0.000000
         Rot=    1.000000    0.000000    0.000000    0.000000 Ang=   0.00 deg.
 Requested convergence on RMS density matrix=1.00D-08 within 128 cycles.
 Requested convergence on MAX density matrix=1.00D-06.
 Requested convergence on             energy=1.00D-06.
 No special actions if energy rises.
 SCF Done:  E(RB3LYP) =  -1917.54513720     A.U. after    3 cycles
            NFock=  3  Conv=0.10D-08     -V/T= 2.0093

 **********************************************************************

            Population analysis using the SCF Density.

 **********************************************************************

 Alpha  occ. eigenvalues --  -19.24944 -19.24436 -19.23854 -19.22918 -19.22503
 Alpha  occ. eigenvalues --  -19.21357 -19.21163 -14.51572 -14.48709 -14.48365
 Alpha  occ. eigenvalues --  -14.48288 -14.47958 -14.47644 -14.47606 -14.46637
 Alpha  occ. eigenvalues --  -14.46123 -10.44638 -10.42550 -10.41514 -10.41024
 Alpha  occ. eigenvalues --  -10.40215 -10.40071 -10.39222 -10.36116 -10.36116
 Alpha  occ. eigenvalues --  -10.34678 -10.33765 -10.33734 -10.32740 -10.30855
 Alpha  occ. eigenvalues --  -10.29420 -10.29420 -10.29303 -10.29229 -10.28368
 Alpha  occ. eigenvalues --  -10.28298 -10.28231 -10.28180 -10.28105  -1.16685
 Alpha  occ. eigenvalues --   -1.16082  -1.15611  -1.14914  -1.14510  -1.14096
 Alpha  occ. eigenvalues --   -1.13250  -1.07879  -1.05976  -1.05429  -1.03932
 Alpha  occ. eigenvalues --   -1.03487  -1.03122  -1.02726  -1.01236  -1.01083
 Alpha  occ. eigenvalues --   -0.94904  -0.91058  -0.90158  -0.89696  -0.88204
 Alpha  occ. eigenvalues --   -0.85366  -0.83918  -0.83576  -0.80558  -0.79056
 Alpha  occ. eigenvalues --   -0.78536  -0.76623  -0.75058  -0.72821  -0.71355
 Alpha  occ. eigenvalues --   -0.71029  -0.70469  -0.70323  -0.69842  -0.69552
 Alpha  occ. eigenvalues --   -0.69066  -0.68795  -0.67209  -0.66816  -0.66342
 Alpha  occ. eigenvalues --   -0.66272  -0.65330  -0.63872  -0.63563  -0.62653
 Alpha  occ. eigenvalues --   -0.62010  -0.61299  -0.61248  -0.60567  -0.59863
 Alpha  occ. eigenvalues --   -0.58993  -0.58663  -0.58397  -0.58147  -0.57662
 Alpha  occ. eigenvalues --   -0.56841  -0.56516  -0.56403  -0.55315  -0.55023
 Alpha  occ. eigenvalues --   -0.54945  -0.54516  -0.54143  -0.53948  -0.53100
 Alpha  occ. eigenvalues --   -0.52903  -0.52682  -0.52337  -0.52162  -0.51651
 Alpha  occ. eigenvalues --   -0.51387  -0.51063  -0.50773  -0.50573  -0.49832
 Alpha  occ. eigenvalues --   -0.49641  -0.49444  -0.49003  -0.48509  -0.47880
 Alpha  occ. eigenvalues --   -0.47758  -0.46786  -0.46584  -0.46107  -0.44781
 Alpha  occ. eigenvalues --   -0.44543  -0.44389  -0.43302  -0.43004  -0.41005
 Alpha  occ. eigenvalues --   -0.40057  -0.39719  -0.39240  -0.39015  -0.38763
 Alpha  occ. eigenvalues --   -0.37503  -0.37364  -0.37291  -0.37017  -0.36318
 Alpha  occ. eigenvalues --   -0.36272  -0.35753  -0.35232  -0.34329  -0.34277
 Alpha  occ. eigenvalues --   -0.33864
 Alpha virt. eigenvalues --   -0.11690  -0.10853  -0.10770  -0.09957  -0.09795
 Alpha virt. eigenvalues --   -0.09551  -0.09361  -0.07483  -0.07066  -0.04395
 Alpha virt. eigenvalues --   -0.03332  -0.01968  -0.01727  -0.00887  -0.00336
 Alpha virt. eigenvalues --    0.00497   0.01137   0.01314   0.01664   0.01978
 Alpha virt. eigenvalues --    0.02095   0.02930   0.03094   0.03414   0.03585
 Alpha virt. eigenvalues --    0.04296   0.04576   0.04900   0.04988   0.05300
 Alpha virt. eigenvalues --    0.05561   0.05972   0.06158   0.06601   0.06709
 Alpha virt. eigenvalues --    0.07055   0.07367   0.07776   0.07896   0.08014
 Alpha virt. eigenvalues --    0.08444   0.08636   0.09245   0.09423   0.09979
 Alpha virt. eigenvalues --    0.10189   0.10474   0.10933   0.11685   0.12095
 Alpha virt. eigenvalues --    0.12665   0.12829   0.13174   0.13684   0.14136
 Alpha virt. eigenvalues --    0.14442   0.14663   0.15243   0.15466   0.16297
 Alpha virt. eigenvalues --    0.16693   0.17482   0.17734   0.18274   0.20205
 Alpha virt. eigenvalues --    0.21461   0.21771   0.22977   0.23372   0.23499
 Alpha virt. eigenvalues --    0.24187   0.24471   0.24958   0.26213   0.26657
 Alpha virt. eigenvalues --    0.27318   0.28942   0.29324   0.29800   0.31009
 Alpha virt. eigenvalues --    0.31949   0.32653   0.33388   0.36423   0.36805
 Alpha virt. eigenvalues --    0.37440   0.38083   0.39281   0.39377   0.39812
 Alpha virt. eigenvalues --    0.40736   0.41406   0.42114   0.42729   0.43196
 Alpha virt. eigenvalues --    0.43959   0.44348   0.44881   0.45175   0.46057
 Alpha virt. eigenvalues --    0.46367   0.46520   0.46678   0.46947   0.47357
 Alpha virt. eigenvalues --    0.47588   0.48188   0.48736   0.49171   0.49552
 Alpha virt. eigenvalues --    0.49881   0.50261   0.51293   0.51372   0.51641
 Alpha virt. eigenvalues --    0.52055   0.52429   0.52758   0.53040   0.53168
 Alpha virt. eigenvalues --    0.53481   0.53644   0.54274   0.54456   0.54710
 Alpha virt. eigenvalues --    0.55281   0.55359   0.55699   0.55924   0.56042
 Alpha virt. eigenvalues --    0.56564   0.56730   0.57729   0.57871   0.58456
 Alpha virt. eigenvalues --    0.59086   0.59592   0.60300   0.60940   0.61428
 Alpha virt. eigenvalues --    0.62554   0.62761   0.63257   0.64058   0.64477
 Alpha virt. eigenvalues --    0.64668   0.65994   0.66078   0.66706   0.67516
 Alpha virt. eigenvalues --    0.68194   0.69349   0.69831   0.70112   0.70834
 Alpha virt. eigenvalues --    0.71381   0.71851   0.71910   0.72504   0.72993
 Alpha virt. eigenvalues --    0.73787   0.73876   0.74489   0.74580   0.74888
 Alpha virt. eigenvalues --    0.75167   0.75614   0.75793   0.76157   0.76412
 Alpha virt. eigenvalues --    0.76870   0.77309   0.77518   0.77779   0.78375
 Alpha virt. eigenvalues --    0.78698   0.78804   0.79786   0.80613   0.81082
 Alpha virt. eigenvalues --    0.81370   0.81866   0.82024   0.82341   0.82858
 Alpha virt. eigenvalues --    0.83280   0.83418   0.83530   0.84191   0.84609
 Alpha virt. eigenvalues --    0.85016   0.85160   0.85687   0.85904   0.86679
 Alpha virt. eigenvalues --    0.87491   0.87982   0.88832   0.89331   0.90332
 Alpha virt. eigenvalues --    0.90587   0.91161   0.92332   0.92503   0.93650
 Alpha virt. eigenvalues --    0.94354   0.94713   0.96018   0.96133   0.96718
 Alpha virt. eigenvalues --    0.97385   0.98321   0.99184   0.99990   1.00783
 Alpha virt. eigenvalues --    1.01367   1.01430   1.01878   1.02438   1.03449
 Alpha virt. eigenvalues --    1.04408   1.05175   1.05842   1.07217   1.07391
 Alpha virt. eigenvalues --    1.08203   1.08961   1.09230   1.09687   1.10214
 Alpha virt. eigenvalues --    1.10902   1.11459   1.12563   1.12920   1.14064
 Alpha virt. eigenvalues --    1.14486   1.14976   1.15640   1.16407   1.17090
 Alpha virt. eigenvalues --    1.17664   1.17900   1.18244   1.19304   1.19722
 Alpha virt. eigenvalues --    1.20148   1.21734   1.22760   1.23743   1.24817
 Alpha virt. eigenvalues --    1.25679   1.25964   1.26498   1.27877   1.28602
 Alpha virt. eigenvalues --    1.29125   1.29258   1.30374   1.31278   1.32384
 Alpha virt. eigenvalues --    1.33319   1.33578   1.34087   1.34622   1.34794
 Alpha virt. eigenvalues --    1.35800   1.36776   1.37606   1.38382   1.38553
 Alpha virt. eigenvalues --    1.38971   1.39184   1.39588   1.40609   1.40996
 Alpha virt. eigenvalues --    1.42046   1.42440   1.42710   1.44651   1.45537
 Alpha virt. eigenvalues --    1.46399   1.48024   1.48943   1.49071   1.51022
 Alpha virt. eigenvalues --    1.52821   1.53707   1.53844   1.54225   1.55887
 Alpha virt. eigenvalues --    1.56045   1.56525   1.57181   1.58198   1.58687
 Alpha virt. eigenvalues --    1.60623   1.61385   1.61872   1.62537   1.62784
 Alpha virt. eigenvalues --    1.63142   1.64206   1.64603   1.65775   1.65798
 Alpha virt. eigenvalues --    1.66451   1.67242   1.67782   1.69330   1.69740
 Alpha virt. eigenvalues --    1.69955   1.70448   1.71156   1.71387   1.71909
 Alpha virt. eigenvalues --    1.72416   1.72890   1.73744   1.74041   1.74726
 Alpha virt. eigenvalues --    1.75026   1.75318   1.76034   1.76857   1.77298
 Alpha virt. eigenvalues --    1.77825   1.78233   1.78905   1.79332   1.79624
 Alpha virt. eigenvalues --    1.80167   1.80672   1.81236   1.81703   1.82664
 Alpha virt. eigenvalues --    1.83019   1.83281   1.83798   1.84444   1.84914
 Alpha virt. eigenvalues --    1.85382   1.85691   1.86997   1.88078   1.88508
 Alpha virt. eigenvalues --    1.89148   1.89567   1.90031   1.90322   1.91474
 Alpha virt. eigenvalues --    1.92312   1.93123   1.93369   1.93804   1.94587
 Alpha virt. eigenvalues --    1.95250   1.96279   1.96903   1.97653   1.98391
 Alpha virt. eigenvalues --    1.99248   1.99887   2.00419   2.01317   2.01685
 Alpha virt. eigenvalues --    2.02108   2.02536   2.03913   2.04507   2.05129
 Alpha virt. eigenvalues --    2.05513   2.06373   2.07389   2.08432   2.09503
 Alpha virt. eigenvalues --    2.10386   2.11108   2.11746   2.12141   2.13809
 Alpha virt. eigenvalues --    2.14590   2.14778   2.16054   2.16366   2.17657
 Alpha virt. eigenvalues --    2.18605   2.19063   2.19557   2.19979   2.20628
 Alpha virt. eigenvalues --    2.22461   2.22878   2.23065   2.23824   2.25132
 Alpha virt. eigenvalues --    2.26531   2.26871   2.27845   2.28426   2.28812
 Alpha virt. eigenvalues --    2.30577   2.31059   2.31408   2.32463   2.32514
 Alpha virt. eigenvalues --    2.34276   2.34987   2.36048   2.37543   2.38067
 Alpha virt. eigenvalues --    2.39319   2.39886   2.40347   2.41203   2.41715
 Alpha virt. eigenvalues --    2.44301   2.45234   2.45572   2.46963   2.47875
 Alpha virt. eigenvalues --    2.48715   2.49714   2.50134   2.50706   2.51066
 Alpha virt. eigenvalues --    2.51425   2.52206   2.52631   2.53785   2.54771
 Alpha virt. eigenvalues --    2.55361   2.55809   2.56499   2.56694   2.58150
 Alpha virt. eigenvalues --    2.58991   2.59964   2.60872   2.62644   2.63148
 Alpha virt. eigenvalues --    2.63692   2.64563   2.65793   2.66616   2.67168
 Alpha virt. eigenvalues --    2.67832   2.69834   2.72063   2.73048   2.76324
 Alpha virt. eigenvalues --    2.77398   2.81067   2.83794   2.85114   2.88350
 Alpha virt. eigenvalues --    2.88631   2.89739   2.90316   2.90645   2.91137
 Alpha virt. eigenvalues --    2.91820   2.93264   2.93991   2.96561   2.98336
 Alpha virt. eigenvalues --    2.98706   2.99147   3.03570   3.04060   3.05569
 Alpha virt. eigenvalues --    3.09667   3.31514   3.68460   3.73472   3.75182
 Alpha virt. eigenvalues --    3.80133   3.81817   3.86718   3.90202   3.95799
 Alpha virt. eigenvalues --    3.97249   3.98369   4.00220   4.01733   4.05109
 Alpha virt. eigenvalues --    4.06192   4.08000   4.09842   4.12174   4.12653
 Alpha virt. eigenvalues --    4.14143   4.16674   4.20972   4.22012   4.23674
 Alpha virt. eigenvalues --    4.28174   4.29465   4.31237   4.32339   4.35216
 Alpha virt. eigenvalues --    4.38045   4.39379   4.40330   4.42839   4.48672
 Alpha virt. eigenvalues --    4.51259   4.55082   4.58933   4.62539   4.65028
 Alpha virt. eigenvalues --    4.67971
          Condensed to atoms (all electrons):
 Mulliken charges:
               1
     1  N   -0.813884
     2  C   -0.109816
     3  C    0.630587
     4  O   -0.514646
     5  C   -0.415303
     6  C    0.637906
     7  N   -0.741667
     8  O   -0.534117
     9  H    0.217062
    10  H    0.218771
    11  H    0.212210
    12  H    0.365992
    13  H    0.357693
    14  H    0.418524
    15  H    0.427509
    16  N   -0.651721
    17  C   -0.081113
    18  C    0.625752
    19  O   -0.555520
    20  C   -0.356101
    21  C    0.173278
    22  C   -0.178852
    23  C   -0.197388
    24  C   -0.138138
    25  C   -0.136776
    26  C   -0.159151
    27  H    0.389931
    28  H    0.220024
    29  H    0.144355
    30  H    0.194850
    31  H    0.152273
    32  H    0.143402
    33  H    0.158238
    34  H    0.152033
    35  H    0.150094
    36  N   -0.632073
    37  C   -0.060658
    38  C    0.641995
    39  O   -0.583272
    40  C   -0.395626
    41  C    0.626546
    42  N   -0.725814
    43  O   -0.560778
    44  H    0.370109
    45  H    0.221280
    46  H    0.217629
    47  H    0.197573
    48  H    0.366340
    49  H    0.367949
    50  N   -0.605503
    51  C   -0.058962
    52  C    0.602544
    53  O   -0.553250
    54  C   -0.301180
    55  C   -0.302057
    56  C   -0.178572
    57  N   -0.592176
    58  C    0.718793
    59  N   -0.767698
    60  N   -0.780915
    61  O   -0.604547
    62  H    0.430485
    63  H    0.361141
    64  H    0.169746
    65  H    0.177863
    66  H    0.166077
    67  H    0.166720
    68  H    0.165473
    69  H    0.193995
    70  H    0.174131
    71  H    0.403613
    72  H    0.385887
    73  H    0.386686
    74  H    0.398222
    75  H    0.385994
 Sum of Mulliken charges =   1.00000
 Mulliken charges with hydrogens summed into heavy atoms:
               1
     1  N    0.462635
     2  C    0.107247
     3  C    0.630587
     4  O   -0.514646
     5  C    0.015678
     6  C    0.637906
     7  N   -0.017982
     8  O   -0.534117
    16  N   -0.261789
    17  C    0.138911
    18  C    0.625752
    19  O   -0.555520
    20  C   -0.016897
    21  C    0.173278
    22  C   -0.026578
    23  C   -0.053986
    24  C    0.020099
    25  C    0.015257
    26  C   -0.009057
    36  N   -0.261964
    37  C    0.160622
    38  C    0.641995
    39  O   -0.583272
    40  C    0.019576
    41  C    0.626546
    42  N    0.008475
    43  O   -0.560778
    50  N   -0.244362
    51  C    0.110783
    52  C    0.602544
    53  O   -0.553250
    54  C    0.042761
    55  C    0.030136
    56  C    0.189554
    57  N   -0.188563
    58  C    0.718793
    59  N    0.004874
    60  N    0.003301
    61  O   -0.604547
 Electronic spatial extent (au):  <R**2>=         135947.7908
 Charge=              1.0000 electrons
 Dipole moment (field-independent basis, Debye):
    X=            -38.8081    Y=             -3.5816    Z=            -37.0986  Tot=             53.8071
 Quadrupole moment (field-independent basis, Debye-Ang):
   XX=            126.7127   YY=           -135.0003   ZZ=             71.8930
   XY=            -13.1558   XZ=            291.0704   YZ=             43.9535
 Traceless Quadrupole moment (field-independent basis, Debye-Ang):
   XX=            105.5109   YY=           -156.2020   ZZ=             50.6912
   XY=            -13.1558   XZ=            291.0704   YZ=             43.9535
 Octapole moment (field-independent basis, Debye-Ang**2):
  XXX=           1322.0102  YYY=            610.4608  ZZZ=           2728.6271  XYY=           1112.4898
  XXY=            727.5031  XXZ=           -838.7623  XZZ=           -648.9259  YZZ=           -176.8531
  YYZ=            904.5773  XYZ=             33.3005
 Hexadecapole moment (field-independent basis, Debye-Ang**3):
 XXXX=         -36395.7051 YYYY=         -12039.2915 ZZZZ=         -63381.7960 XXXY=         -11385.6744
 XXXZ=         -11924.7511 YYYX=          -4235.0739 YYYZ=          -4423.4178 ZZZX=         -18889.1737
 ZZZY=          -2657.5317 XXYY=         -12012.0234 XXZZ=          -7109.0575 YYZZ=          -8915.6278
 XXYZ=          -5461.9930 YYXZ=          -7994.4150 ZZXY=          -1437.2231
 N-N= 5.210277738950D+03 E-N=-1.485961210111D+04  KE= 1.899812046768D+03
 Unable to Open any file for archive entry.
 1\1\GINC-LAC-316\SP\RB3LYP\6-31G(d)\C23H36N9O7(1+)\KENGMITH\03-Jun-202
 2\0\\# B3LYP/6-31G* empiricaldispersion=gd3 guess=read geom=check nosy
 mm integral(ultrafinegrid)\\Candidate Structure: Conf:34 Charge calc i
 n gas phase\\1,1\N,0,-8.0103047133,-2.8115449888,-10.2581116683\C,0,-7
 .9522147738,-3.9752808798,-9.3114541623\C,0,-8.1521994165,-3.596642961
 1,-7.8350370752\O,0,-8.9728785372,-4.2073609327,-7.1610345628\C,0,-6.6
 091284063,-4.6921901265,-9.4865146637\C,0,-6.440470024,-5.2546176338,-
 10.8946553067\N,0,-5.5617518273,-6.2721735865,-11.0023940252\O,0,-7.05
 22810453,-4.7870519683,-11.860763556\H,0,-8.7805562079,-4.6374016507,-
 9.5674166231\H,0,-5.7863806945,-3.9944260822,-9.2909761889\H,0,-6.5298
 478847,-5.4814061452,-8.7341260047\H,0,-5.3630400386,-6.6540010579,-11
 .9177906621\H,0,-5.0712289922,-6.6381804898,-10.1979373539\H,0,-7.8790
 836182,-3.2197260074,-11.2030763642\H,0,-8.8925170273,-2.2866133455,-1
 0.1496404724\N,0,-7.3249531734,-2.63808384,-7.3280021636\C,0,-7.103010
 1863,-2.551727429,-5.890132049\C,0,-7.3862071459,-1.1510762553,-5.3258
 592191\O,0,-6.5706750718,-0.5921679605,-4.5753488368\C,0,-5.6716996535
 ,-3.0075689009,-5.5290499038\C,0,-5.2913381726,-4.336451976,-6.1511825
 153\C,0,-6.0383155057,-5.499036878,-5.9063530613\C,0,-4.1708138461,-4.
 4267407703,-6.9863395871\C,0,-5.6699729026,-6.7178276489,-6.4774749692
 \C,0,-3.7916035924,-5.6464312176,-7.5544799777\C,0,-4.5411441146,-6.79
 75188873,-7.3012935933\H,0,-6.6594656833,-2.1642744574,-7.9473835932\H
 ,0,-7.8375448879,-3.2273342784,-5.437803426\H,0,-4.9648241136,-2.23829
 84299,-5.8586662992\H,0,-5.5906354054,-3.0447363174,-4.4374297376\H,0,
 -6.9176756572,-5.4553912441,-5.269538997\H,0,-3.5818814769,-3.53560622
 06,-7.1903808481\H,0,-6.2569928727,-7.6079258475,-6.269918809\H,0,-2.9
 049671533,-5.6953939133,-8.1810263689\H,0,-4.2383220343,-7.7543397174,
 -7.7193978096\N,0,-8.5545892772,-0.5283426588,-5.6253490405\C,0,-9.573
 625748,-0.8446235549,-6.620940191\C,0,-9.1499827671,-0.5402795615,-8.0
 765408593\O,0,-9.7553571201,-1.0887837654,-9.0045385392\C,0,-10.866172
 6803,-0.061061572,-6.301537759\C,0,-10.6662629372,1.4566557907,-6.3250
 475746\N,0,-11.6747391491,2.1824620751,-6.8448259839\O,0,-9.6369092089
 ,1.9886838908,-5.8826017608\H,0,-8.6511461834,0.4029334674,-5.22725198
 11\H,0,-9.8096899517,-1.9112184246,-6.5976225691\H,0,-11.2120703916,-0
 .338308134,-5.2982788665\H,0,-11.6333230152,-0.372065447,-7.01606757\H
 ,0,-11.6190437094,3.1922562783,-6.8052436135\H,0,-12.5253463539,1.7636
 056577,-7.1924609209\N,0,-8.1551541219,0.3539088125,-8.2263050767\C,0,
 -7.4872020299,0.696315157,-9.4827824878\C,0,-6.0494095783,0.0595476981
 ,-9.4168433837\O,0,-5.0409312339,0.7873682705,-9.323750932\C,0,-7.5942
 86726,2.2090451158,-9.8379778625\C,0,-7.8877856498,3.2162287323,-8.699
 7970142\C,0,-6.6549807477,3.7446284637,-7.9452050646\N,0,-5.7185118175
 ,2.6907862792,-7.5633974527\C,0,-5.7467753087,1.946827041,-6.4583915\N
 ,0,-6.5726068017,2.2054550949,-5.4247371724\N,0,-4.8836582493,0.918658
 1963,-6.3575713763\O,0,-6.0370267761,-1.2160648724,-9.4071411227\H,0,-
 7.2241798407,-2.1215463035,-10.0486898068\H,0,-7.771307833,0.735424495
 2,-7.3737437585\H,0,-8.027868127,0.1401895629,-10.251980296\H,0,-6.680
 8916067,2.4924097709,-10.3732318839\H,0,-8.4137791134,2.301623801,-10.
 5575199871\H,0,-8.3848164392,4.0904383084,-9.1367545803\H,0,-8.6039238
 378,2.7877270123,-7.9913148168\H,0,-6.0893875647,4.4262053402,-8.58788
 83892\H,0,-6.9455819768,4.3217769335,-7.0614584885\H,0,-5.2578538112,2
 .2202708204,-8.359851327\H,0,-6.6229157772,1.4966370058,-4.6954551271\
 H,0,-7.4113001201,2.7523613381,-5.5694694685\H,0,-5.0387754941,0.22750
 96924,-5.6298297631\H,0,-4.3788450976,0.6401773478,-7.1939129577\\Vers
 ion=ES64L-G16RevC.01\HF=-1917.5451372\RMSD=1.024e-09\Dipole=-1.6451818
 ,1.2946679,-0.0108755\Quadrupole=78.4447465,-116.132393,37.6876465,-9.
 7810378,216.4037148,32.6783354\PG=C01 [X(C23H36N9O7)]\\@
 The archive entry for this job was punched.


  THE LARGE PRINT GIVETH,
  AND THE SMALL PRINT TAKETH AWAY.

                     -- TOM WAITS
 Job cpu time:       0 days  0 hours  6 minutes  8.9 seconds.
 Elapsed time:       0 days  0 hours  1 minutes 33.3 seconds.
 File lengths (MBytes):  RWF=    344 Int=      0 D2E=      0 Chk=     48 Scr=     16
 Normal termination of Gaussian 16 at Fri Jun  3 06:17:20 2022.
