 Entering Gaussian System, Link 0=/opt/software/Gaussian/g16-AVX2-C.01/g16/g16
 Input=charge-conf-883.com
 Output=charge-conf-883.log
 Initial command:
 /opt/software/Gaussian/g16-AVX2-C.01/g16/l1.exe "/mnt/gs18/scratch/users/kengmith/Gau-37908.inp" -scrdir="/mnt/gs18/scratch/users/kengmith/"
 Entering Link 1 = /opt/software/Gaussian/g16-AVX2-C.01/g16/l1.exe PID=     37919.
  
 Copyright (c) 1988-2019, Gaussian, Inc.  All Rights Reserved.
  
 This is part of the Gaussian(R) 16 program.  It is based on
 the Gaussian(R) 09 system (copyright 2009, Gaussian, Inc.),
 the Gaussian(R) 03 system (copyright 2003, Gaussian, Inc.),
 the Gaussian(R) 98 system (copyright 1998, Gaussian, Inc.),
 the Gaussian(R) 94 system (copyright 1995, Gaussian, Inc.),
 the Gaussian 92(TM) system (copyright 1992, Gaussian, Inc.),
 the Gaussian 90(TM) system (copyright 1990, Gaussian, Inc.),
 the Gaussian 88(TM) system (copyright 1988, Gaussian, Inc.),
 the Gaussian 86(TM) system (copyright 1986, Carnegie Mellon
 University), and the Gaussian 82(TM) system (copyright 1983,
 Carnegie Mellon University). Gaussian is a federally registered
 trademark of Gaussian, Inc.
  
 This software contains proprietary and confidential information,
 including trade secrets, belonging to Gaussian, Inc.
  
 This software is provided under written license and may be
 used, copied, transmitted, or stored only in accord with that
 written license.
  
 The following legend is applicable only to US Government
 contracts under FAR:
  
                    RESTRICTED RIGHTS LEGEND
  
 Use, reproduction and disclosure by the US Government is
 subject to restrictions as set forth in subparagraphs (a)
 and (c) of the Commercial Computer Software - Restricted
 Rights clause in FAR 52.227-19.
  
 Gaussian, Inc.
 340 Quinnipiac St., Bldg. 40, Wallingford CT 06492
  
  
 ---------------------------------------------------------------
 Warning -- This program may not be used in any manner that
 competes with the business of Gaussian, Inc. or will provide
 assistance to any competitor of Gaussian, Inc.  The licensee
 of this program is prohibited from giving any competitor of
 Gaussian, Inc. access to this program.  By using this program,
 the user acknowledges that Gaussian, Inc. is engaged in the
 business of creating and licensing software in the field of
 computational chemistry and represents and warrants to the
 licensee that it is not a competitor of Gaussian, Inc. and that
 it will not use this program in any manner prohibited above.
 ---------------------------------------------------------------
  

 Cite this work as:
 Gaussian 16, Revision C.01,
 M. J. Frisch, G. W. Trucks, H. B. Schlegel, G. E. Scuseria, 
 M. A. Robb, J. R. Cheeseman, G. Scalmani, V. Barone, 
 G. A. Petersson, H. Nakatsuji, X. Li, M. Caricato, A. V. Marenich, 
 J. Bloino, B. G. Janesko, R. Gomperts, B. Mennucci, H. P. Hratchian, 
 J. V. Ortiz, A. F. Izmaylov, J. L. Sonnenberg, D. Williams-Young, 
 F. Ding, F. Lipparini, F. Egidi, J. Goings, B. Peng, A. Petrone, 
 T. Henderson, D. Ranasinghe, V. G. Zakrzewski, J. Gao, N. Rega, 
 G. Zheng, W. Liang, M. Hada, M. Ehara, K. Toyota, R. Fukuda, 
 J. Hasegawa, M. Ishida, T. Nakajima, Y. Honda, O. Kitao, H. Nakai, 
 T. Vreven, K. Throssell, J. A. Montgomery, Jr., J. E. Peralta, 
 F. Ogliaro, M. J. Bearpark, J. J. Heyd, E. N. Brothers, K. N. Kudin, 
 V. N. Staroverov, T. A. Keith, R. Kobayashi, J. Normand, 
 K. Raghavachari, A. P. Rendell, J. C. Burant, S. S. Iyengar, 
 J. Tomasi, M. Cossi, J. M. Millam, M. Klene, C. Adamo, R. Cammi, 
 J. W. Ochterski, R. L. Martin, K. Morokuma, O. Farkas, 
 J. B. Foresman, and D. J. Fox, Gaussian, Inc., Wallingford CT, 2019.
 
 ******************************************
 Gaussian 16:  ES64L-G16RevC.01  3-Jul-2019
                 3-Jun-2022 
 ******************************************
 %mem=8gb
 %nproc=4
 Will use up to    4 processors via shared memory.
 %chk=conf-883.chk
 ----------------------------------------------------------------------
 # B3LYP/6-31G* empiricaldispersion=gd3 guess=read geom=check nosymm in
 tegral(ultrafinegrid)
 ----------------------------------------------------------------------
 1/29=2,38=1,172=1/1;
 2/12=2,15=1,40=1/2;
 3/5=1,6=6,7=1,11=2,14=-4,25=1,30=1,74=-5,75=-5,116=-2,124=31/1,2,3;
 4/5=1/1;
 5/5=2,38=6/2;
 6/7=2,8=2,9=2,10=2,28=1/1;
 99/5=1,9=1/99;
 ------------------------------------------------------
 Candidate Structure: Conf:883 Charge calc in gas phase
 ------------------------------------------------------
 Structure from the checkpoint file:  "conf-883.chk"
 Charge =  1 Multiplicity = 1
 Redundant internal coordinates found in file.  (old form).
 N,0,-8.108487571,-5.4550733795,-7.5834597221
 C,0,-7.8400172606,-4.2184549839,-8.3351200813
 C,0,-8.0121351181,-2.9428982345,-7.4919909407
 O,0,-8.9899840146,-2.2094603778,-7.5614103297
 C,0,-8.7501245643,-4.183726791,-9.57862531
 C,0,-8.1016161598,-4.946228194,-10.7233581283
 N,0,-7.9220220949,-6.2601145688,-10.5001080156
 O,0,-7.738816863,-4.4021660181,-11.7810838386
 H,0,-6.7942820511,-4.2557778979,-8.6625784997
 H,0,-9.7151052927,-4.637484836,-9.3276263867
 H,0,-8.9592563577,-3.1652153575,-9.8919865594
 H,0,-7.4238784675,-6.8099953302,-11.187819662
 H,0,-8.0777328345,-6.6289833174,-9.5656682997
 H,0,-7.4354507848,-5.6019208639,-6.8327609734
 H,0,-9.0176996525,-5.3955103916,-7.1242606846
 N,0,-6.961222368,-2.6850620681,-6.6382288674
 C,0,-7.1293730944,-1.796097348,-5.4842300075
 C,0,-6.1121909829,-0.663672928,-5.6531194576
 O,0,-4.9053612184,-0.8831976149,-5.4410224295
 C,0,-6.9174412649,-2.556784525,-4.1569750081
 C,0,-7.6611061845,-3.8760239907,-4.1525157123
 C,0,-9.0588106146,-3.9162465704,-4.253915952
 C,0,-6.956143777,-5.0864496975,-4.1161652234
 C,0,-9.7344268655,-5.135558898,-4.320199743
 C,0,-7.6292919638,-6.310960495,-4.1747044839
 C,0,-9.0211169493,-6.3378684157,-4.2822141589
 H,0,-6.269864692,-3.4162947814,-6.5218442552
 H,0,-8.1531813251,-1.4280160766,-5.5464136374
 H,0,-5.8437381,-2.7191799594,-4.0184307596
 H,0,-7.2475591068,-1.909557735,-3.3349307296
 H,0,-9.6252506222,-2.9886416268,-4.2871645386
 H,0,-5.8722116411,-5.0723130298,-4.0217902473
 H,0,-10.8184890551,-5.1477217328,-4.3913332943
 H,0,-7.0671111529,-7.2395302362,-4.1297411924
 H,0,-9.5475628856,-7.286838215,-4.3251325757
 N,0,-6.5141754736,0.5324981677,-6.1276188835
 C,0,-7.8150388039,1.069299805,-6.5128391349
 C,0,-8.08308726,1.0496266097,-8.0373436321
 O,0,-8.9195282934,1.8151089359,-8.5041357603
 C,0,-7.9208183166,2.5326190073,-6.0385387199
 C,0,-6.9093281649,3.4248640648,-6.7638525744
 N,0,-7.2562528802,4.7156366789,-6.9149827596
 O,0,-5.815936274,2.9873264016,-7.1565091815
 H,0,-5.7733809897,1.2038278214,-6.3180572754
 H,0,-8.6143937743,0.4862588578,-6.0496005737
 H,0,-7.7218171488,2.5843167762,-4.9616411519
 H,0,-8.9382676238,2.8847757319,-6.2182503697
 H,0,-6.6116763107,5.3424735088,-7.3789054525
 H,0,-8.181482611,5.055975288,-6.6966213708
 N,0,-7.3501911433,0.1956413582,-8.7941081739
 C,0,-7.7248993612,-0.0146751286,-10.1901431965
 C,0,-7.252348887,-1.3960114015,-10.6276856093
 O,0,-6.3837601555,-2.0336049648,-10.0221079204
 C,0,-7.2703342798,1.1335321497,-11.1267154577
 C,0,-5.7751053372,1.3036903926,-11.4502373587
 C,0,-4.8107046657,1.4685903605,-10.2634743306
 N,0,-4.4632367837,0.1431039618,-9.7345012195
 C,0,-4.11186342,-0.163213792,-8.4874423874
 N,0,-3.7038953843,0.7654146409,-7.6089319878
 N,0,-4.1077284621,-1.4639181211,-8.1227665628
 O,0,-7.8910177833,-1.8284589576,-11.6833188077
 H,0,-7.7345624956,-2.8388260757,-11.8200505214
 H,0,-6.8320854121,-0.5469025762,-8.3442650357
 H,0,-8.8190698676,-0.0282542643,-10.245126025
 H,0,-7.8038849099,1.0006867,-12.0742018103
 H,0,-7.6579507696,2.050547259,-10.6727869347
 H,0,-5.4196827839,0.4766909852,-12.0825743617
 H,0,-5.6850197927,2.1997606941,-12.0739754542
 H,0,-3.8946691983,1.9732230229,-10.5912868859
 H,0,-5.2763349772,2.0668359179,-9.4720158326
 H,0,-4.7658567271,-0.6492545605,-10.2880827489
 H,0,-3.6894634677,0.4850326711,-6.6306380536
 H,0,-3.8788600835,1.7456385515,-7.7924700272
 H,0,-4.0937117464,-1.6470303903,-7.1221440921
 H,0,-4.706753229,-2.0736232212,-8.6702502588
 Recover connectivity data from disk.
                           ----------------------------
                           !    Current Parameters    !
                           ! (Angstroms and Degrees)  !
 --------------------------                            --------------------------
 ! Name  Definition              Value                                          !
 --------------------------------------------------------------------------------
 ! R1    R(1,2)                  1.4718                                         !
 ! R2    R(1,14)                 1.0189                                         !
 ! R3    R(1,15)                 1.0203                                         !
 ! R4    R(2,3)                  1.5387                                         !
 ! R5    R(2,5)                  1.5414                                         !
 ! R6    R(2,9)                  1.0964                                         !
 ! R7    R(3,4)                  1.2243                                         !
 ! R8    R(3,16)                 1.3783                                         !
 ! R9    R(5,6)                  1.5207                                         !
 ! R10   R(5,10)                 1.0955                                         !
 ! R11   R(5,11)                 1.086                                          !
 ! R12   R(6,7)                  1.3448                                         !
 ! R13   R(6,8)                  1.2435                                         !
 ! R14   R(7,12)                 1.0117                                         !
 ! R15   R(7,13)                 1.0166                                         !
 ! R16   R(16,17)                1.4664                                         !
 ! R17   R(16,27)                1.013                                          !
 ! R18   R(17,18)                1.5315                                         !
 ! R19   R(17,20)                1.5444                                         !
 ! R20   R(17,28)                1.0897                                         !
 ! R21   R(18,19)                1.2448                                         !
 ! R22   R(18,36)                1.3482                                         !
 ! R23   R(20,21)                1.5144                                         !
 ! R24   R(20,29)                1.0947                                         !
 ! R25   R(20,30)                1.0971                                         !
 ! R26   R(21,22)                1.402                                          !
 ! R27   R(21,23)                1.4012                                         !
 ! R28   R(22,24)                1.3956                                         !
 ! R29   R(22,31)                1.0874                                         !
 ! R30   R(23,25)                1.3986                                         !
 ! R31   R(23,32)                1.0881                                         !
 ! R32   R(24,26)                1.3985                                         !
 ! R33   R(24,33)                1.0865                                         !
 ! R34   R(25,26)                1.3962                                         !
 ! R35   R(25,34)                1.0864                                         !
 ! R36   R(26,35)                1.0861                                         !
 ! R37   R(36,37)                1.459                                          !
 ! R38   R(36,44)                1.0177                                         !
 ! R39   R(37,38)                1.548                                          !
 ! R40   R(37,40)                1.5419                                         !
 ! R41   R(37,45)                1.0925                                         !
 ! R42   R(38,39)                1.2262                                         !
 ! R43   R(38,50)                1.3561                                         !
 ! R44   R(40,41)                1.5314                                         !
 ! R45   R(40,46)                1.0963                                         !
 ! R46   R(40,47)                1.0916                                         !
 ! R47   R(41,42)                1.3451                                         !
 ! R48   R(41,43)                1.2414                                         !
 ! R49   R(42,48)                1.0117                                         !
 ! R50   R(42,49)                1.0097                                         !
 ! R51   R(50,51)                1.4607                                         !
 ! R52   R(50,63)                1.011                                          !
 ! R53   R(51,52)                1.5241                                         !
 ! R54   R(51,54)                1.5499                                         !
 ! R55   R(51,64)                1.0956                                         !
 ! R56   R(52,53)                1.236                                          !
 ! R57   R(52,61)                1.3074                                         !
 ! R58   R(54,55)                1.5393                                         !
 ! R59   R(54,65)                1.0955                                         !
 ! R60   R(54,66)                1.0942                                         !
 ! R61   R(55,56)                1.5381                                         !
 ! R62   R(55,67)                1.1                                            !
 ! R63   R(55,68)                1.0955                                         !
 ! R64   R(56,57)                1.4688                                         !
 ! R65   R(56,69)                1.096                                          !
 ! R66   R(56,70)                1.096                                          !
 ! R67   R(57,58)                1.3313                                         !
 ! R68   R(57,71)                1.0128                                         !
 ! R69   R(58,59)                1.3419                                         !
 ! R70   R(58,60)                1.3509                                         !
 ! R71   R(59,72)                1.0178                                         !
 ! R72   R(59,73)                1.0125                                         !
 ! R73   R(60,74)                1.0173                                         !
 ! R74   R(60,75)                1.015                                          !
 ! R75   R(61,62)                1.0315                                         !
 ! A1    A(2,1,14)             112.1407                                         !
 ! A2    A(2,1,15)             110.08                                           !
 ! A3    A(14,1,15)            105.3938                                         !
 ! A4    A(1,2,3)              113.3451                                         !
 ! A5    A(1,2,5)              108.8587                                         !
 ! A6    A(1,2,9)              107.331                                          !
 ! A7    A(3,2,5)              110.9369                                         !
 ! A8    A(3,2,9)              107.3709                                         !
 ! A9    A(5,2,9)              108.8429                                         !
 ! A10   A(2,3,4)              123.7032                                         !
 ! A11   A(2,3,16)             114.1545                                         !
 ! A12   A(4,3,16)             122.1422                                         !
 ! A13   A(2,5,6)              110.1336                                         !
 ! A14   A(2,5,10)             109.0224                                         !
 ! A15   A(2,5,11)             111.5699                                         !
 ! A16   A(6,5,10)             109.9041                                         !
 ! A17   A(6,5,11)             109.5843                                         !
 ! A18   A(10,5,11)            106.5565                                         !
 ! A19   A(5,6,7)              114.9544                                         !
 ! A20   A(5,6,8)              123.048                                          !
 ! A21   A(7,6,8)              121.9856                                         !
 ! A22   A(6,7,12)             118.9448                                         !
 ! A23   A(6,7,13)             119.1208                                         !
 ! A24   A(12,7,13)            120.2013                                         !
 ! A25   A(3,16,17)            120.8931                                         !
 ! A26   A(3,16,27)            117.1604                                         !
 ! A27   A(17,16,27)           115.1787                                         !
 ! A28   A(16,17,18)           106.5774                                         !
 ! A29   A(16,17,20)           111.2226                                         !
 ! A30   A(16,17,28)           105.5211                                         !
 ! A31   A(18,17,20)           111.5814                                         !
 ! A32   A(18,17,28)           111.5884                                         !
 ! A33   A(20,17,28)           110.1409                                         !
 ! A34   A(17,18,19)           119.6502                                         !
 ! A35   A(17,18,36)           119.7901                                         !
 ! A36   A(19,18,36)           120.3645                                         !
 ! A37   A(17,20,21)           111.3591                                         !
 ! A38   A(17,20,29)           108.4467                                         !
 ! A39   A(17,20,30)           108.1841                                         !
 ! A40   A(21,20,29)           110.6117                                         !
 ! A41   A(21,20,30)           111.3427                                         !
 ! A42   A(29,20,30)           106.7269                                         !
 ! A43   A(20,21,22)           120.9539                                         !
 ! A44   A(20,21,23)           120.3665                                         !
 ! A45   A(22,21,23)           118.5987                                         !
 ! A46   A(21,22,24)           120.7408                                         !
 ! A47   A(21,22,31)           119.8067                                         !
 ! A48   A(24,22,31)           119.4516                                         !
 ! A49   A(21,23,25)           120.87                                           !
 ! A50   A(21,23,32)           119.4849                                         !
 ! A51   A(25,23,32)           119.6344                                         !
 ! A52   A(22,24,26)           120.1937                                         !
 ! A53   A(22,24,33)           119.7319                                         !
 ! A54   A(26,24,33)           120.0716                                         !
 ! A55   A(23,25,26)           119.9928                                         !
 ! A56   A(23,25,34)           119.8375                                         !
 ! A57   A(26,25,34)           120.1684                                         !
 ! A58   A(24,26,25)           119.6017                                         !
 ! A59   A(24,26,35)           120.1908                                         !
 ! A60   A(25,26,35)           120.2041                                         !
 ! A61   A(18,36,37)           133.2516                                         !
 ! A62   A(18,36,44)           115.7279                                         !
 ! A63   A(37,36,44)           110.9095                                         !
 ! A64   A(36,37,38)           114.1874                                         !
 ! A65   A(36,37,40)           109.2151                                         !
 ! A66   A(36,37,45)           110.1247                                         !
 ! A67   A(38,37,40)           107.645                                          !
 ! A68   A(38,37,45)           106.5055                                         !
 ! A69   A(40,37,45)           109.0177                                         !
 ! A70   A(37,38,39)           119.0187                                         !
 ! A71   A(37,38,50)           117.644                                          !
 ! A72   A(39,38,50)           123.3221                                         !
 ! A73   A(37,40,41)           111.2187                                         !
 ! A74   A(37,40,46)           109.539                                          !
 ! A75   A(37,40,47)           108.6313                                         !
 ! A76   A(41,40,46)           108.5332                                         !
 ! A77   A(41,40,47)           110.4691                                         !
 ! A78   A(46,40,47)           108.4025                                         !
 ! A79   A(40,41,42)           116.2285                                         !
 ! A80   A(40,41,43)           121.7482                                         !
 ! A81   A(42,41,43)           121.9946                                         !
 ! A82   A(41,42,48)           118.799                                          !
 ! A83   A(41,42,49)           122.3764                                         !
 ! A84   A(48,42,49)           118.3014                                         !
 ! A85   A(38,50,51)           119.0367                                         !
 ! A86   A(38,50,63)           119.4164                                         !
 ! A87   A(51,50,63)           116.8054                                         !
 ! A88   A(50,51,52)           108.9864                                         !
 ! A89   A(50,51,54)           113.3056                                         !
 ! A90   A(50,51,64)           107.8145                                         !
 ! A91   A(52,51,54)           114.0181                                         !
 ! A92   A(52,51,64)           106.4991                                         !
 ! A93   A(54,51,64)           105.7686                                         !
 ! A94   A(51,52,53)           123.0088                                         !
 ! A95   A(51,52,61)           112.3417                                         !
 ! A96   A(53,52,61)           124.6295                                         !
 ! A97   A(51,54,55)           119.5907                                         !
 ! A98   A(51,54,65)           106.8559                                         !
 ! A99   A(51,54,66)           105.4436                                         !
 ! A100  A(55,54,65)           107.7423                                         !
 ! A101  A(55,54,66)           109.7958                                         !
 ! A102  A(65,54,66)           106.7329                                         !
 ! A103  A(54,55,56)           117.3072                                         !
 ! A104  A(54,55,67)           110.5831                                         !
 ! A105  A(54,55,68)           106.8562                                         !
 ! A106  A(56,55,67)           108.7563                                         !
 ! A107  A(56,55,68)           107.4613                                         !
 ! A108  A(67,55,68)           105.1338                                         !
 ! A109  A(55,56,57)           109.2356                                         !
 ! A110  A(55,56,69)           110.0378                                         !
 ! A111  A(55,56,70)           110.447                                          !
 ! A112  A(57,56,69)           108.9954                                         !
 ! A113  A(57,56,70)           109.4526                                         !
 ! A114  A(69,56,70)           108.6485                                         !
 ! A115  A(56,57,58)           127.4017                                         !
 ! A116  A(56,57,71)           116.0049                                         !
 ! A117  A(58,57,71)           114.2564                                         !
 ! A118  A(57,58,59)           122.2944                                         !
 ! A119  A(57,58,60)           118.3734                                         !
 ! A120  A(59,58,60)           119.2539                                         !
 ! A121  A(58,59,72)           116.293                                          !
 ! A122  A(58,59,73)           119.919                                          !
 ! A123  A(72,59,73)           116.3207                                         !
 ! A124  A(58,60,74)           116.032                                          !
 ! A125  A(58,60,75)           115.528                                          !
 ! A126  A(74,60,75)           115.5009                                         !
 ! A127  A(52,61,62)           110.9115                                         !
 ! D1    D(14,1,2,3)           -64.9779                                         !
 ! D2    D(14,1,2,5)           171.0559                                         !
 ! D3    D(14,1,2,9)            53.4028                                         !
 ! D4    D(15,1,2,3)            52.0144                                         !
 ! D5    D(15,1,2,5)           -71.9518                                         !
 ! D6    D(15,1,2,9)           170.3951                                         !
 ! D7    D(1,2,3,4)           -102.6068                                         !
 ! D8    D(1,2,3,16)            77.4355                                         !
 ! D9    D(5,2,3,4)             20.2183                                         !
 ! D10   D(5,2,3,16)          -159.7394                                         !
 ! D11   D(9,2,3,4)            139.0356                                         !
 ! D12   D(9,2,3,16)           -40.9221                                         !
 ! D13   D(1,2,5,6)            -85.4606                                         !
 ! D14   D(1,2,5,10)            35.1996                                         !
 ! D15   D(1,2,5,11)           152.6134                                         !
 ! D16   D(3,2,5,6)            149.1567                                         !
 ! D17   D(3,2,5,10)           -90.1831                                         !
 ! D18   D(3,2,5,11)            27.2307                                         !
 ! D19   D(9,2,5,6)             31.2306                                         !
 ! D20   D(9,2,5,10)           151.8908                                         !
 ! D21   D(9,2,5,11)           -90.6954                                         !
 ! D22   D(2,3,16,17)         -160.1607                                         !
 ! D23   D(2,3,16,27)          -10.3692                                         !
 ! D24   D(4,3,16,17)           19.8808                                         !
 ! D25   D(4,3,16,27)          169.6724                                         !
 ! D26   D(2,5,6,7)             63.4848                                         !
 ! D27   D(2,5,6,8)           -115.2805                                         !
 ! D28   D(10,5,6,7)           -56.6442                                         !
 ! D29   D(10,5,6,8)           124.5905                                         !
 ! D30   D(11,5,6,7)          -173.4194                                         !
 ! D31   D(11,5,6,8)             7.8152                                         !
 ! D32   D(5,6,7,12)          -174.7716                                         !
 ! D33   D(5,6,7,13)            -9.7308                                         !
 ! D34   D(8,6,7,12)             4.0083                                         !
 ! D35   D(8,6,7,13)           169.049                                          !
 ! D36   D(3,16,17,18)        -121.5146                                         !
 ! D37   D(3,16,17,20)         116.6625                                         !
 ! D38   D(3,16,17,28)          -2.7576                                         !
 ! D39   D(27,16,17,18)         88.1332                                         !
 ! D40   D(27,16,17,20)        -33.6897                                         !
 ! D41   D(27,16,17,28)       -153.1098                                         !
 ! D42   D(16,17,18,19)        -74.3184                                         !
 ! D43   D(16,17,18,36)        100.6236                                         !
 ! D44   D(20,17,18,19)         47.2769                                         !
 ! D45   D(20,17,18,36)       -137.7811                                         !
 ! D46   D(28,17,18,19)        170.9699                                         !
 ! D47   D(28,17,18,36)        -14.0881                                         !
 ! D48   D(16,17,20,21)        -46.1606                                         !
 ! D49   D(16,17,20,29)         75.7716                                         !
 ! D50   D(16,17,20,30)       -168.8297                                         !
 ! D51   D(18,17,20,21)       -165.0256                                         !
 ! D52   D(18,17,20,29)        -43.0934                                         !
 ! D53   D(18,17,20,30)         72.3053                                         !
 ! D54   D(28,17,20,21)         70.4665                                         !
 ! D55   D(28,17,20,29)       -167.6013                                         !
 ! D56   D(28,17,20,30)        -52.2026                                         !
 ! D57   D(17,18,36,37)          2.6386                                         !
 ! D58   D(17,18,36,44)       -173.1057                                         !
 ! D59   D(19,18,36,37)        177.544                                          !
 ! D60   D(19,18,36,44)          1.7996                                         !
 ! D61   D(17,20,21,22)        -62.2263                                         !
 ! D62   D(17,20,21,23)        114.4582                                         !
 ! D63   D(29,20,21,22)        177.1046                                         !
 ! D64   D(29,20,21,23)         -6.2109                                         !
 ! D65   D(30,20,21,22)         58.6087                                         !
 ! D66   D(30,20,21,23)       -124.7068                                         !
 ! D67   D(20,21,22,24)        176.6062                                         !
 ! D68   D(20,21,22,31)         -3.0461                                         !
 ! D69   D(23,21,22,24)         -0.1356                                         !
 ! D70   D(23,21,22,31)       -179.788                                          !
 ! D71   D(20,21,23,25)       -176.9893                                         !
 ! D72   D(20,21,23,32)          4.2002                                         !
 ! D73   D(22,21,23,25)         -0.2276                                         !
 ! D74   D(22,21,23,32)       -179.0381                                         !
 ! D75   D(21,22,24,26)          0.1814                                         !
 ! D76   D(21,22,24,33)        179.5616                                         !
 ! D77   D(31,22,24,26)        179.835                                          !
 ! D78   D(31,22,24,33)         -0.7848                                         !
 ! D79   D(21,23,25,26)          0.5459                                         !
 ! D80   D(21,23,25,34)       -179.0533                                         !
 ! D81   D(32,23,25,26)        179.3546                                         !
 ! D82   D(32,23,25,34)         -0.2446                                         !
 ! D83   D(22,24,26,25)          0.1363                                         !
 ! D84   D(22,24,26,35)        179.4695                                         !
 ! D85   D(33,24,26,25)       -179.2418                                         !
 ! D86   D(33,24,26,35)          0.0915                                         !
 ! D87   D(23,25,26,24)         -0.4954                                         !
 ! D88   D(23,25,26,35)       -179.8286                                         !
 ! D89   D(34,25,26,24)        179.1024                                         !
 ! D90   D(34,25,26,35)         -0.2307                                         !
 ! D91   D(18,36,37,38)        -99.1997                                         !
 ! D92   D(18,36,37,40)        140.2405                                         !
 ! D93   D(18,36,37,45)         20.555                                          !
 ! D94   D(44,36,37,38)         76.6965                                         !
 ! D95   D(44,36,37,40)        -43.8633                                         !
 ! D96   D(44,36,37,45)       -163.5488                                         !
 ! D97   D(36,37,38,39)       -158.0073                                         !
 ! D98   D(36,37,38,50)         20.6242                                         !
 ! D99   D(40,37,38,39)        -36.5765                                         !
 ! D100  D(40,37,38,50)        142.0549                                         !
 ! D101  D(45,37,38,39)         80.2248                                         !
 ! D102  D(45,37,38,50)       -101.1438                                         !
 ! D103  D(36,37,40,41)         65.2456                                         !
 ! D104  D(36,37,40,46)        -54.7273                                         !
 ! D105  D(36,37,40,47)       -172.9666                                         !
 ! D106  D(38,37,40,41)        -59.2385                                         !
 ! D107  D(38,37,40,46)       -179.2113                                         !
 ! D108  D(38,37,40,47)         62.5494                                         !
 ! D109  D(45,37,40,41)       -174.388                                          !
 ! D110  D(45,37,40,46)         65.6392                                         !
 ! D111  D(45,37,40,47)        -52.6001                                         !
 ! D112  D(37,38,50,51)        169.8088                                         !
 ! D113  D(37,38,50,63)         14.965                                          !
 ! D114  D(39,38,50,51)        -11.6235                                         !
 ! D115  D(39,38,50,63)       -166.4672                                         !
 ! D116  D(37,40,41,42)        151.3561                                         !
 ! D117  D(37,40,41,43)        -30.5543                                         !
 ! D118  D(46,40,41,42)        -88.0764                                         !
 ! D119  D(46,40,41,43)         90.0131                                         !
 ! D120  D(47,40,41,42)         30.6437                                         !
 ! D121  D(47,40,41,43)       -151.2667                                         !
 ! D122  D(40,41,42,48)        179.2727                                         !
 ! D123  D(40,41,42,49)         -9.1692                                         !
 ! D124  D(43,41,42,48)          1.1883                                         !
 ! D125  D(43,41,42,49)        172.7464                                         !
 ! D126  D(38,50,51,52)       -153.6101                                         !
 ! D127  D(38,50,51,54)         78.2998                                         !
 ! D128  D(38,50,51,64)        -38.3943                                         !
 ! D129  D(63,50,51,52)          1.8793                                         !
 ! D130  D(63,50,51,54)       -126.2108                                         !
 ! D131  D(63,50,51,64)        117.0951                                         !
 ! D132  D(50,51,52,53)        -18.6092                                         !
 ! D133  D(50,51,52,61)        159.8304                                         !
 ! D134  D(54,51,52,53)        109.0797                                         !
 ! D135  D(54,51,52,61)        -72.4807                                         !
 ! D136  D(64,51,52,53)       -134.6711                                         !
 ! D137  D(64,51,52,61)         43.7684                                         !
 ! D138  D(50,51,54,55)         71.0312                                         !
 ! D139  D(50,51,54,65)       -166.4057                                         !
 ! D140  D(50,51,54,66)        -53.0893                                         !
 ! D141  D(52,51,54,55)        -54.4043                                         !
 ! D142  D(52,51,54,65)         68.1588                                         !
 ! D143  D(52,51,54,66)       -178.5248                                         !
 ! D144  D(64,51,54,55)       -171.0781                                         !
 ! D145  D(64,51,54,65)        -48.515                                          !
 ! D146  D(64,51,54,66)         64.8014                                         !
 ! D147  D(51,52,61,62)       -165.6796                                         !
 ! D148  D(53,52,61,62)         12.7301                                         !
 ! D149  D(51,54,55,56)        -56.2323                                         !
 ! D150  D(51,54,55,67)         69.2489                                         !
 ! D151  D(51,54,55,68)       -176.8486                                         !
 ! D152  D(65,54,55,56)       -178.3594                                         !
 ! D153  D(65,54,55,67)        -52.8782                                         !
 ! D154  D(65,54,55,68)         61.0242                                         !
 ! D155  D(66,54,55,56)         65.7637                                         !
 ! D156  D(66,54,55,67)       -168.755                                          !
 ! D157  D(66,54,55,68)        -54.8526                                         !
 ! D158  D(54,55,56,57)         83.3746                                         !
 ! D159  D(54,55,56,69)       -157.0074                                         !
 ! D160  D(54,55,56,70)        -37.0584                                         !
 ! D161  D(67,55,56,57)        -43.0077                                         !
 ! D162  D(67,55,56,69)         76.6103                                         !
 ! D163  D(67,55,56,70)       -163.4407                                         !
 ! D164  D(68,55,56,57)       -156.3267                                         !
 ! D165  D(68,55,56,69)        -36.7088                                         !
 ! D166  D(68,55,56,70)         83.2403                                         !
 ! D167  D(55,56,57,58)       -152.1967                                         !
 ! D168  D(55,56,57,71)          9.3185                                         !
 ! D169  D(69,56,57,58)         87.5437                                         !
 ! D170  D(69,56,57,71)       -110.941                                          !
 ! D171  D(70,56,57,58)        -31.1567                                         !
 ! D172  D(70,56,57,71)        130.3586                                         !
 ! D173  D(56,57,58,59)        -17.2452                                         !
 ! D174  D(56,57,58,60)        165.9989                                         !
 ! D175  D(71,57,58,59)       -179.0326                                         !
 ! D176  D(71,57,58,60)          4.2116                                         !
 ! D177  D(57,58,59,72)        164.6496                                         !
 ! D178  D(57,58,59,73)         15.8974                                         !
 ! D179  D(60,58,59,72)        -18.6221                                         !
 ! D180  D(60,58,59,73)       -167.3743                                         !
 ! D181  D(57,58,60,74)       -163.4369                                         !
 ! D182  D(57,58,60,75)        -23.5984                                         !
 ! D183  D(59,58,60,74)         19.7062                                         !
 ! D184  D(59,58,60,75)        159.5446                                         !
 --------------------------------------------------------------------------------
 Symmetry turned off by external request.
 Stoichiometry    C23H36N9O7(1+)
 Framework group  C1[X(C23H36N9O7)]
 Deg. of freedom   219
 Full point group                 C1      NOp   1
                          Input orientation:                          
 ---------------------------------------------------------------------
 Center     Atomic      Atomic             Coordinates (Angstroms)
 Number     Number       Type             X           Y           Z
 ---------------------------------------------------------------------
      1          7           0       -8.108488   -5.455073   -7.583460
      2          6           0       -7.840017   -4.218455   -8.335120
      3          6           0       -8.012135   -2.942898   -7.491991
      4          8           0       -8.989984   -2.209460   -7.561410
      5          6           0       -8.750125   -4.183727   -9.578625
      6          6           0       -8.101616   -4.946228  -10.723358
      7          7           0       -7.922022   -6.260115  -10.500108
      8          8           0       -7.738817   -4.402166  -11.781084
      9          1           0       -6.794282   -4.255778   -8.662578
     10          1           0       -9.715105   -4.637485   -9.327626
     11          1           0       -8.959256   -3.165215   -9.891987
     12          1           0       -7.423878   -6.809995  -11.187820
     13          1           0       -8.077733   -6.628983   -9.565668
     14          1           0       -7.435451   -5.601921   -6.832761
     15          1           0       -9.017700   -5.395510   -7.124261
     16          7           0       -6.961222   -2.685062   -6.638229
     17          6           0       -7.129373   -1.796097   -5.484230
     18          6           0       -6.112191   -0.663673   -5.653119
     19          8           0       -4.905361   -0.883198   -5.441022
     20          6           0       -6.917441   -2.556785   -4.156975
     21          6           0       -7.661106   -3.876024   -4.152516
     22          6           0       -9.058811   -3.916247   -4.253916
     23          6           0       -6.956144   -5.086450   -4.116165
     24          6           0       -9.734427   -5.135559   -4.320200
     25          6           0       -7.629292   -6.310960   -4.174704
     26          6           0       -9.021117   -6.337868   -4.282214
     27          1           0       -6.269865   -3.416295   -6.521844
     28          1           0       -8.153181   -1.428016   -5.546414
     29          1           0       -5.843738   -2.719180   -4.018431
     30          1           0       -7.247559   -1.909558   -3.334931
     31          1           0       -9.625251   -2.988642   -4.287165
     32          1           0       -5.872212   -5.072313   -4.021790
     33          1           0      -10.818489   -5.147722   -4.391333
     34          1           0       -7.067111   -7.239530   -4.129741
     35          1           0       -9.547563   -7.286838   -4.325133
     36          7           0       -6.514175    0.532498   -6.127619
     37          6           0       -7.815039    1.069300   -6.512839
     38          6           0       -8.083087    1.049627   -8.037344
     39          8           0       -8.919528    1.815109   -8.504136
     40          6           0       -7.920818    2.532619   -6.038539
     41          6           0       -6.909328    3.424864   -6.763853
     42          7           0       -7.256253    4.715637   -6.914983
     43          8           0       -5.815936    2.987326   -7.156509
     44          1           0       -5.773381    1.203828   -6.318057
     45          1           0       -8.614394    0.486259   -6.049601
     46          1           0       -7.721817    2.584317   -4.961641
     47          1           0       -8.938268    2.884776   -6.218250
     48          1           0       -6.611676    5.342474   -7.378905
     49          1           0       -8.181483    5.055975   -6.696621
     50          7           0       -7.350191    0.195641   -8.794108
     51          6           0       -7.724899   -0.014675  -10.190143
     52          6           0       -7.252349   -1.396011  -10.627686
     53          8           0       -6.383760   -2.033605  -10.022108
     54          6           0       -7.270334    1.133532  -11.126715
     55          6           0       -5.775105    1.303690  -11.450237
     56          6           0       -4.810705    1.468590  -10.263474
     57          7           0       -4.463237    0.143104   -9.734501
     58          6           0       -4.111863   -0.163214   -8.487442
     59          7           0       -3.703895    0.765415   -7.608932
     60          7           0       -4.107728   -1.463918   -8.122767
     61          8           0       -7.891018   -1.828459  -11.683319
     62          1           0       -7.734562   -2.838826  -11.820051
     63          1           0       -6.832085   -0.546903   -8.344265
     64          1           0       -8.819070   -0.028254  -10.245126
     65          1           0       -7.803885    1.000687  -12.074202
     66          1           0       -7.657951    2.050547  -10.672787
     67          1           0       -5.419683    0.476691  -12.082574
     68          1           0       -5.685020    2.199761  -12.073975
     69          1           0       -3.894669    1.973223  -10.591287
     70          1           0       -5.276335    2.066836   -9.472016
     71          1           0       -4.765857   -0.649255  -10.288083
     72          1           0       -3.689463    0.485033   -6.630638
     73          1           0       -3.878860    1.745639   -7.792470
     74          1           0       -4.093712   -1.647030   -7.122144
     75          1           0       -4.706753   -2.073623   -8.670250
 ---------------------------------------------------------------------
 Rotational constants (GHZ):           0.1282359           0.0819284           0.0623128
 Standard basis: 6-31G(d) (6D, 7F)
   657 basis functions,  1236 primitive gaussians,   657 cartesian basis functions
   146 alpha electrons      146 beta electrons
       nuclear repulsion energy      5154.8345297073 Hartrees.
 NAtoms=   75 NActive=   75 NUniq=   75 SFac= 1.00D+00 NAtFMM=   60 NAOKFM=T Big=T
 Integral buffers will be    131072 words long.
 Raffenetti 2 integral format.
 Two-electron integral symmetry is turned off.
 Nuclear repulsion after empirical dispersion term =     5154.7100975489 Hartrees.
 One-electron integrals computed using PRISM.
 NBasis=   657 RedAO= T EigKep=  4.69D-04  NBF=   657
 NBsUse=   657 1.00D-06 EigRej= -1.00D+00 NBFU=   657
 Initial guess from the checkpoint file:  "conf-883.chk"
 B after Tr=     0.000000    0.000000    0.000000
         Rot=    1.000000    0.000000    0.000000    0.000000 Ang=   0.00 deg.
 Requested convergence on RMS density matrix=1.00D-08 within 128 cycles.
 Requested convergence on MAX density matrix=1.00D-06.
 Requested convergence on             energy=1.00D-06.
 No special actions if energy rises.
 SCF Done:  E(RB3LYP) =  -1917.53374541     A.U. after    2 cycles
            NFock=  2  Conv=0.96D-08     -V/T= 2.0093

 **********************************************************************

            Population analysis using the SCF Density.

 **********************************************************************

 Alpha  occ. eigenvalues --  -19.27985 -19.25257 -19.23955 -19.23918 -19.23045
 Alpha  occ. eigenvalues --  -19.22483 -19.21893 -14.49300 -14.48913 -14.48079
 Alpha  occ. eigenvalues --  -14.48035 -14.47725 -14.47454 -14.46418 -14.44949
 Alpha  occ. eigenvalues --  -14.43202 -10.45277 -10.43090 -10.41420 -10.41223
 Alpha  occ. eigenvalues --  -10.39693 -10.39337 -10.39231 -10.35765 -10.34826
 Alpha  occ. eigenvalues --  -10.34121 -10.33888 -10.33703 -10.31421 -10.30077
 Alpha  occ. eigenvalues --  -10.29739 -10.29553 -10.29102 -10.29065 -10.28563
 Alpha  occ. eigenvalues --  -10.28427 -10.28418 -10.28372 -10.28211  -1.20493
 Alpha  occ. eigenvalues --   -1.16000  -1.15262  -1.14759  -1.14166  -1.14019
 Alpha  occ. eigenvalues --   -1.13563  -1.11521  -1.04940  -1.04084  -1.03823
 Alpha  occ. eigenvalues --   -1.02683  -1.02291  -1.01944  -1.00906  -0.99303
 Alpha  occ. eigenvalues --   -0.95141  -0.90792  -0.89871  -0.89044  -0.86351
 Alpha  occ. eigenvalues --   -0.85980  -0.84095  -0.83787  -0.80344  -0.78968
 Alpha  occ. eigenvalues --   -0.77627  -0.76096  -0.75736  -0.73111  -0.71871
 Alpha  occ. eigenvalues --   -0.70951  -0.70537  -0.70420  -0.69888  -0.69123
 Alpha  occ. eigenvalues --   -0.68213  -0.67976  -0.67551  -0.66611  -0.65445
 Alpha  occ. eigenvalues --   -0.64861  -0.63920  -0.63377  -0.62475  -0.61935
 Alpha  occ. eigenvalues --   -0.61464  -0.60818  -0.60422  -0.60115  -0.59785
 Alpha  occ. eigenvalues --   -0.59298  -0.59142  -0.58051  -0.57805  -0.57515
 Alpha  occ. eigenvalues --   -0.56569  -0.56214  -0.55718  -0.55441  -0.55248
 Alpha  occ. eigenvalues --   -0.54655  -0.54410  -0.54091  -0.53510  -0.52960
 Alpha  occ. eigenvalues --   -0.52538  -0.52280  -0.52072  -0.51767  -0.51403
 Alpha  occ. eigenvalues --   -0.51085  -0.50960  -0.50695  -0.49974  -0.49739
 Alpha  occ. eigenvalues --   -0.49248  -0.48462  -0.48171  -0.47844  -0.47235
 Alpha  occ. eigenvalues --   -0.46995  -0.46493  -0.45801  -0.45274  -0.45131
 Alpha  occ. eigenvalues --   -0.44977  -0.44314  -0.43428  -0.43219  -0.42093
 Alpha  occ. eigenvalues --   -0.40959  -0.39730  -0.39401  -0.38984  -0.38879
 Alpha  occ. eigenvalues --   -0.38584  -0.37960  -0.37939  -0.36875  -0.36524
 Alpha  occ. eigenvalues --   -0.36196  -0.35835  -0.34648  -0.34594  -0.34222
 Alpha  occ. eigenvalues --   -0.33946
 Alpha virt. eigenvalues --   -0.11338  -0.10804  -0.10333  -0.10210  -0.09804
 Alpha virt. eigenvalues --   -0.09400  -0.08987  -0.08013  -0.07367  -0.04585
 Alpha virt. eigenvalues --   -0.02983  -0.02245  -0.01500  -0.01139  -0.00185
 Alpha virt. eigenvalues --    0.00216   0.00482   0.01167   0.01385   0.01675
 Alpha virt. eigenvalues --    0.02274   0.02828   0.02898   0.03586   0.03705
 Alpha virt. eigenvalues --    0.04025   0.04455   0.04554   0.05016   0.05335
 Alpha virt. eigenvalues --    0.05831   0.05960   0.06177   0.06543   0.06696
 Alpha virt. eigenvalues --    0.06880   0.07200   0.07562   0.07681   0.08167
 Alpha virt. eigenvalues --    0.08798   0.08991   0.09334   0.09556   0.09851
 Alpha virt. eigenvalues --    0.10575   0.10991   0.11410   0.11737   0.11902
 Alpha virt. eigenvalues --    0.12260   0.12825   0.12974   0.13632   0.14512
 Alpha virt. eigenvalues --    0.14840   0.15238   0.15414   0.15755   0.16362
 Alpha virt. eigenvalues --    0.16970   0.17978   0.18461   0.20362   0.21089
 Alpha virt. eigenvalues --    0.21429   0.21872   0.22522   0.23350   0.23840
 Alpha virt. eigenvalues --    0.24638   0.25334   0.25480   0.25673   0.26389
 Alpha virt. eigenvalues --    0.27143   0.27382   0.28904   0.29569   0.30728
 Alpha virt. eigenvalues --    0.31169   0.32845   0.35171   0.36382   0.37149
 Alpha virt. eigenvalues --    0.38040   0.39112   0.39599   0.40192   0.40785
 Alpha virt. eigenvalues --    0.41556   0.42411   0.43163   0.43574   0.43820
 Alpha virt. eigenvalues --    0.44544   0.44618   0.44874   0.45155   0.45271
 Alpha virt. eigenvalues --    0.45766   0.45980   0.46709   0.46934   0.47277
 Alpha virt. eigenvalues --    0.47414   0.48220   0.48569   0.48799   0.49221
 Alpha virt. eigenvalues --    0.49323   0.50137   0.50850   0.51337   0.51721
 Alpha virt. eigenvalues --    0.51874   0.52345   0.52579   0.52923   0.53452
 Alpha virt. eigenvalues --    0.53619   0.54153   0.54898   0.55148   0.55530
 Alpha virt. eigenvalues --    0.55725   0.55874   0.56140   0.56428   0.56807
 Alpha virt. eigenvalues --    0.56940   0.57904   0.58455   0.58817   0.59165
 Alpha virt. eigenvalues --    0.59998   0.60391   0.60643   0.60980   0.61826
 Alpha virt. eigenvalues --    0.62592   0.63226   0.63736   0.64700   0.64759
 Alpha virt. eigenvalues --    0.65441   0.65733   0.66128   0.67114   0.67700
 Alpha virt. eigenvalues --    0.68249   0.68841   0.69598   0.69842   0.70506
 Alpha virt. eigenvalues --    0.70566   0.70957   0.71958   0.72323   0.73326
 Alpha virt. eigenvalues --    0.73637   0.74037   0.74320   0.74541   0.74645
 Alpha virt. eigenvalues --    0.75225   0.75906   0.75981   0.76539   0.76751
 Alpha virt. eigenvalues --    0.76970   0.77079   0.77478   0.78035   0.78384
 Alpha virt. eigenvalues --    0.78775   0.79106   0.79377   0.79945   0.80322
 Alpha virt. eigenvalues --    0.80516   0.80771   0.81385   0.81574   0.81762
 Alpha virt. eigenvalues --    0.82245   0.82537   0.82924   0.83539   0.84219
 Alpha virt. eigenvalues --    0.84872   0.84899   0.85711   0.86340   0.86513
 Alpha virt. eigenvalues --    0.86868   0.87641   0.87758   0.88583   0.89638
 Alpha virt. eigenvalues --    0.89970   0.90424   0.91213   0.91399   0.91778
 Alpha virt. eigenvalues --    0.92230   0.92894   0.93516   0.94867   0.95326
 Alpha virt. eigenvalues --    0.95693   0.96134   0.96620   0.96836   0.98488
 Alpha virt. eigenvalues --    0.99360   0.99615   1.00579   1.01242   1.02373
 Alpha virt. eigenvalues --    1.02705   1.02856   1.03689   1.04108   1.04358
 Alpha virt. eigenvalues --    1.05274   1.06215   1.06959   1.07960   1.08386
 Alpha virt. eigenvalues --    1.09160   1.10007   1.10941   1.11469   1.12092
 Alpha virt. eigenvalues --    1.12555   1.13146   1.13995   1.14570   1.15915
 Alpha virt. eigenvalues --    1.16009   1.16789   1.17505   1.18365   1.19218
 Alpha virt. eigenvalues --    1.19810   1.20471   1.21116   1.22765   1.23350
 Alpha virt. eigenvalues --    1.24076   1.24680   1.25521   1.26063   1.27098
 Alpha virt. eigenvalues --    1.27844   1.29050   1.29074   1.29906   1.30308
 Alpha virt. eigenvalues --    1.31388   1.31998   1.32643   1.32995   1.33433
 Alpha virt. eigenvalues --    1.34073   1.35127   1.35821   1.36178   1.37585
 Alpha virt. eigenvalues --    1.38498   1.38642   1.39636   1.40135   1.42084
 Alpha virt. eigenvalues --    1.42210   1.43094   1.43669   1.44936   1.45090
 Alpha virt. eigenvalues --    1.46749   1.47186   1.48265   1.49244   1.50194
 Alpha virt. eigenvalues --    1.51570   1.52141   1.53204   1.53994   1.54916
 Alpha virt. eigenvalues --    1.56294   1.56998   1.57587   1.58517   1.59365
 Alpha virt. eigenvalues --    1.59667   1.60841   1.61404   1.61912   1.62542
 Alpha virt. eigenvalues --    1.63381   1.63730   1.64368   1.64906   1.65801
 Alpha virt. eigenvalues --    1.67182   1.67382   1.67845   1.68658   1.68896
 Alpha virt. eigenvalues --    1.69552   1.70536   1.70791   1.71432   1.71674
 Alpha virt. eigenvalues --    1.72197   1.72732   1.73093   1.73854   1.74591
 Alpha virt. eigenvalues --    1.74948   1.75503   1.76429   1.76555   1.77192
 Alpha virt. eigenvalues --    1.77661   1.78155   1.78669   1.79222   1.79840
 Alpha virt. eigenvalues --    1.80090   1.80601   1.81255   1.81831   1.82051
 Alpha virt. eigenvalues --    1.83140   1.83738   1.84489   1.85522   1.85755
 Alpha virt. eigenvalues --    1.86241   1.86730   1.87816   1.88254   1.89212
 Alpha virt. eigenvalues --    1.90078   1.91128   1.91656   1.92326   1.92940
 Alpha virt. eigenvalues --    1.93022   1.93728   1.94854   1.94898   1.95575
 Alpha virt. eigenvalues --    1.96413   1.97040   1.97397   1.98234   1.98442
 Alpha virt. eigenvalues --    2.00056   2.00750   2.01384   2.02128   2.02872
 Alpha virt. eigenvalues --    2.03216   2.03824   2.04517   2.05062   2.06379
 Alpha virt. eigenvalues --    2.06634   2.07578   2.07746   2.08400   2.09337
 Alpha virt. eigenvalues --    2.10031   2.10562   2.11453   2.13005   2.13720
 Alpha virt. eigenvalues --    2.14079   2.14348   2.15670   2.17207   2.17788
 Alpha virt. eigenvalues --    2.17955   2.19116   2.20083   2.21267   2.21686
 Alpha virt. eigenvalues --    2.22805   2.23551   2.24095   2.24249   2.25730
 Alpha virt. eigenvalues --    2.26585   2.27490   2.27987   2.28624   2.29628
 Alpha virt. eigenvalues --    2.30896   2.32006   2.32114   2.33113   2.34063
 Alpha virt. eigenvalues --    2.34816   2.35991   2.36462   2.37747   2.38683
 Alpha virt. eigenvalues --    2.40272   2.40687   2.40975   2.43171   2.43953
 Alpha virt. eigenvalues --    2.44077   2.45089   2.45482   2.47563   2.47974
 Alpha virt. eigenvalues --    2.48840   2.49835   2.50533   2.50643   2.51747
 Alpha virt. eigenvalues --    2.52529   2.52809   2.53460   2.53472   2.54404
 Alpha virt. eigenvalues --    2.55485   2.55704   2.56215   2.56536   2.58801
 Alpha virt. eigenvalues --    2.59218   2.60045   2.61409   2.62218   2.62840
 Alpha virt. eigenvalues --    2.63492   2.64770   2.65318   2.66318   2.68643
 Alpha virt. eigenvalues --    2.69362   2.70670   2.70914   2.74152   2.76397
 Alpha virt. eigenvalues --    2.77765   2.80244   2.81809   2.84210   2.86334
 Alpha virt. eigenvalues --    2.87755   2.88532   2.89874   2.90611   2.92031
 Alpha virt. eigenvalues --    2.92581   2.93796   2.94525   2.96378   2.97300
 Alpha virt. eigenvalues --    2.98138   2.99195   3.02449   3.03239   3.07352
 Alpha virt. eigenvalues --    3.10523   3.31388   3.69756   3.73208   3.73794
 Alpha virt. eigenvalues --    3.77872   3.82448   3.84572   3.90556   3.93525
 Alpha virt. eigenvalues --    3.95839   3.99835   4.01353   4.04583   4.05431
 Alpha virt. eigenvalues --    4.06644   4.08264   4.09634   4.10498   4.11342
 Alpha virt. eigenvalues --    4.15880   4.17180   4.17348   4.18953   4.22403
 Alpha virt. eigenvalues --    4.23335   4.28399   4.28657   4.31421   4.33985
 Alpha virt. eigenvalues --    4.35970   4.39954   4.40258   4.41787   4.45920
 Alpha virt. eigenvalues --    4.48422   4.55975   4.59764   4.61542   4.62410
 Alpha virt. eigenvalues --    4.65825
          Condensed to atoms (all electrons):
 Mulliken charges:
               1
     1  N   -0.736122
     2  C   -0.096990
     3  C    0.628100
     4  O   -0.521821
     5  C   -0.362271
     6  C    0.607163
     7  N   -0.716969
     8  O   -0.559139
     9  H    0.170665
    10  H    0.188450
    11  H    0.192189
    12  H    0.358222
    13  H    0.379747
    14  H    0.321049
    15  H    0.328423
    16  N   -0.622435
    17  C   -0.054896
    18  C    0.618097
    19  O   -0.573304
    20  C   -0.386907
    21  C    0.172097
    22  C   -0.175895
    23  C   -0.221306
    24  C   -0.146131
    25  C   -0.136112
    26  C   -0.133473
    27  H    0.330732
    28  H    0.193420
    29  H    0.183392
    30  H    0.180225
    31  H    0.143287
    32  H    0.141972
    33  H    0.157266
    34  H    0.156284
    35  H    0.157974
    36  N   -0.618001
    37  C   -0.090605
    38  C    0.657134
    39  O   -0.524960
    40  C   -0.373108
    41  C    0.633684
    42  N   -0.726044
    43  O   -0.567136
    44  H    0.375179
    45  H    0.208147
    46  H    0.199464
    47  H    0.203515
    48  H    0.363045
    49  H    0.367489
    50  N   -0.638831
    51  C   -0.025507
    52  C    0.594883
    53  O   -0.555024
    54  C   -0.279093
    55  C   -0.328607
    56  C   -0.150810
    57  N   -0.591436
    58  C    0.746046
    59  N   -0.760211
    60  N   -0.770867
    61  O   -0.581091
    62  H    0.475506
    63  H    0.359403
    64  H    0.215069
    65  H    0.183120
    66  H    0.191832
    67  H    0.162530
    68  H    0.182363
    69  H    0.185027
    70  H    0.198535
    71  H    0.368604
    72  H    0.379869
    73  H    0.394419
    74  H    0.384237
    75  H    0.387248
 Sum of Mulliken charges =   1.00000
 Mulliken charges with hydrogens summed into heavy atoms:
               1
     1  N   -0.086650
     2  C    0.073675
     3  C    0.628100
     4  O   -0.521821
     5  C    0.018367
     6  C    0.607163
     7  N    0.021000
     8  O   -0.559139
    16  N   -0.291703
    17  C    0.138524
    18  C    0.618097
    19  O   -0.573304
    20  C   -0.023289
    21  C    0.172097
    22  C   -0.032608
    23  C   -0.079333
    24  C    0.011134
    25  C    0.020172
    26  C    0.024500
    36  N   -0.242822
    37  C    0.117542
    38  C    0.657134
    39  O   -0.524960
    40  C    0.029871
    41  C    0.633684
    42  N    0.004490
    43  O   -0.567136
    50  N   -0.279428
    51  C    0.189562
    52  C    0.594883
    53  O   -0.555024
    54  C    0.095859
    55  C    0.016285
    56  C    0.232752
    57  N   -0.222831
    58  C    0.746046
    59  N    0.014078
    60  N    0.000618
    61  O   -0.105585
 Electronic spatial extent (au):  <R**2>=         135694.9198
 Charge=              1.0000 electrons
 Dipole moment (field-independent basis, Debye):
    X=            -31.4494    Y=             -3.8351    Z=            -35.1043  Tot=             47.2873
 Quadrupole moment (field-independent basis, Debye-Ang):
   XX=             -7.8536   YY=           -118.0843   ZZ=             52.3952
   XY=             35.3558   XZ=            212.6273   YZ=             22.9620
 Traceless Quadrupole moment (field-independent basis, Debye-Ang):
   XX=             16.6606   YY=            -93.5701   ZZ=             76.9094
   XY=             35.3558   XZ=            212.6273   YZ=             22.9620
 Octapole moment (field-independent basis, Debye-Ang**2):
  XXX=           3210.9090  YYY=            696.5013  ZZZ=           2841.1350  XYY=            783.3955
  XXY=             -2.8534  XXZ=            398.0987  XZZ=             44.2094  YZZ=            205.2802
  YYZ=            954.5425  XYZ=           -234.4194
 Hexadecapole moment (field-independent basis, Debye-Ang**3):
 XXXX=         -59240.8907 YYYY=         -10484.7327 ZZZZ=         -67053.6690 XXXY=          -4941.0326
 XXXZ=         -27828.8777 YYYX=          -5904.2670 YYYZ=          -4406.4244 ZZZX=         -24239.6782
 ZZZY=          -6325.6446 XXYY=          -7900.4974 XXZZ=         -17866.7317 YYZZ=         -11106.8968
 XXYZ=             18.6783 YYXZ=          -6385.5288 ZZXY=          -1224.6876
 N-N= 5.154710097549D+03 E-N=-1.474890857639D+04  KE= 1.899800037941D+03
 Unable to Open any file for archive entry.
 1\1\GINC-VIM-001\SP\RB3LYP\6-31G(d)\C23H36N9O7(1+)\KENGMITH\03-Jun-202
 2\0\\# B3LYP/6-31G* empiricaldispersion=gd3 guess=read geom=check nosy
 mm integral(ultrafinegrid)\\Candidate Structure: Conf:883 Charge calc 
 in gas phase\\1,1\N,0,-8.108487571,-5.4550733795,-7.5834597221\C,0,-7.
 8400172606,-4.2184549839,-8.3351200813\C,0,-8.0121351181,-2.9428982345
 ,-7.4919909407\O,0,-8.9899840146,-2.2094603778,-7.5614103297\C,0,-8.75
 01245643,-4.183726791,-9.57862531\C,0,-8.1016161598,-4.946228194,-10.7
 233581283\N,0,-7.9220220949,-6.2601145688,-10.5001080156\O,0,-7.738816
 863,-4.4021660181,-11.7810838386\H,0,-6.7942820511,-4.2557778979,-8.66
 25784997\H,0,-9.7151052927,-4.637484836,-9.3276263867\H,0,-8.959256357
 7,-3.1652153575,-9.8919865594\H,0,-7.4238784675,-6.8099953302,-11.1878
 19662\H,0,-8.0777328345,-6.6289833174,-9.5656682997\H,0,-7.4354507848,
 -5.6019208639,-6.8327609734\H,0,-9.0176996525,-5.3955103916,-7.1242606
 846\N,0,-6.961222368,-2.6850620681,-6.6382288674\C,0,-7.1293730944,-1.
 796097348,-5.4842300075\C,0,-6.1121909829,-0.663672928,-5.6531194576\O
 ,0,-4.9053612184,-0.8831976149,-5.4410224295\C,0,-6.9174412649,-2.5567
 84525,-4.1569750081\C,0,-7.6611061845,-3.8760239907,-4.1525157123\C,0,
 -9.0588106146,-3.9162465704,-4.253915952\C,0,-6.956143777,-5.086449697
 5,-4.1161652234\C,0,-9.7344268655,-5.135558898,-4.320199743\C,0,-7.629
 2919638,-6.310960495,-4.1747044839\C,0,-9.0211169493,-6.3378684157,-4.
 2822141589\H,0,-6.269864692,-3.4162947814,-6.5218442552\H,0,-8.1531813
 251,-1.4280160766,-5.5464136374\H,0,-5.8437381,-2.7191799594,-4.018430
 7596\H,0,-7.2475591068,-1.909557735,-3.3349307296\H,0,-9.6252506222,-2
 .9886416268,-4.2871645386\H,0,-5.8722116411,-5.0723130298,-4.021790247
 3\H,0,-10.8184890551,-5.1477217328,-4.3913332943\H,0,-7.0671111529,-7.
 2395302362,-4.1297411924\H,0,-9.5475628856,-7.286838215,-4.3251325757\
 N,0,-6.5141754736,0.5324981677,-6.1276188835\C,0,-7.8150388039,1.06929
 9805,-6.5128391349\C,0,-8.08308726,1.0496266097,-8.0373436321\O,0,-8.9
 195282934,1.8151089359,-8.5041357603\C,0,-7.9208183166,2.5326190073,-6
 .0385387199\C,0,-6.9093281649,3.4248640648,-6.7638525744\N,0,-7.256252
 8802,4.7156366789,-6.9149827596\O,0,-5.815936274,2.9873264016,-7.15650
 91815\H,0,-5.7733809897,1.2038278214,-6.3180572754\H,0,-8.6143937743,0
 .4862588578,-6.0496005737\H,0,-7.7218171488,2.5843167762,-4.9616411519
 \H,0,-8.9382676238,2.8847757319,-6.2182503697\H,0,-6.6116763107,5.3424
 735088,-7.3789054525\H,0,-8.181482611,5.055975288,-6.6966213708\N,0,-7
 .3501911433,0.1956413582,-8.7941081739\C,0,-7.7248993612,-0.0146751286
 ,-10.1901431965\C,0,-7.252348887,-1.3960114015,-10.6276856093\O,0,-6.3
 837601555,-2.0336049648,-10.0221079204\C,0,-7.2703342798,1.1335321497,
 -11.1267154577\C,0,-5.7751053372,1.3036903926,-11.4502373587\C,0,-4.81
 07046657,1.4685903605,-10.2634743306\N,0,-4.4632367837,0.1431039618,-9
 .7345012195\C,0,-4.11186342,-0.163213792,-8.4874423874\N,0,-3.70389538
 43,0.7654146409,-7.6089319878\N,0,-4.1077284621,-1.4639181211,-8.12276
 65628\O,0,-7.8910177833,-1.8284589576,-11.6833188077\H,0,-7.7345624956
 ,-2.8388260757,-11.8200505214\H,0,-6.8320854121,-0.5469025762,-8.34426
 50357\H,0,-8.8190698676,-0.0282542643,-10.245126025\H,0,-7.8038849099,
 1.0006867,-12.0742018103\H,0,-7.6579507696,2.050547259,-10.6727869347\
 H,0,-5.4196827839,0.4766909852,-12.0825743617\H,0,-5.6850197927,2.1997
 606941,-12.0739754542\H,0,-3.8946691983,1.9732230229,-10.5912868859\H,
 0,-5.2763349772,2.0668359179,-9.4720158326\H,0,-4.7658567271,-0.649254
 5605,-10.2880827489\H,0,-3.6894634677,0.4850326711,-6.6306380536\H,0,-
 3.8788600835,1.7456385515,-7.7924700272\H,0,-4.0937117464,-1.647030390
 3,-7.1221440921\H,0,-4.706753229,-2.0736232212,-8.6702502588\\Version=
 ES64L-G16RevC.01\HF=-1917.5337454\RMSD=9.564e-09\Dipole=1.0253173,1.20
 20724,0.8769718\Quadrupole=12.3867654,-69.5670471,57.1802817,26.286139
 7,158.0832003,17.0717206\PG=C01 [X(C23H36N9O7)]\\@
 The archive entry for this job was punched.


 "THE ACADEMIC HIERARCHY"


 THE PRESIDENT:
   LEAPS TALL BUILDINGS IN A SINGLE BOUND,
     IS MORE POWERFUL THAN A LOCOMOTIVE,
       IS FASTER THAN A SPEEDING BULLET,
         WALKS ON WATER,
           GIVES POLICY TO GOD.

 THE VICE PRESIDENT FOR ACADEMIC AFFAIRS:
   LEAPS SHORT BUILDINGS IN A SINGLE BOUND,
     IS MORE POWERFUL THAN A SWITCH ENGINE,
       IS JUST AS FAST AS A SPEEDING BULLET,
         WALKS ON WATER IF SEA IS CALM,
           TALKS WITH GOD.

 PROFESSOR:
   LEAPS SHORT BUILDINGS WITH A RUNNING START AND FAVORABLE WINDS,
     IS ALMOST AS POWERFUL AS A SWITCH ENGINE,
       CAN FIRE A SPEEDING BULLET,
         WALKS ON WATER IN AN INDOOR SWIMMING POOL,
          TALKS WITH GOD IF SPECIAL REQUEST IS APPROVED.

 ASSOCIATE PROFESSOR:
   BARELY CLEARS A QUONSET HUT,
     LOSES TUG OF WAR WITH LOCOMOTIVE,
       MISFIRES FREQUENTLY,
         SWIMS WELL,
           IS OCCASIONALLY ADDRESSED BY GOD.

 ASSISTANT PROFESSOR:
   MAKES HIGH MARKS ON WALLS WHEN TRYING TO LEAP TALL BUILDINGS,
     IS RUN OVER BY LOCOMOTIVES,
       CAN SOMETIMES HANDLE A GUN WITHOUT INFLICTING SELF INJURY,
         DOG PADDLES,
           TALKS TO ANIMALS.

 GRADUATE STUDENT:
   RUNS INTO BUILDINGS,
     RECOGNIZES LOCOMOTIVES TWO OUT OF THREE TIMES,
       IS NOT ISSUED AMMUNITION,
         CAN STAY AFLOAT WITH A LIFE JACKET,
           TALKS TO WALLS.

 UNDERGRADUATE AND WORK STUDY STUDENT:
   FALLS OVER DOORSTEP WHEN TRYING TO ENTER BUILDINGS,
     SAYS, "LOOK AT THE CHOO-CHOO,"
       WETS HIMSELF WITH A WATER PISTOL,
        PLAYS IN MUD PUDDLES,
          MUMBLES TO HIMSELF.

 DEPARTMENT SECRETARY:
   LIFTS TALL BUILDINGS AND WALKS UNDER THEM,
     KICKS LOCOMOTIVES OFF THE TRACKS,
       CATCHES SPEEDING BULLETS IN HER TEETH AND EATS THEM,
         FREEZES WATER WITH A SINGLE GLANCE,
           IS GOD.
 Job cpu time:       0 days  0 hours  5 minutes 15.0 seconds.
 Elapsed time:       0 days  0 hours  1 minutes 19.8 seconds.
 File lengths (MBytes):  RWF=    344 Int=      0 D2E=      0 Chk=     48 Scr=     16
 Normal termination of Gaussian 16 at Fri Jun  3 06:27:01 2022.
