 Entering Gaussian System, Link 0=/opt/software/Gaussian/g16-AVX2-C.01/g16/g16
 Input=charge-conf-962.com
 Output=charge-conf-962.log
 Initial command:
 /opt/software/Gaussian/g16-AVX2-C.01/g16/l1.exe "/mnt/gs18/scratch/users/kengmith/Gau-58372.inp" -scrdir="/mnt/gs18/scratch/users/kengmith/"
 Entering Link 1 = /opt/software/Gaussian/g16-AVX2-C.01/g16/l1.exe PID=     58382.
  
 Copyright (c) 1988-2019, Gaussian, Inc.  All Rights Reserved.
  
 This is part of the Gaussian(R) 16 program.  It is based on
 the Gaussian(R) 09 system (copyright 2009, Gaussian, Inc.),
 the Gaussian(R) 03 system (copyright 2003, Gaussian, Inc.),
 the Gaussian(R) 98 system (copyright 1998, Gaussian, Inc.),
 the Gaussian(R) 94 system (copyright 1995, Gaussian, Inc.),
 the Gaussian 92(TM) system (copyright 1992, Gaussian, Inc.),
 the Gaussian 90(TM) system (copyright 1990, Gaussian, Inc.),
 the Gaussian 88(TM) system (copyright 1988, Gaussian, Inc.),
 the Gaussian 86(TM) system (copyright 1986, Carnegie Mellon
 University), and the Gaussian 82(TM) system (copyright 1983,
 Carnegie Mellon University). Gaussian is a federally registered
 trademark of Gaussian, Inc.
  
 This software contains proprietary and confidential information,
 including trade secrets, belonging to Gaussian, Inc.
  
 This software is provided under written license and may be
 used, copied, transmitted, or stored only in accord with that
 written license.
  
 The following legend is applicable only to US Government
 contracts under FAR:
  
                    RESTRICTED RIGHTS LEGEND
  
 Use, reproduction and disclosure by the US Government is
 subject to restrictions as set forth in subparagraphs (a)
 and (c) of the Commercial Computer Software - Restricted
 Rights clause in FAR 52.227-19.
  
 Gaussian, Inc.
 340 Quinnipiac St., Bldg. 40, Wallingford CT 06492
  
  
 ---------------------------------------------------------------
 Warning -- This program may not be used in any manner that
 competes with the business of Gaussian, Inc. or will provide
 assistance to any competitor of Gaussian, Inc.  The licensee
 of this program is prohibited from giving any competitor of
 Gaussian, Inc. access to this program.  By using this program,
 the user acknowledges that Gaussian, Inc. is engaged in the
 business of creating and licensing software in the field of
 computational chemistry and represents and warrants to the
 licensee that it is not a competitor of Gaussian, Inc. and that
 it will not use this program in any manner prohibited above.
 ---------------------------------------------------------------
  

 Cite this work as:
 Gaussian 16, Revision C.01,
 M. J. Frisch, G. W. Trucks, H. B. Schlegel, G. E. Scuseria, 
 M. A. Robb, J. R. Cheeseman, G. Scalmani, V. Barone, 
 G. A. Petersson, H. Nakatsuji, X. Li, M. Caricato, A. V. Marenich, 
 J. Bloino, B. G. Janesko, R. Gomperts, B. Mennucci, H. P. Hratchian, 
 J. V. Ortiz, A. F. Izmaylov, J. L. Sonnenberg, D. Williams-Young, 
 F. Ding, F. Lipparini, F. Egidi, J. Goings, B. Peng, A. Petrone, 
 T. Henderson, D. Ranasinghe, V. G. Zakrzewski, J. Gao, N. Rega, 
 G. Zheng, W. Liang, M. Hada, M. Ehara, K. Toyota, R. Fukuda, 
 J. Hasegawa, M. Ishida, T. Nakajima, Y. Honda, O. Kitao, H. Nakai, 
 T. Vreven, K. Throssell, J. A. Montgomery, Jr., J. E. Peralta, 
 F. Ogliaro, M. J. Bearpark, J. J. Heyd, E. N. Brothers, K. N. Kudin, 
 V. N. Staroverov, T. A. Keith, R. Kobayashi, J. Normand, 
 K. Raghavachari, A. P. Rendell, J. C. Burant, S. S. Iyengar, 
 J. Tomasi, M. Cossi, J. M. Millam, M. Klene, C. Adamo, R. Cammi, 
 J. W. Ochterski, R. L. Martin, K. Morokuma, O. Farkas, 
 J. B. Foresman, and D. J. Fox, Gaussian, Inc., Wallingford CT, 2019.
 
 ******************************************
 Gaussian 16:  ES64L-G16RevC.01  3-Jul-2019
                 3-Jun-2022 
 ******************************************
 %mem=8gb
 %nproc=4
 Will use up to    4 processors via shared memory.
 %chk=conf-962.chk
 ----------------------------------------------------------------------
 # B3LYP/6-31G* empiricaldispersion=gd3 guess=read geom=check nosymm in
 tegral(ultrafinegrid)
 ----------------------------------------------------------------------
 1/29=2,38=1,172=1/1;
 2/12=2,15=1,40=1/2;
 3/5=1,6=6,7=1,11=2,14=-4,25=1,30=1,74=-5,75=-5,116=-2,124=31/1,2,3;
 4/5=1/1;
 5/5=2,38=6/2;
 6/7=2,8=2,9=2,10=2,28=1/1;
 99/5=1,9=1/99;
 ------------------------------------------------------
 Candidate Structure: Conf:962 Charge calc in gas phase
 ------------------------------------------------------
 Structure from the checkpoint file:  "conf-962.chk"
 Charge =  1 Multiplicity = 1
 Redundant internal coordinates found in file.  (old form).
 N,0,-7.7490722548,0.9680851534,-8.6161629398
 C,0,-6.4095259331,1.2604545279,-8.0770997077
 C,0,-5.5928735865,-0.0198192863,-7.8902458015
 O,0,-4.4273393142,-0.1204086636,-8.2545038293
 C,0,-6.5249356193,1.9447905968,-6.7042932247
 C,0,-7.1184175434,3.3479017182,-6.7858825658
 N,0,-6.7168868256,4.1878170871,-5.7977857404
 O,0,-7.9206616986,3.6810460159,-7.6562695664
 H,0,-5.8087305626,1.896284273,-8.7403612056
 H,0,-7.1783304221,1.3495671583,-6.0554912964
 H,0,-5.5439578309,1.9673124231,-6.2217155906
 H,0,-7.1083811102,5.1191097583,-5.7617227154
 H,0,-6.0584699557,3.9020709584,-5.0872619754
 H,0,-8.2527826838,1.8579426408,-8.5823987219
 H,0,-7.6345004178,0.723227652,-9.6000631882
 N,0,-6.2437279981,-1.0458607451,-7.2423187058
 C,0,-5.4758175008,-2.0959398886,-6.5914008265
 C,0,-5.9139474013,-3.4971674067,-7.0311121019
 O,0,-6.073100484,-4.4137996869,-6.2059062448
 C,0,-5.5095885952,-1.9694758777,-5.0528206906
 C,0,-5.1351686077,-0.5878996247,-4.554745945
 C,0,-3.9083136168,0.0022972493,-4.8937289428
 C,0,-6.0148337637,0.1270681381,-3.7331786822
 C,0,-3.5728142512,1.2713493068,-4.4216756007
 C,0,-5.6820434709,1.3960497631,-3.2520728825
 C,0,-4.4577321632,1.9727964883,-3.5956470854
 H,0,-7.1958794561,-0.8753094779,-6.9365784407
 H,0,-4.4487531951,-1.9592444608,-6.951494542
 H,0,-6.5173615457,-2.2221802396,-4.701434508
 H,0,-4.8448539186,-2.7330044415,-4.6344621633
 H,0,-3.2116322543,-0.5237658317,-5.5402335197
 H,0,-6.9703109229,-0.3148690606,-3.4589530376
 H,0,-2.6171652848,1.7101201206,-4.6937456287
 H,0,-6.3754479793,1.9261266788,-2.6048523001
 H,0,-4.1835029916,2.951102896,-3.2088551997
 N,0,-6.1509816003,-3.7368839543,-8.344785042
 C,0,-6.0247729843,-2.896569051,-9.5304463918
 C,0,-7.272825987,-2.0526335002,-9.8578741967
 O,0,-7.232150645,-1.2378955982,-10.7727270242
 C,0,-5.7432048956,-3.7967323241,-10.7569537429
 C,0,-6.8880887201,-4.7748877723,-11.0334179392
 N,0,-7.2605377364,-4.9075618959,-12.3210308419
 O,0,-7.4407140291,-5.4121727922,-10.1230079934
 H,0,-6.4774970792,-4.6747202332,-8.5605669807
 H,0,-5.1963056335,-2.1924317948,-9.4184101688
 H,0,-4.8346916475,-4.3825085383,-10.5741220955
 H,0,-5.5606616676,-3.1444718792,-11.6140254491
 H,0,-7.9580751942,-5.6007744962,-12.5596208078
 H,0,-6.8137003736,-4.3992402416,-13.0705132408
 N,0,-8.3983107706,-2.3471156707,-9.1496739167
 C,0,-9.5806510617,-1.5185923572,-9.2404093539
 C,0,-9.9417622382,-1.0042660737,-7.8435082331
 O,0,-9.5190771101,-1.5073612455,-6.8161514948
 C,0,-10.7522099184,-2.2241849249,-9.9758175759
 C,0,-11.5160828978,-3.3722454121,-9.2902036961
 C,0,-10.6920350604,-4.5570007345,-8.7522400751
 N,0,-10.2406877462,-4.2547248908,-7.388559804
 C,0,-9.1562914216,-4.7104134138,-6.7546816349
 N,0,-8.4155397652,-5.7137123115,-7.2413044608
 N,0,-8.8321545203,-4.1632899662,-5.5644272423
 O,0,-10.8511839489,-0.0282588926,-7.7762372806
 H,0,-11.0166044605,0.3662980371,-8.6499031127
 H,0,-8.2699905627,-2.8623535544,-8.2920996477
 H,0,-9.3058970376,-0.6600246623,-9.8573639923
 H,0,-11.4921020907,-1.4633470995,-10.2561377138
 H,0,-10.3194122965,-2.5860986235,-10.9151955702
 H,0,-12.1434521946,-2.9780991399,-8.477367773
 H,0,-12.222181064,-3.7678136092,-10.0281485238
 H,0,-11.3076260793,-5.46369733,-8.7358134224
 H,0,-9.8202058182,-4.7418537658,-9.389686849
 H,0,-10.7617474882,-3.5435115963,-6.8934094644
 H,0,-7.4664743174,-5.7816196766,-6.8718989274
 H,0,-8.5454847361,-6.0300404572,-8.1947625231
 H,0,-7.8859597565,-4.3384585808,-5.2330497745
 H,0,-9.1733489648,-3.2238683189,-5.3924012653
 Recover connectivity data from disk.
                           ----------------------------
                           !    Current Parameters    !
                           ! (Angstroms and Degrees)  !
 --------------------------                            --------------------------
 ! Name  Definition              Value                                          !
 --------------------------------------------------------------------------------
 ! R1    R(1,2)                  1.4732                                         !
 ! R2    R(1,14)                 1.0231                                         !
 ! R3    R(1,15)                 1.0204                                         !
 ! R4    R(2,3)                  1.53                                           !
 ! R5    R(2,5)                  1.5383                                         !
 ! R6    R(2,9)                  1.0978                                         !
 ! R7    R(3,4)                  1.2253                                         !
 ! R8    R(3,16)                 1.377                                          !
 ! R9    R(5,6)                  1.5256                                         !
 ! R10   R(5,10)                 1.0964                                         !
 ! R11   R(5,11)                 1.0935                                         !
 ! R12   R(6,7)                  1.3576                                         !
 ! R13   R(6,8)                  1.2297                                         !
 ! R14   R(7,12)                 1.0109                                         !
 ! R15   R(7,13)                 1.01                                           !
 ! R16   R(16,17)                1.4547                                         !
 ! R17   R(16,27)                1.0145                                         !
 ! R18   R(17,18)                1.5326                                         !
 ! R19   R(17,20)                1.5441                                         !
 ! R20   R(17,28)                1.0969                                         !
 ! R21   R(18,19)                1.2436                                         !
 ! R22   R(18,36)                1.3562                                         !
 ! R23   R(20,21)                1.5156                                         !
 ! R24   R(20,29)                1.0968                                         !
 ! R25   R(20,30)                1.0954                                         !
 ! R26   R(21,22)                1.403                                          !
 ! R27   R(21,23)                1.4                                            !
 ! R28   R(22,24)                1.395                                          !
 ! R29   R(22,31)                1.0863                                         !
 ! R30   R(23,25)                1.3973                                         !
 ! R31   R(23,32)                1.0879                                         !
 ! R32   R(24,26)                1.3991                                         !
 ! R33   R(24,33)                1.0862                                         !
 ! R34   R(25,26)                1.3963                                         !
 ! R35   R(25,34)                1.0866                                         !
 ! R36   R(26,35)                1.0871                                         !
 ! R37   R(36,37)                1.4587                                         !
 ! R38   R(36,44)                1.0162                                         !
 ! R39   R(37,38)                1.5418                                         !
 ! R40   R(37,40)                1.5472                                         !
 ! R41   R(37,45)                1.093                                          !
 ! R42   R(38,39)                1.2257                                         !
 ! R43   R(38,50)                1.362                                          !
 ! R44   R(40,41)                1.531                                          !
 ! R45   R(40,46)                1.0963                                         !
 ! R46   R(40,47)                1.0924                                         !
 ! R47   R(41,42)                1.3469                                         !
 ! R48   R(41,43)                1.2411                                         !
 ! R49   R(42,48)                1.0119                                         !
 ! R50   R(42,49)                1.0098                                         !
 ! R51   R(50,51)                1.4466                                         !
 ! R52   R(50,63)                1.0086                                         !
 ! R53   R(51,52)                1.5318                                         !
 ! R54   R(51,54)                1.5528                                         !
 ! R55   R(51,64)                1.0924                                         !
 ! R56   R(52,53)                1.2195                                         !
 ! R57   R(52,61)                1.3357                                         !
 ! R58   R(54,55)                1.54                                           !
 ! R59   R(54,65)                1.0977                                         !
 ! R60   R(54,66)                1.0958                                         !
 ! R61   R(55,56)                1.5402                                         !
 ! R62   R(55,67)                1.0998                                         !
 ! R63   R(55,68)                1.0953                                         !
 ! R64   R(56,57)                1.4679                                         !
 ! R65   R(56,69)                1.096                                          !
 ! R66   R(56,70)                1.0957                                         !
 ! R67   R(57,58)                1.3362                                         !
 ! R68   R(57,71)                1.0112                                         !
 ! R69   R(58,59)                1.3387                                         !
 ! R70   R(58,60)                1.3495                                         !
 ! R71   R(59,72)                1.0207                                         !
 ! R72   R(59,73)                1.0129                                         !
 ! R73   R(60,74)                1.0177                                         !
 ! R74   R(60,75)                1.0142                                         !
 ! R75   R(61,62)                0.9728                                         !
 ! A1    A(2,1,14)             105.2468                                         !
 ! A2    A(2,1,15)             107.3587                                         !
 ! A3    A(14,1,15)            107.2071                                         !
 ! A4    A(1,2,3)              111.3425                                         !
 ! A5    A(1,2,5)              110.2805                                         !
 ! A6    A(1,2,9)              113.0467                                         !
 ! A7    A(3,2,5)              107.657                                          !
 ! A8    A(3,2,9)              105.4457                                         !
 ! A9    A(5,2,9)              108.8194                                         !
 ! A10   A(2,3,4)              122.6921                                         !
 ! A11   A(2,3,16)             115.3836                                         !
 ! A12   A(4,3,16)             121.8924                                         !
 ! A13   A(2,5,6)              112.9922                                         !
 ! A14   A(2,5,10)             109.3472                                         !
 ! A15   A(2,5,11)             109.6157                                         !
 ! A16   A(6,5,10)             107.4035                                         !
 ! A17   A(6,5,11)             110.7101                                         !
 ! A18   A(10,5,11)            106.5379                                         !
 ! A19   A(5,6,7)              114.5203                                         !
 ! A20   A(5,6,8)              122.7375                                         !
 ! A21   A(7,6,8)              122.7186                                         !
 ! A22   A(6,7,12)             118.7767                                         !
 ! A23   A(6,7,13)             121.9936                                         !
 ! A24   A(12,7,13)            119.2116                                         !
 ! A25   A(3,16,17)            119.9282                                         !
 ! A26   A(3,16,27)            117.3973                                         !
 ! A27   A(17,16,27)           118.814                                          !
 ! A28   A(16,17,18)           112.3777                                         !
 ! A29   A(16,17,20)           112.0362                                         !
 ! A30   A(16,17,28)           104.9175                                         !
 ! A31   A(18,17,20)           110.7633                                         !
 ! A32   A(18,17,28)           106.7041                                         !
 ! A33   A(20,17,28)           109.7167                                         !
 ! A34   A(17,18,19)           121.3405                                         !
 ! A35   A(17,18,36)           119.3062                                         !
 ! A36   A(19,18,36)           119.3468                                         !
 ! A37   A(17,20,21)           113.3724                                         !
 ! A38   A(17,20,29)           108.6902                                         !
 ! A39   A(17,20,30)           108.0709                                         !
 ! A40   A(21,20,29)           109.3744                                         !
 ! A41   A(21,20,30)           111.0984                                         !
 ! A42   A(29,20,30)           105.9403                                         !
 ! A43   A(20,21,22)           121.3387                                         !
 ! A44   A(20,21,23)           120.2096                                         !
 ! A45   A(22,21,23)           118.4509                                         !
 ! A46   A(21,22,24)           120.7473                                         !
 ! A47   A(21,22,31)           120.0587                                         !
 ! A48   A(24,22,31)           119.1901                                         !
 ! A49   A(21,23,25)           121.0772                                         !
 ! A50   A(21,23,32)           119.4942                                         !
 ! A51   A(25,23,32)           119.4272                                         !
 ! A52   A(22,24,26)           120.2508                                         !
 ! A53   A(22,24,33)           119.6261                                         !
 ! A54   A(26,24,33)           120.122                                          !
 ! A55   A(23,25,26)           119.9488                                         !
 ! A56   A(23,25,34)           119.744                                          !
 ! A57   A(26,25,34)           120.3054                                         !
 ! A58   A(24,26,25)           119.5236                                         !
 ! A59   A(24,26,35)           120.1112                                         !
 ! A60   A(25,26,35)           120.3536                                         !
 ! A61   A(18,36,37)           132.0948                                         !
 ! A62   A(18,36,44)           115.1472                                         !
 ! A63   A(37,36,44)           112.7579                                         !
 ! A64   A(36,37,38)           114.7024                                         !
 ! A65   A(36,37,40)           108.9609                                         !
 ! A66   A(36,37,45)           110.6935                                         !
 ! A67   A(38,37,40)           107.303                                          !
 ! A68   A(38,37,45)           106.4214                                         !
 ! A69   A(40,37,45)           108.5489                                         !
 ! A70   A(37,38,39)           119.7019                                         !
 ! A71   A(37,38,50)           116.1135                                         !
 ! A72   A(39,38,50)           124.0033                                         !
 ! A73   A(37,40,41)           112.2572                                         !
 ! A74   A(37,40,46)           109.2361                                         !
 ! A75   A(37,40,47)           107.7566                                         !
 ! A76   A(41,40,46)           107.9649                                         !
 ! A77   A(41,40,47)           111.3929                                         !
 ! A78   A(46,40,47)           108.1431                                         !
 ! A79   A(40,41,42)           116.2526                                         !
 ! A80   A(40,41,43)           121.9086                                         !
 ! A81   A(42,41,43)           121.8386                                         !
 ! A82   A(41,42,48)           118.912                                          !
 ! A83   A(41,42,49)           122.5171                                         !
 ! A84   A(48,42,49)           118.3491                                         !
 ! A85   A(38,50,51)           121.2624                                         !
 ! A86   A(38,50,63)           116.578                                          !
 ! A87   A(51,50,63)           116.7359                                         !
 ! A88   A(50,51,52)           109.1352                                         !
 ! A89   A(50,51,54)           112.7126                                         !
 ! A90   A(50,51,64)           106.2607                                         !
 ! A91   A(52,51,54)           113.9921                                         !
 ! A92   A(52,51,64)           108.0864                                         !
 ! A93   A(54,51,64)           106.226                                          !
 ! A94   A(51,52,53)           123.2321                                         !
 ! A95   A(51,52,61)           116.8585                                         !
 ! A96   A(53,52,61)           119.6691                                         !
 ! A97   A(51,54,55)           120.1414                                         !
 ! A98   A(51,54,65)           108.3332                                         !
 ! A99   A(51,54,66)           104.9565                                         !
 ! A100  A(55,54,65)           107.2221                                         !
 ! A101  A(55,54,66)           109.3508                                         !
 ! A102  A(65,54,66)           106.0355                                         !
 ! A103  A(54,55,56)           117.6182                                         !
 ! A104  A(54,55,67)           110.17                                           !
 ! A105  A(54,55,68)           106.8016                                         !
 ! A106  A(56,55,67)           108.8278                                         !
 ! A107  A(56,55,68)           107.6046                                         !
 ! A108  A(67,55,68)           105.0481                                         !
 ! A109  A(55,56,57)           109.3052                                         !
 ! A110  A(55,56,69)           109.9427                                         !
 ! A111  A(55,56,70)           110.6272                                         !
 ! A112  A(57,56,69)           109.2155                                         !
 ! A113  A(57,56,70)           109.3021                                         !
 ! A114  A(69,56,70)           108.4239                                         !
 ! A115  A(56,57,58)           128.3183                                         !
 ! A116  A(56,57,71)           116.1869                                         !
 ! A117  A(58,57,71)           115.1991                                         !
 ! A118  A(57,58,59)           122.1554                                         !
 ! A119  A(57,58,60)           118.3649                                         !
 ! A120  A(59,58,60)           119.443                                          !
 ! A121  A(58,59,72)           115.6462                                         !
 ! A122  A(58,59,73)           120.3461                                         !
 ! A123  A(72,59,73)           116.0514                                         !
 ! A124  A(58,60,74)           116.1493                                         !
 ! A125  A(58,60,75)           116.382                                          !
 ! A126  A(74,60,75)           114.6444                                         !
 ! A127  A(52,61,62)           111.525                                          !
 ! D1    D(14,1,2,3)           172.455                                          !
 ! D2    D(14,1,2,5)            53.0119                                         !
 ! D3    D(14,1,2,9)           -69.0573                                         !
 ! D4    D(15,1,2,3)           -73.5627                                         !
 ! D5    D(15,1,2,5)           166.9941                                         !
 ! D6    D(15,1,2,9)            44.9249                                         !
 ! D7    D(1,2,3,4)            133.8738                                         !
 ! D8    D(1,2,3,16)           -48.1461                                         !
 ! D9    D(5,2,3,4)           -105.1346                                         !
 ! D10   D(5,2,3,16)            72.8455                                         !
 ! D11   D(9,2,3,4)             10.9163                                         !
 ! D12   D(9,2,3,16)          -171.1036                                         !
 ! D13   D(1,2,5,6)            -67.8083                                         !
 ! D14   D(1,2,5,10)            51.7521                                         !
 ! D15   D(1,2,5,11)           168.2017                                         !
 ! D16   D(3,2,5,6)            170.5367                                         !
 ! D17   D(3,2,5,10)           -69.9028                                         !
 ! D18   D(3,2,5,11)            46.5468                                         !
 ! D19   D(9,2,5,6)             56.7233                                         !
 ! D20   D(9,2,5,10)           176.2838                                         !
 ! D21   D(9,2,5,11)           -67.2666                                         !
 ! D22   D(2,3,16,17)         -158.1204                                         !
 ! D23   D(2,3,16,27)           -0.4896                                         !
 ! D24   D(4,3,16,17)           19.8774                                         !
 ! D25   D(4,3,16,27)          177.5083                                         !
 ! D26   D(2,5,6,7)           -152.1452                                         !
 ! D27   D(2,5,6,8)             29.5756                                         !
 ! D28   D(10,5,6,7)            87.1811                                         !
 ! D29   D(10,5,6,8)           -91.098                                          !
 ! D30   D(11,5,6,7)           -28.7581                                         !
 ! D31   D(11,5,6,8)           152.9628                                         !
 ! D32   D(5,6,7,12)          -176.8318                                         !
 ! D33   D(5,6,7,13)             1.6071                                         !
 ! D34   D(8,6,7,12)             1.4477                                         !
 ! D35   D(8,6,7,13)           179.8867                                         !
 ! D36   D(3,16,17,18)        -127.8244                                         !
 ! D37   D(3,16,17,20)         106.7082                                         !
 ! D38   D(3,16,17,28)         -12.2704                                         !
 ! D39   D(27,16,17,18)         74.8586                                         !
 ! D40   D(27,16,17,20)        -50.6088                                         !
 ! D41   D(27,16,17,28)       -169.5874                                         !
 ! D42   D(16,17,18,19)       -135.5131                                         !
 ! D43   D(16,17,18,36)         43.5475                                         !
 ! D44   D(20,17,18,19)         -9.3544                                         !
 ! D45   D(20,17,18,36)        169.7063                                         !
 ! D46   D(28,17,18,19)        110.0173                                         !
 ! D47   D(28,17,18,36)        -70.922                                          !
 ! D48   D(16,17,20,21)        -51.5239                                         !
 ! D49   D(16,17,20,29)         70.327                                          !
 ! D50   D(16,17,20,30)       -175.1317                                         !
 ! D51   D(18,17,20,21)       -177.8727                                         !
 ! D52   D(18,17,20,29)        -56.0218                                         !
 ! D53   D(18,17,20,30)         58.5195                                         !
 ! D54   D(28,17,20,21)         64.5845                                         !
 ! D55   D(28,17,20,29)       -173.5646                                         !
 ! D56   D(28,17,20,30)        -59.0233                                         !
 ! D57   D(17,18,36,37)          2.6944                                         !
 ! D58   D(17,18,36,44)       -177.4019                                         !
 ! D59   D(19,18,36,37)       -178.226                                          !
 ! D60   D(19,18,36,44)          1.6776                                         !
 ! D61   D(17,20,21,22)        -56.5869                                         !
 ! D62   D(17,20,21,23)        123.7469                                         !
 ! D63   D(29,20,21,22)       -178.055                                          !
 ! D64   D(29,20,21,23)          2.2788                                         !
 ! D65   D(30,20,21,22)         65.3475                                         !
 ! D66   D(30,20,21,23)       -114.3188                                         !
 ! D67   D(20,21,22,24)       -179.6048                                         !
 ! D68   D(20,21,22,31)          1.1292                                         !
 ! D69   D(23,21,22,24)          0.0671                                         !
 ! D70   D(23,21,22,31)       -179.1988                                         !
 ! D71   D(20,21,23,25)        179.3114                                         !
 ! D72   D(20,21,23,32)         -0.2644                                         !
 ! D73   D(22,21,23,25)         -0.3644                                         !
 ! D74   D(22,21,23,32)       -179.9401                                         !
 ! D75   D(21,22,24,26)          0.2616                                         !
 ! D76   D(21,22,24,33)        179.8694                                         !
 ! D77   D(31,22,24,26)        179.5339                                         !
 ! D78   D(31,22,24,33)         -0.8584                                         !
 ! D79   D(21,23,25,26)          0.3327                                         !
 ! D80   D(21,23,25,34)       -179.173                                          !
 ! D81   D(32,23,25,26)        179.9087                                         !
 ! D82   D(32,23,25,34)          0.403                                          !
 ! D83   D(22,24,26,25)         -0.2956                                         !
 ! D84   D(22,24,26,35)        178.4722                                         !
 ! D85   D(33,24,26,25)       -179.9014                                         !
 ! D86   D(33,24,26,35)         -1.1336                                         !
 ! D87   D(23,25,26,24)          0.0019                                         !
 ! D88   D(23,25,26,35)       -178.7628                                         !
 ! D89   D(34,25,26,24)        179.5048                                         !
 ! D90   D(34,25,26,35)          0.74                                           !
 ! D91   D(18,36,37,38)        -87.4737                                         !
 ! D92   D(18,36,37,40)        152.2476                                         !
 ! D93   D(18,36,37,45)         32.9504                                         !
 ! D94   D(44,36,37,38)         92.6209                                         !
 ! D95   D(44,36,37,40)        -27.6579                                         !
 ! D96   D(44,36,37,45)       -146.9551                                         !
 ! D97   D(36,37,38,39)        174.4101                                         !
 ! D98   D(36,37,38,50)        -10.2885                                         !
 ! D99   D(40,37,38,39)        -64.3981                                         !
 ! D100  D(40,37,38,50)        110.9034                                         !
 ! D101  D(45,37,38,39)         51.6531                                         !
 ! D102  D(45,37,38,50)       -133.0454                                         !
 ! D103  D(36,37,40,41)         62.139                                          !
 ! D104  D(36,37,40,46)        -57.5822                                         !
 ! D105  D(36,37,40,47)       -174.8433                                         !
 ! D106  D(38,37,40,41)        -62.6012                                         !
 ! D107  D(38,37,40,46)        177.6776                                         !
 ! D108  D(38,37,40,47)         60.4166                                         !
 ! D109  D(45,37,40,41)       -177.2373                                         !
 ! D110  D(45,37,40,46)         63.0415                                         !
 ! D111  D(45,37,40,47)        -54.2196                                         !
 ! D112  D(37,38,50,51)        171.9761                                         !
 ! D113  D(37,38,50,63)         18.8234                                         !
 ! D114  D(39,38,50,51)        -12.9475                                         !
 ! D115  D(39,38,50,63)       -166.1002                                         !
 ! D116  D(37,40,41,42)        136.0168                                         !
 ! D117  D(37,40,41,43)        -44.1216                                         !
 ! D118  D(46,40,41,42)       -103.5237                                         !
 ! D119  D(46,40,41,43)         76.338                                          !
 ! D120  D(47,40,41,42)         15.0702                                         !
 ! D121  D(47,40,41,43)       -165.0681                                         !
 ! D122  D(40,41,42,48)        174.8079                                         !
 ! D123  D(40,41,42,49)          0.3124                                         !
 ! D124  D(43,41,42,48)         -5.0539                                         !
 ! D125  D(43,41,42,49)       -179.5493                                         !
 ! D126  D(38,50,51,52)       -121.8625                                         !
 ! D127  D(38,50,51,54)        110.4176                                         !
 ! D128  D(38,50,51,64)         -5.5349                                         !
 ! D129  D(63,50,51,52)         31.25                                           !
 ! D130  D(63,50,51,54)        -96.4698                                         !
 ! D131  D(63,50,51,64)        147.5776                                         !
 ! D132  D(50,51,52,53)        -17.8863                                         !
 ! D133  D(50,51,52,61)        167.7753                                         !
 ! D134  D(54,51,52,53)        109.1099                                         !
 ! D135  D(54,51,52,61)        -65.2285                                         !
 ! D136  D(64,51,52,53)       -133.0437                                         !
 ! D137  D(64,51,52,61)         52.6179                                         !
 ! D138  D(50,51,54,55)         72.2373                                         !
 ! D139  D(50,51,54,65)       -164.1842                                         !
 ! D140  D(50,51,54,66)        -51.2467                                         !
 ! D141  D(52,51,54,55)        -52.8798                                         !
 ! D142  D(52,51,54,65)         70.6988                                         !
 ! D143  D(52,51,54,66)       -176.3638                                         !
 ! D144  D(64,51,54,55)       -171.7894                                         !
 ! D145  D(64,51,54,65)        -48.2109                                         !
 ! D146  D(64,51,54,66)         64.7265                                         !
 ! D147  D(51,52,61,62)        -13.0354                                         !
 ! D148  D(53,52,61,62)        172.4141                                         !
 ! D149  D(51,54,55,56)        -53.8202                                         !
 ! D150  D(51,54,55,67)         71.6449                                         !
 ! D151  D(51,54,55,68)       -174.7867                                         !
 ! D152  D(65,54,55,56)       -177.93                                           !
 ! D153  D(65,54,55,67)        -52.4649                                         !
 ! D154  D(65,54,55,68)         61.1034                                         !
 ! D155  D(66,54,55,56)         67.5271                                         !
 ! D156  D(66,54,55,67)       -167.0078                                         !
 ! D157  D(66,54,55,68)        -53.4395                                         !
 ! D158  D(54,55,56,57)         86.8676                                         !
 ! D159  D(54,55,56,69)       -153.2595                                         !
 ! D160  D(54,55,56,70)        -33.5362                                         !
 ! D161  D(67,55,56,57)        -39.2566                                         !
 ! D162  D(67,55,56,69)         80.6162                                         !
 ! D163  D(67,55,56,70)       -159.6604                                         !
 ! D164  D(68,55,56,57)       -152.5836                                         !
 ! D165  D(68,55,56,69)        -32.7107                                         !
 ! D166  D(68,55,56,70)         87.0126                                         !
 ! D167  D(55,56,57,58)       -152.5809                                         !
 ! D168  D(55,56,57,71)         20.82                                           !
 ! D169  D(69,56,57,58)         87.0999                                         !
 ! D170  D(69,56,57,71)        -99.4991                                         !
 ! D171  D(70,56,57,58)        -31.3698                                         !
 ! D172  D(70,56,57,71)        142.0311                                         !
 ! D173  D(56,57,58,59)        -11.0664                                         !
 ! D174  D(56,57,58,60)        171.1505                                         !
 ! D175  D(71,57,58,59)        175.4779                                         !
 ! D176  D(71,57,58,60)         -2.3052                                         !
 ! D177  D(57,58,59,72)        160.3267                                         !
 ! D178  D(57,58,59,73)         12.5916                                         !
 ! D179  D(60,58,59,72)        -21.9134                                         !
 ! D180  D(60,58,59,73)       -169.6485                                         !
 ! D181  D(57,58,60,74)       -163.7467                                         !
 ! D182  D(57,58,60,75)        -24.1007                                         !
 ! D183  D(59,58,60,74)         18.4085                                         !
 ! D184  D(59,58,60,75)        158.0545                                         !
 --------------------------------------------------------------------------------
 Symmetry turned off by external request.
 Stoichiometry    C23H36N9O7(1+)
 Framework group  C1[X(C23H36N9O7)]
 Deg. of freedom   219
 Full point group                 C1      NOp   1
                          Input orientation:                          
 ---------------------------------------------------------------------
 Center     Atomic      Atomic             Coordinates (Angstroms)
 Number     Number       Type             X           Y           Z
 ---------------------------------------------------------------------
      1          7           0       -7.749072    0.968085   -8.616163
      2          6           0       -6.409526    1.260455   -8.077100
      3          6           0       -5.592874   -0.019819   -7.890246
      4          8           0       -4.427339   -0.120409   -8.254504
      5          6           0       -6.524936    1.944791   -6.704293
      6          6           0       -7.118418    3.347902   -6.785883
      7          7           0       -6.716887    4.187817   -5.797786
      8          8           0       -7.920662    3.681046   -7.656270
      9          1           0       -5.808731    1.896284   -8.740361
     10          1           0       -7.178330    1.349567   -6.055491
     11          1           0       -5.543958    1.967312   -6.221716
     12          1           0       -7.108381    5.119110   -5.761723
     13          1           0       -6.058470    3.902071   -5.087262
     14          1           0       -8.252783    1.857943   -8.582399
     15          1           0       -7.634500    0.723228   -9.600063
     16          7           0       -6.243728   -1.045861   -7.242319
     17          6           0       -5.475818   -2.095940   -6.591401
     18          6           0       -5.913947   -3.497167   -7.031112
     19          8           0       -6.073100   -4.413800   -6.205906
     20          6           0       -5.509589   -1.969476   -5.052821
     21          6           0       -5.135169   -0.587900   -4.554746
     22          6           0       -3.908314    0.002297   -4.893729
     23          6           0       -6.014834    0.127068   -3.733179
     24          6           0       -3.572814    1.271349   -4.421676
     25          6           0       -5.682043    1.396050   -3.252073
     26          6           0       -4.457732    1.972796   -3.595647
     27          1           0       -7.195879   -0.875309   -6.936578
     28          1           0       -4.448753   -1.959244   -6.951495
     29          1           0       -6.517362   -2.222180   -4.701435
     30          1           0       -4.844854   -2.733004   -4.634462
     31          1           0       -3.211632   -0.523766   -5.540234
     32          1           0       -6.970311   -0.314869   -3.458953
     33          1           0       -2.617165    1.710120   -4.693746
     34          1           0       -6.375448    1.926127   -2.604852
     35          1           0       -4.183503    2.951103   -3.208855
     36          7           0       -6.150982   -3.736884   -8.344785
     37          6           0       -6.024773   -2.896569   -9.530446
     38          6           0       -7.272826   -2.052634   -9.857874
     39          8           0       -7.232151   -1.237896  -10.772727
     40          6           0       -5.743205   -3.796732  -10.756954
     41          6           0       -6.888089   -4.774888  -11.033418
     42          7           0       -7.260538   -4.907562  -12.321031
     43          8           0       -7.440714   -5.412173  -10.123008
     44          1           0       -6.477497   -4.674720   -8.560567
     45          1           0       -5.196306   -2.192432   -9.418410
     46          1           0       -4.834692   -4.382509  -10.574122
     47          1           0       -5.560662   -3.144472  -11.614025
     48          1           0       -7.958075   -5.600774  -12.559621
     49          1           0       -6.813700   -4.399240  -13.070513
     50          7           0       -8.398311   -2.347116   -9.149674
     51          6           0       -9.580651   -1.518592   -9.240409
     52          6           0       -9.941762   -1.004266   -7.843508
     53          8           0       -9.519077   -1.507361   -6.816151
     54          6           0      -10.752210   -2.224185   -9.975818
     55          6           0      -11.516083   -3.372245   -9.290204
     56          6           0      -10.692035   -4.557001   -8.752240
     57          7           0      -10.240688   -4.254725   -7.388560
     58          6           0       -9.156291   -4.710413   -6.754682
     59          7           0       -8.415540   -5.713712   -7.241304
     60          7           0       -8.832155   -4.163290   -5.564427
     61          8           0      -10.851184   -0.028259   -7.776237
     62          1           0      -11.016604    0.366298   -8.649903
     63          1           0       -8.269991   -2.862354   -8.292100
     64          1           0       -9.305897   -0.660025   -9.857364
     65          1           0      -11.492102   -1.463347  -10.256138
     66          1           0      -10.319412   -2.586099  -10.915196
     67          1           0      -12.143452   -2.978099   -8.477368
     68          1           0      -12.222181   -3.767814  -10.028149
     69          1           0      -11.307626   -5.463697   -8.735813
     70          1           0       -9.820206   -4.741854   -9.389687
     71          1           0      -10.761747   -3.543512   -6.893409
     72          1           0       -7.466474   -5.781620   -6.871899
     73          1           0       -8.545485   -6.030040   -8.194763
     74          1           0       -7.885960   -4.338459   -5.233050
     75          1           0       -9.173349   -3.223868   -5.392401
 ---------------------------------------------------------------------
 Rotational constants (GHZ):           0.1451143           0.0742018           0.0688153
 Standard basis: 6-31G(d) (6D, 7F)
   657 basis functions,  1236 primitive gaussians,   657 cartesian basis functions
   146 alpha electrons      146 beta electrons
       nuclear repulsion energy      5188.5589657809 Hartrees.
 NAtoms=   75 NActive=   75 NUniq=   75 SFac= 1.00D+00 NAtFMM=   60 NAOKFM=T Big=T
 Integral buffers will be    131072 words long.
 Raffenetti 2 integral format.
 Two-electron integral symmetry is turned off.
 Nuclear repulsion after empirical dispersion term =     5188.4322822890 Hartrees.
 One-electron integrals computed using PRISM.
 NBasis=   657 RedAO= T EigKep=  4.61D-04  NBF=   657
 NBsUse=   657 1.00D-06 EigRej= -1.00D+00 NBFU=   657
 Initial guess from the checkpoint file:  "conf-962.chk"
 B after Tr=     0.000000    0.000000    0.000000
         Rot=    1.000000    0.000000    0.000000    0.000000 Ang=   0.00 deg.
 Requested convergence on RMS density matrix=1.00D-08 within 128 cycles.
 Requested convergence on MAX density matrix=1.00D-06.
 Requested convergence on             energy=1.00D-06.
 No special actions if energy rises.
 SCF Done:  E(RB3LYP) =  -1917.51057395     A.U. after    3 cycles
            NFock=  3  Conv=0.80D-09     -V/T= 2.0093

 **********************************************************************

            Population analysis using the SCF Density.

 **********************************************************************

 Alpha  occ. eigenvalues --  -19.32122 -19.26711 -19.24738 -19.24069 -19.23007
 Alpha  occ. eigenvalues --  -19.20915 -19.19105 -14.51202 -14.49727 -14.49197
 Alpha  occ. eigenvalues --  -14.48497 -14.47709 -14.47523 -14.45365 -14.43311
 Alpha  occ. eigenvalues --  -14.40152 -10.46549 -10.45196 -10.42265 -10.41086
 Alpha  occ. eigenvalues --  -10.40205 -10.37501 -10.36869 -10.36045 -10.36007
 Alpha  occ. eigenvalues --  -10.35578 -10.33823 -10.32271 -10.32118 -10.32036
 Alpha  occ. eigenvalues --  -10.30837 -10.28914 -10.28448 -10.27563 -10.27446
 Alpha  occ. eigenvalues --  -10.27375 -10.27319 -10.27253 -10.27141  -1.23045
 Alpha  occ. eigenvalues --   -1.16388  -1.15859  -1.15237  -1.15139  -1.14477
 Alpha  occ. eigenvalues --   -1.12781  -1.10797  -1.05577  -1.05052  -1.03791
 Alpha  occ. eigenvalues --   -1.03224  -1.02951  -1.02020  -0.98077  -0.97350
 Alpha  occ. eigenvalues --   -0.93990  -0.92768  -0.90255  -0.88032  -0.87532
 Alpha  occ. eigenvalues --   -0.84489  -0.82792  -0.82607  -0.81751  -0.79479
 Alpha  occ. eigenvalues --   -0.77170  -0.76439  -0.75083  -0.74626  -0.73629
 Alpha  occ. eigenvalues --   -0.72280  -0.71355  -0.70199  -0.69956  -0.68902
 Alpha  occ. eigenvalues --   -0.68369  -0.68090  -0.67478  -0.66841  -0.65920
 Alpha  occ. eigenvalues --   -0.65688  -0.63879  -0.63500  -0.62619  -0.61935
 Alpha  occ. eigenvalues --   -0.61438  -0.60918  -0.60598  -0.60058  -0.59699
 Alpha  occ. eigenvalues --   -0.59290  -0.58759  -0.58407  -0.57832  -0.57127
 Alpha  occ. eigenvalues --   -0.56597  -0.56072  -0.55794  -0.55549  -0.55134
 Alpha  occ. eigenvalues --   -0.54297  -0.53934  -0.53780  -0.53634  -0.53090
 Alpha  occ. eigenvalues --   -0.53019  -0.52541  -0.52019  -0.51531  -0.51296
 Alpha  occ. eigenvalues --   -0.50870  -0.50322  -0.49825  -0.49676  -0.49204
 Alpha  occ. eigenvalues --   -0.49116  -0.48837  -0.48596  -0.47736  -0.47512
 Alpha  occ. eigenvalues --   -0.47265  -0.46808  -0.46081  -0.45934  -0.44959
 Alpha  occ. eigenvalues --   -0.44418  -0.43843  -0.43024  -0.42481  -0.42139
 Alpha  occ. eigenvalues --   -0.41844  -0.40870  -0.39932  -0.39688  -0.39234
 Alpha  occ. eigenvalues --   -0.38584  -0.38496  -0.37486  -0.35497  -0.35328
 Alpha  occ. eigenvalues --   -0.34613  -0.34413  -0.34127  -0.33301  -0.32910
 Alpha  occ. eigenvalues --   -0.32088
 Alpha virt. eigenvalues --   -0.12274  -0.11687  -0.10768  -0.10526  -0.09109
 Alpha virt. eigenvalues --   -0.08843  -0.08717  -0.07634  -0.06573  -0.04851
 Alpha virt. eigenvalues --   -0.04465  -0.03863  -0.02870  -0.01905  -0.00975
 Alpha virt. eigenvalues --    0.00034   0.00167   0.00611   0.01155   0.01417
 Alpha virt. eigenvalues --    0.02089   0.02411   0.02567   0.02842   0.03212
 Alpha virt. eigenvalues --    0.03380   0.04063   0.04230   0.04828   0.05270
 Alpha virt. eigenvalues --    0.05411   0.05823   0.06275   0.06546   0.06694
 Alpha virt. eigenvalues --    0.07153   0.07845   0.08088   0.08227   0.08813
 Alpha virt. eigenvalues --    0.08820   0.09161   0.09512   0.09820   0.10110
 Alpha virt. eigenvalues --    0.10603   0.10946   0.11234   0.11425   0.12050
 Alpha virt. eigenvalues --    0.12407   0.12687   0.13053   0.13707   0.14125
 Alpha virt. eigenvalues --    0.14641   0.15200   0.15531   0.16046   0.16750
 Alpha virt. eigenvalues --    0.16849   0.17504   0.18378   0.19277   0.19837
 Alpha virt. eigenvalues --    0.21465   0.22416   0.22645   0.23466   0.23567
 Alpha virt. eigenvalues --    0.24675   0.24815   0.25226   0.26603   0.26862
 Alpha virt. eigenvalues --    0.27035   0.27185   0.28141   0.29962   0.30491
 Alpha virt. eigenvalues --    0.31467   0.32577   0.34374   0.36359   0.36961
 Alpha virt. eigenvalues --    0.37898   0.38485   0.38925   0.39426   0.40279
 Alpha virt. eigenvalues --    0.40904   0.41712   0.42160   0.42709   0.43476
 Alpha virt. eigenvalues --    0.44178   0.44460   0.44806   0.45099   0.45328
 Alpha virt. eigenvalues --    0.46263   0.46442   0.47073   0.47220   0.47593
 Alpha virt. eigenvalues --    0.47874   0.48456   0.48649   0.49246   0.50024
 Alpha virt. eigenvalues --    0.50873   0.51109   0.51333   0.52156   0.52204
 Alpha virt. eigenvalues --    0.52377   0.53006   0.53354   0.53547   0.53770
 Alpha virt. eigenvalues --    0.54244   0.54624   0.54772   0.54944   0.55127
 Alpha virt. eigenvalues --    0.55688   0.56140   0.56678   0.57385   0.57743
 Alpha virt. eigenvalues --    0.57814   0.58527   0.58705   0.59626   0.60019
 Alpha virt. eigenvalues --    0.60193   0.60770   0.61207   0.61690   0.61964
 Alpha virt. eigenvalues --    0.62712   0.63196   0.64179   0.64389   0.64969
 Alpha virt. eigenvalues --    0.65455   0.66803   0.67341   0.67790   0.68574
 Alpha virt. eigenvalues --    0.68898   0.69334   0.70014   0.71236   0.71527
 Alpha virt. eigenvalues --    0.71865   0.72344   0.72729   0.73338   0.73582
 Alpha virt. eigenvalues --    0.73917   0.74266   0.74769   0.74870   0.75546
 Alpha virt. eigenvalues --    0.75755   0.75907   0.76036   0.76509   0.76652
 Alpha virt. eigenvalues --    0.76930   0.77084   0.77296   0.77992   0.78416
 Alpha virt. eigenvalues --    0.78844   0.79453   0.79765   0.80120   0.80634
 Alpha virt. eigenvalues --    0.81146   0.81552   0.82136   0.82518   0.82924
 Alpha virt. eigenvalues --    0.83146   0.83659   0.84183   0.84328   0.84381
 Alpha virt. eigenvalues --    0.84941   0.85217   0.86231   0.86761   0.87174
 Alpha virt. eigenvalues --    0.87391   0.87562   0.87985   0.89111   0.89396
 Alpha virt. eigenvalues --    0.90171   0.90749   0.90985   0.91020   0.91989
 Alpha virt. eigenvalues --    0.92674   0.93175   0.93318   0.94122   0.94333
 Alpha virt. eigenvalues --    0.96175   0.96469   0.97036   0.97966   0.98306
 Alpha virt. eigenvalues --    0.98846   0.99905   1.00933   1.01334   1.02560
 Alpha virt. eigenvalues --    1.03118   1.03502   1.04105   1.04941   1.06298
 Alpha virt. eigenvalues --    1.06404   1.07066   1.07588   1.08802   1.09145
 Alpha virt. eigenvalues --    1.09365   1.10693   1.11158   1.11816   1.12279
 Alpha virt. eigenvalues --    1.12480   1.13294   1.14244   1.15282   1.15656
 Alpha virt. eigenvalues --    1.16987   1.17719   1.18231   1.18357   1.19477
 Alpha virt. eigenvalues --    1.19861   1.20593   1.21311   1.22016   1.23324
 Alpha virt. eigenvalues --    1.23789   1.24537   1.24813   1.26482   1.27627
 Alpha virt. eigenvalues --    1.28573   1.28736   1.29092   1.29820   1.30195
 Alpha virt. eigenvalues --    1.31775   1.32270   1.32912   1.33679   1.34163
 Alpha virt. eigenvalues --    1.35084   1.35636   1.36365   1.37016   1.37856
 Alpha virt. eigenvalues --    1.38502   1.39322   1.39854   1.41069   1.41324
 Alpha virt. eigenvalues --    1.41910   1.42864   1.43570   1.44424   1.45464
 Alpha virt. eigenvalues --    1.46585   1.47370   1.48368   1.49015   1.49347
 Alpha virt. eigenvalues --    1.51614   1.52234   1.54387   1.54807   1.55318
 Alpha virt. eigenvalues --    1.56358   1.57577   1.58583   1.58886   1.60041
 Alpha virt. eigenvalues --    1.60394   1.61345   1.61618   1.62275   1.63551
 Alpha virt. eigenvalues --    1.63869   1.63989   1.64703   1.65266   1.65644
 Alpha virt. eigenvalues --    1.66092   1.66409   1.67565   1.68449   1.69102
 Alpha virt. eigenvalues --    1.69788   1.70168   1.70872   1.71117   1.71546
 Alpha virt. eigenvalues --    1.72343   1.72797   1.73320   1.73629   1.74180
 Alpha virt. eigenvalues --    1.74600   1.74958   1.75434   1.75858   1.76206
 Alpha virt. eigenvalues --    1.77437   1.78233   1.78862   1.79567   1.80288
 Alpha virt. eigenvalues --    1.80517   1.80983   1.81876   1.82163   1.83059
 Alpha virt. eigenvalues --    1.83188   1.84758   1.84952   1.85946   1.86302
 Alpha virt. eigenvalues --    1.86729   1.86940   1.87369   1.88121   1.89214
 Alpha virt. eigenvalues --    1.90322   1.90426   1.91049   1.91604   1.92385
 Alpha virt. eigenvalues --    1.92510   1.92783   1.94692   1.94969   1.95388
 Alpha virt. eigenvalues --    1.95990   1.96774   1.97536   1.97970   1.98350
 Alpha virt. eigenvalues --    1.98801   2.00093   2.01044   2.02121   2.03005
 Alpha virt. eigenvalues --    2.03434   2.03642   2.04267   2.05572   2.06031
 Alpha virt. eigenvalues --    2.06279   2.07073   2.08212   2.09498   2.09770
 Alpha virt. eigenvalues --    2.10058   2.10939   2.11442   2.13268   2.14309
 Alpha virt. eigenvalues --    2.15033   2.15629   2.16573   2.17352   2.18753
 Alpha virt. eigenvalues --    2.19310   2.19444   2.19711   2.20612   2.21559
 Alpha virt. eigenvalues --    2.21875   2.23476   2.23949   2.24509   2.25739
 Alpha virt. eigenvalues --    2.26114   2.26760   2.27676   2.29314   2.29992
 Alpha virt. eigenvalues --    2.31129   2.32046   2.32127   2.32351   2.34533
 Alpha virt. eigenvalues --    2.36244   2.36398   2.36962   2.37563   2.38594
 Alpha virt. eigenvalues --    2.40246   2.40771   2.42216   2.43028   2.43517
 Alpha virt. eigenvalues --    2.45442   2.46079   2.47101   2.48116   2.49002
 Alpha virt. eigenvalues --    2.49613   2.50143   2.50443   2.50770   2.51247
 Alpha virt. eigenvalues --    2.51517   2.52130   2.53058   2.53672   2.54631
 Alpha virt. eigenvalues --    2.54780   2.55140   2.56474   2.57504   2.58033
 Alpha virt. eigenvalues --    2.59303   2.59674   2.61680   2.62846   2.63784
 Alpha virt. eigenvalues --    2.64320   2.65744   2.66692   2.67598   2.68230
 Alpha virt. eigenvalues --    2.69096   2.70550   2.71582   2.73330   2.75540
 Alpha virt. eigenvalues --    2.77002   2.79756   2.81933   2.83944   2.85814
 Alpha virt. eigenvalues --    2.86922   2.88635   2.90535   2.91552   2.93094
 Alpha virt. eigenvalues --    2.93643   2.93801   2.94827   2.96484   2.96565
 Alpha virt. eigenvalues --    2.98455   2.99063   3.01103   3.05040   3.06035
 Alpha virt. eigenvalues --    3.11110   3.32545   3.68364   3.71493   3.75376
 Alpha virt. eigenvalues --    3.75611   3.80176   3.83864   3.88330   3.90842
 Alpha virt. eigenvalues --    3.95933   3.98241   3.98869   4.02009   4.05155
 Alpha virt. eigenvalues --    4.05810   4.08371   4.10342   4.10644   4.12449
 Alpha virt. eigenvalues --    4.14647   4.15843   4.18877   4.21127   4.23399
 Alpha virt. eigenvalues --    4.24746   4.26563   4.31531   4.32115   4.34764
 Alpha virt. eigenvalues --    4.36937   4.40835   4.41214   4.43278   4.47446
 Alpha virt. eigenvalues --    4.50781   4.55862   4.58603   4.63300   4.69007
 Alpha virt. eigenvalues --    4.71124
          Condensed to atoms (all electrons):
 Mulliken charges:
               1
     1  N   -0.810223
     2  C   -0.058129
     3  C    0.621054
     4  O   -0.523736
     5  C   -0.396978
     6  C    0.621162
     7  N   -0.748915
     8  O   -0.521704
     9  H    0.171160
    10  H    0.178681
    11  H    0.187644
    12  H    0.353685
    13  H    0.348287
    14  H    0.346569
    15  H    0.332923
    16  N   -0.629716
    17  C   -0.080338
    18  C    0.625190
    19  O   -0.568758
    20  C   -0.352633
    21  C    0.178314
    22  C   -0.175665
    23  C   -0.196049
    24  C   -0.134415
    25  C   -0.129204
    26  C   -0.156666
    27  H    0.359058
    28  H    0.220119
    29  H    0.127102
    30  H    0.192592
    31  H    0.151092
    32  H    0.128888
    33  H    0.156287
    34  H    0.148529
    35  H    0.148161
    36  N   -0.641576
    37  C   -0.057912
    38  C    0.640855
    39  O   -0.536636
    40  C   -0.394438
    41  C    0.618862
    42  N   -0.724814
    43  O   -0.561526
    44  H    0.369441
    45  H    0.229781
    46  H    0.212541
    47  H    0.200792
    48  H    0.362137
    49  H    0.370138
    50  N   -0.616709
    51  C   -0.097775
    52  C    0.668318
    53  O   -0.521849
    54  C   -0.269038
    55  C   -0.320524
    56  C   -0.153468
    57  N   -0.595950
    58  C    0.736572
    59  N   -0.753819
    60  N   -0.758843
    61  O   -0.539071
    62  H    0.436092
    63  H    0.365920
    64  H    0.203233
    65  H    0.157289
    66  H    0.182944
    67  H    0.162879
    68  H    0.187743
    69  H    0.194119
    70  H    0.199832
    71  H    0.363260
    72  H    0.387467
    73  H    0.396855
    74  H    0.397915
    75  H    0.385595
 Sum of Mulliken charges =   1.00000
 Mulliken charges with hydrogens summed into heavy atoms:
               1
     1  N   -0.130731
     2  C    0.113031
     3  C    0.621054
     4  O   -0.523736
     5  C   -0.030653
     6  C    0.621162
     7  N   -0.046942
     8  O   -0.521704
    16  N   -0.270657
    17  C    0.139780
    18  C    0.625190
    19  O   -0.568758
    20  C   -0.032940
    21  C    0.178314
    22  C   -0.024573
    23  C   -0.067161
    24  C    0.021872
    25  C    0.019325
    26  C   -0.008505
    36  N   -0.272134
    37  C    0.171869
    38  C    0.640855
    39  O   -0.536636
    40  C    0.018894
    41  C    0.618862
    42  N    0.007461
    43  O   -0.561526
    50  N   -0.250789
    51  C    0.105458
    52  C    0.668318
    53  O   -0.521849
    54  C    0.071195
    55  C    0.030097
    56  C    0.240482
    57  N   -0.232689
    58  C    0.736572
    59  N    0.030504
    60  N    0.024668
    61  O   -0.102979
 Electronic spatial extent (au):  <R**2>=         135986.7200
 Charge=              1.0000 electrons
 Dipole moment (field-independent basis, Debye):
    X=            -41.0674    Y=            -13.7920    Z=            -40.3237  Tot=             59.1840
 Quadrupole moment (field-independent basis, Debye-Ang):
   XX=            157.2996   YY=           -142.3384   ZZ=            163.8648
   XY=            129.4488   XZ=            357.0630   YZ=            156.9965
 Traceless Quadrupole moment (field-independent basis, Debye-Ang):
   XX=             97.6909   YY=           -201.9470   ZZ=            104.2562
   XY=            129.4488   XZ=            357.0630   YZ=            156.9965
 Octapole moment (field-independent basis, Debye-Ang**2):
  XXX=           1117.7088  YYY=            759.2327  ZZZ=            953.8844  XYY=            973.9735
  XXY=           -916.0497  XXZ=          -1704.5018  XZZ=          -1819.0744  YZZ=          -1404.4980
  YYZ=            957.0358  XYZ=          -1345.5660
 Hexadecapole moment (field-independent basis, Debye-Ang**3):
 XXXX=         -38043.9045 YYYY=         -10909.2524 ZZZZ=         -36596.9662 XXXY=           3913.7142
 XXXZ=          -3942.0892 YYYX=          -6144.9677 YYYZ=          -6295.6323 ZZZX=          -2258.6085
 ZZZY=          10282.9487 XXYY=          -9282.6055 XXZZ=           5955.8735 YYZZ=          -8447.1830
 XXYZ=           9098.6204 YYXZ=          -6751.7688 ZZXY=          11331.8791
 N-N= 5.188432282289D+03 E-N=-1.481641445132D+04  KE= 1.899811727373D+03
 Unable to Open any file for archive entry.
 1\1\GINC-AMR-017\SP\RB3LYP\6-31G(d)\C23H36N9O7(1+)\KENGMITH\03-Jun-202
 2\0\\# B3LYP/6-31G* empiricaldispersion=gd3 guess=read geom=check nosy
 mm integral(ultrafinegrid)\\Candidate Structure: Conf:962 Charge calc 
 in gas phase\\1,1\N,0,-7.7490722548,0.9680851534,-8.6161629398\C,0,-6.
 4095259331,1.2604545279,-8.0770997077\C,0,-5.5928735865,-0.0198192863,
 -7.8902458015\O,0,-4.4273393142,-0.1204086636,-8.2545038293\C,0,-6.524
 9356193,1.9447905968,-6.7042932247\C,0,-7.1184175434,3.3479017182,-6.7
 858825658\N,0,-6.7168868256,4.1878170871,-5.7977857404\O,0,-7.92066169
 86,3.6810460159,-7.6562695664\H,0,-5.8087305626,1.896284273,-8.7403612
 056\H,0,-7.1783304221,1.3495671583,-6.0554912964\H,0,-5.5439578309,1.9
 673124231,-6.2217155906\H,0,-7.1083811102,5.1191097583,-5.7617227154\H
 ,0,-6.0584699557,3.9020709584,-5.0872619754\H,0,-8.2527826838,1.857942
 6408,-8.5823987219\H,0,-7.6345004178,0.723227652,-9.6000631882\N,0,-6.
 2437279981,-1.0458607451,-7.2423187058\C,0,-5.4758175008,-2.0959398886
 ,-6.5914008265\C,0,-5.9139474013,-3.4971674067,-7.0311121019\O,0,-6.07
 3100484,-4.4137996869,-6.2059062448\C,0,-5.5095885952,-1.9694758777,-5
 .0528206906\C,0,-5.1351686077,-0.5878996247,-4.554745945\C,0,-3.908313
 6168,0.0022972493,-4.8937289428\C,0,-6.0148337637,0.1270681381,-3.7331
 786822\C,0,-3.5728142512,1.2713493068,-4.4216756007\C,0,-5.6820434709,
 1.3960497631,-3.2520728825\C,0,-4.4577321632,1.9727964883,-3.595647085
 4\H,0,-7.1958794561,-0.8753094779,-6.9365784407\H,0,-4.4487531951,-1.9
 592444608,-6.951494542\H,0,-6.5173615457,-2.2221802396,-4.701434508\H,
 0,-4.8448539186,-2.7330044415,-4.6344621633\H,0,-3.2116322543,-0.52376
 58317,-5.5402335197\H,0,-6.9703109229,-0.3148690606,-3.4589530376\H,0,
 -2.6171652848,1.7101201206,-4.6937456287\H,0,-6.3754479793,1.926126678
 8,-2.6048523001\H,0,-4.1835029916,2.951102896,-3.2088551997\N,0,-6.150
 9816003,-3.7368839543,-8.344785042\C,0,-6.0247729843,-2.896569051,-9.5
 304463918\C,0,-7.272825987,-2.0526335002,-9.8578741967\O,0,-7.23215064
 5,-1.2378955982,-10.7727270242\C,0,-5.7432048956,-3.7967323241,-10.756
 9537429\C,0,-6.8880887201,-4.7748877723,-11.0334179392\N,0,-7.26053773
 64,-4.9075618959,-12.3210308419\O,0,-7.4407140291,-5.4121727922,-10.12
 30079934\H,0,-6.4774970792,-4.6747202332,-8.5605669807\H,0,-5.19630563
 35,-2.1924317948,-9.4184101688\H,0,-4.8346916475,-4.3825085383,-10.574
 1220955\H,0,-5.5606616676,-3.1444718792,-11.6140254491\H,0,-7.95807519
 42,-5.6007744962,-12.5596208078\H,0,-6.8137003736,-4.3992402416,-13.07
 05132408\N,0,-8.3983107706,-2.3471156707,-9.1496739167\C,0,-9.58065106
 17,-1.5185923572,-9.2404093539\C,0,-9.9417622382,-1.0042660737,-7.8435
 082331\O,0,-9.5190771101,-1.5073612455,-6.8161514948\C,0,-10.752209918
 4,-2.2241849249,-9.9758175759\C,0,-11.5160828978,-3.3722454121,-9.2902
 036961\C,0,-10.6920350604,-4.5570007345,-8.7522400751\N,0,-10.24068774
 62,-4.2547248908,-7.388559804\C,0,-9.1562914216,-4.7104134138,-6.75468
 16349\N,0,-8.4155397652,-5.7137123115,-7.2413044608\N,0,-8.8321545203,
 -4.1632899662,-5.5644272423\O,0,-10.8511839489,-0.0282588926,-7.776237
 2806\H,0,-11.0166044605,0.3662980371,-8.6499031127\H,0,-8.2699905627,-
 2.8623535544,-8.2920996477\H,0,-9.3058970376,-0.6600246623,-9.85736399
 23\H,0,-11.4921020907,-1.4633470995,-10.2561377138\H,0,-10.3194122965,
 -2.5860986235,-10.9151955702\H,0,-12.1434521946,-2.9780991399,-8.47736
 7773\H,0,-12.222181064,-3.7678136092,-10.0281485238\H,0,-11.3076260793
 ,-5.46369733,-8.7358134224\H,0,-9.8202058182,-4.7418537658,-9.38968684
 9\H,0,-10.7617474882,-3.5435115963,-6.8934094644\H,0,-7.4664743174,-5.
 7816196766,-6.8718989274\H,0,-8.5454847361,-6.0300404572,-8.1947625231
 \H,0,-7.8859597565,-4.3384585808,-5.2330497745\H,0,-9.1733489648,-3.22
 38683189,-5.3924012653\\Version=ES64L-G16RevC.01\HF=-1917.510574\RMSD=
 7.950e-10\Dipole=-2.3447754,-2.5714328,-1.469227\Quadrupole=72.6307815
 ,-150.1426762,77.5118947,96.2420028,265.4675936,116.7230309\PG=C01 [X(
 C23H36N9O7)]\\@
 The archive entry for this job was punched.


 ON A TOMBSTONE, "HERE LIES LESTER MOORE,
 FOUR SLUGS FROM A 44, NO LES, NO MORE".
 Job cpu time:       0 days  0 hours  4 minutes 58.0 seconds.
 Elapsed time:       0 days  0 hours  1 minutes 15.3 seconds.
 File lengths (MBytes):  RWF=    344 Int=      0 D2E=      0 Chk=     48 Scr=     16
 Normal termination of Gaussian 16 at Fri Jun  3 06:26:56 2022.
