 Entering Gaussian System, Link 0=/opt/software/Gaussian/g16-AVX2-C.01/g16/g16
 Input=charge-conf-95.com
 Output=charge-conf-95.log
 Initial command:
 /opt/software/Gaussian/g16-AVX2-C.01/g16/l1.exe "/mnt/gs18/scratch/users/kengmith/Gau-32043.inp" -scrdir="/mnt/gs18/scratch/users/kengmith/"
 Entering Link 1 = /opt/software/Gaussian/g16-AVX2-C.01/g16/l1.exe PID=     32054.
  
 Copyright (c) 1988-2019, Gaussian, Inc.  All Rights Reserved.
  
 This is part of the Gaussian(R) 16 program.  It is based on
 the Gaussian(R) 09 system (copyright 2009, Gaussian, Inc.),
 the Gaussian(R) 03 system (copyright 2003, Gaussian, Inc.),
 the Gaussian(R) 98 system (copyright 1998, Gaussian, Inc.),
 the Gaussian(R) 94 system (copyright 1995, Gaussian, Inc.),
 the Gaussian 92(TM) system (copyright 1992, Gaussian, Inc.),
 the Gaussian 90(TM) system (copyright 1990, Gaussian, Inc.),
 the Gaussian 88(TM) system (copyright 1988, Gaussian, Inc.),
 the Gaussian 86(TM) system (copyright 1986, Carnegie Mellon
 University), and the Gaussian 82(TM) system (copyright 1983,
 Carnegie Mellon University). Gaussian is a federally registered
 trademark of Gaussian, Inc.
  
 This software contains proprietary and confidential information,
 including trade secrets, belonging to Gaussian, Inc.
  
 This software is provided under written license and may be
 used, copied, transmitted, or stored only in accord with that
 written license.
  
 The following legend is applicable only to US Government
 contracts under FAR:
  
                    RESTRICTED RIGHTS LEGEND
  
 Use, reproduction and disclosure by the US Government is
 subject to restrictions as set forth in subparagraphs (a)
 and (c) of the Commercial Computer Software - Restricted
 Rights clause in FAR 52.227-19.
  
 Gaussian, Inc.
 340 Quinnipiac St., Bldg. 40, Wallingford CT 06492
  
  
 ---------------------------------------------------------------
 Warning -- This program may not be used in any manner that
 competes with the business of Gaussian, Inc. or will provide
 assistance to any competitor of Gaussian, Inc.  The licensee
 of this program is prohibited from giving any competitor of
 Gaussian, Inc. access to this program.  By using this program,
 the user acknowledges that Gaussian, Inc. is engaged in the
 business of creating and licensing software in the field of
 computational chemistry and represents and warrants to the
 licensee that it is not a competitor of Gaussian, Inc. and that
 it will not use this program in any manner prohibited above.
 ---------------------------------------------------------------
  

 Cite this work as:
 Gaussian 16, Revision C.01,
 M. J. Frisch, G. W. Trucks, H. B. Schlegel, G. E. Scuseria, 
 M. A. Robb, J. R. Cheeseman, G. Scalmani, V. Barone, 
 G. A. Petersson, H. Nakatsuji, X. Li, M. Caricato, A. V. Marenich, 
 J. Bloino, B. G. Janesko, R. Gomperts, B. Mennucci, H. P. Hratchian, 
 J. V. Ortiz, A. F. Izmaylov, J. L. Sonnenberg, D. Williams-Young, 
 F. Ding, F. Lipparini, F. Egidi, J. Goings, B. Peng, A. Petrone, 
 T. Henderson, D. Ranasinghe, V. G. Zakrzewski, J. Gao, N. Rega, 
 G. Zheng, W. Liang, M. Hada, M. Ehara, K. Toyota, R. Fukuda, 
 J. Hasegawa, M. Ishida, T. Nakajima, Y. Honda, O. Kitao, H. Nakai, 
 T. Vreven, K. Throssell, J. A. Montgomery, Jr., J. E. Peralta, 
 F. Ogliaro, M. J. Bearpark, J. J. Heyd, E. N. Brothers, K. N. Kudin, 
 V. N. Staroverov, T. A. Keith, R. Kobayashi, J. Normand, 
 K. Raghavachari, A. P. Rendell, J. C. Burant, S. S. Iyengar, 
 J. Tomasi, M. Cossi, J. M. Millam, M. Klene, C. Adamo, R. Cammi, 
 J. W. Ochterski, R. L. Martin, K. Morokuma, O. Farkas, 
 J. B. Foresman, and D. J. Fox, Gaussian, Inc., Wallingford CT, 2019.
 
 ******************************************
 Gaussian 16:  ES64L-G16RevC.01  3-Jul-2019
                 3-Jun-2022 
 ******************************************
 %mem=8gb
 %nproc=4
 Will use up to    4 processors via shared memory.
 %chk=conf-95.chk
 ----------------------------------------------------------------------
 # B3LYP/6-31G* empiricaldispersion=gd3 guess=read geom=check nosymm in
 tegral(ultrafinegrid)
 ----------------------------------------------------------------------
 1/29=2,38=1,172=1/1;
 2/12=2,15=1,40=1/2;
 3/5=1,6=6,7=1,11=2,14=-4,25=1,30=1,74=-5,75=-5,116=-2,124=31/1,2,3;
 4/5=1/1;
 5/5=2,38=6/2;
 6/7=2,8=2,9=2,10=2,28=1/1;
 99/5=1,9=1/99;
 -----------------------------------------------------
 Candidate Structure: Conf:95 Charge calc in gas phase
 -----------------------------------------------------
 Structure from the checkpoint file:  "conf-95.chk"
 Charge =  1 Multiplicity = 1
 Redundant internal coordinates found in file.  (old form).
 N,0,-8.062805556,0.4471200783,-9.7302924362
 C,0,-7.9986988494,1.2716329976,-8.4772945019
 C,0,-7.074819723,0.6962957099,-7.3915574229
 O,0,-6.2322807872,1.4176187964,-6.8714070101
 C,0,-9.4159165598,1.4386672988,-7.9185831656
 C,0,-10.3312046485,2.1756636329,-8.8915989146
 N,0,-11.4000362066,2.7752641896,-8.3282989153
 O,0,-10.1108913418,2.1938440078,-10.107099072
 H,0,-7.5746833123,2.238454918,-8.7521406532
 H,0,-9.8521735301,0.4547822452,-7.7096315467
 H,0,-9.3577861787,1.9603312951,-6.959522072
 H,0,-12.0756819507,3.2347581241,-8.9246262399
 H,0,-11.5612308316,2.7463289015,-7.3308405754
 H,0,-8.6998050642,0.9634522637,-10.3662219306
 H,0,-7.1205203041,0.2899489297,-10.1214054068
 N,0,-7.3095461758,-0.5895446475,-7.0019266862
 C,0,-6.8421808344,-1.0555539414,-5.7024605108
 C,0,-5.9824309095,-2.3253321552,-5.7974890764
 O,0,-6.2033488275,-3.2982683593,-5.0590380733
 C,0,-8.0305208236,-1.2711056476,-4.7390756467
 C,0,-8.9804271793,-0.0910890979,-4.6858233891
 C,0,-8.536686672,1.1890750852,-4.3200573981
 C,0,-10.3343361831,-0.2637571181,-4.9993311633
 C,0,-9.4250132995,2.2638475238,-4.2646775413
 C,0,-11.2308913435,0.8070321682,-4.9373833743
 C,0,-10.7782817498,2.076068983,-4.5691427515
 H,0,-8.0306208301,-1.1396135579,-7.479878859
 H,0,-6.1895633077,-0.2618033436,-5.322142051
 H,0,-8.5805919693,-2.1642429802,-5.055070079
 H,0,-7.6279980251,-1.4994395196,-3.7463966505
 H,0,-7.4895121608,1.353007243,-4.0806970306
 H,0,-10.6957607241,-1.2478324846,-5.2883977608
 H,0,-9.0634274355,3.2455269106,-3.9722525454
 H,0,-12.2811532825,0.6429176266,-5.1634322823
 H,0,-11.4739839569,2.9082122103,-4.4946266916
 N,0,-4.9493890895,-2.3746121216,-6.6766797764
 C,0,-4.5984125051,-1.4901739621,-7.7831603605
 C,0,-5.526289449,-1.6193862934,-9.0132171259
 O,0,-5.5605609835,-0.6989684447,-9.8379255329
 C,0,-3.1433919573,-1.7671567632,-8.2222381283
 C,0,-2.9282184473,-3.2038022007,-8.7056188052
 N,0,-2.103308827,-3.3609245254,-9.7586274313
 O,0,-3.4762924975,-4.1696870246,-8.1533156148
 H,0,-4.446403579,-3.2588880093,-6.6884177794
 H,0,-4.6646242822,-0.4453529067,-7.4702290489
 H,0,-2.4753059156,-1.5966693289,-7.369222427
 H,0,-2.8828778467,-1.0430861331,-8.9991853692
 H,0,-1.869373275,-4.2988307231,-10.0585600405
 H,0,-1.6369929464,-2.5852336312,-10.2066026662
 N,0,-6.2125719636,-2.7727641697,-9.1155563863
 C,0,-7.2514910076,-3.0713774172,-10.102295884
 C,0,-8.622439053,-3.062933802,-9.3292928362
 O,0,-9.255497131,-4.1234937148,-9.1565913074
 C,0,-6.921301157,-4.3160458013,-10.9786323799
 C,0,-5.9021332406,-5.3493343363,-10.4407217529
 C,0,-6.4867278087,-6.4555255015,-9.5446383728
 N,0,-7.3964705151,-5.9465041201,-8.5217041684
 C,0,-7.0778685713,-5.5002953754,-7.3073506271
 N,0,-5.8444567161,-5.6350078912,-6.7801393784
 N,0,-8.0424906205,-4.927867322,-6.5630258065
 O,0,-8.9631412858,-1.9222209756,-8.8708130376
 H,0,-8.4644442157,-0.5185907946,-9.5203926586
 H,0,-6.065217279,-3.4425030309,-8.3742263786
 H,0,-7.2728980879,-2.2019141064,-10.7631956355
 H,0,-7.8675609617,-4.8080385806,-11.230812305
 H,0,-6.5131267228,-3.933740928,-11.9194379018
 H,0,-5.4414264821,-5.8533515524,-11.2985937654
 H,0,-5.0857614114,-4.8389759876,-9.9196433758
 H,0,-7.077938543,-7.1502083907,-10.1491055532
 H,0,-5.6951038885,-7.0490537951,-9.0760194856
 H,0,-8.2672352693,-5.5319132345,-8.8929099758
 H,0,-5.6641225396,-5.1332760427,-5.9126683894
 H,0,-5.0459342572,-5.7740194482,-7.3855286934
 H,0,-7.7681777145,-4.4004379668,-5.7396222455
 H,0,-8.9187476119,-4.6948077926,-7.0209027883
 Recover connectivity data from disk.
                           ----------------------------
                           !    Current Parameters    !
                           ! (Angstroms and Degrees)  !
 --------------------------                            --------------------------
 ! Name  Definition              Value                                          !
 --------------------------------------------------------------------------------
 ! R1    R(1,2)                  1.5013                                         !
 ! R2    R(1,14)                 1.0377                                         !
 ! R3    R(1,15)                 1.0323                                         !
 ! R4    R(2,3)                  1.5373                                         !
 ! R5    R(2,5)                  1.5325                                         !
 ! R6    R(2,9)                  1.0909                                         !
 ! R7    R(3,4)                  1.225                                          !
 ! R8    R(3,16)                 1.3639                                         !
 ! R9    R(5,6)                  1.5257                                         !
 ! R10   R(5,10)                 1.0964                                         !
 ! R11   R(5,11)                 1.0933                                         !
 ! R12   R(6,7)                  1.3488                                         !
 ! R13   R(6,8)                  1.2354                                         !
 ! R14   R(7,12)                 1.0116                                         !
 ! R15   R(7,13)                 1.0108                                         !
 ! R16   R(16,17)                1.4575                                         !
 ! R17   R(16,27)                1.0252                                         !
 ! R18   R(17,18)                1.5364                                         !
 ! R19   R(17,20)                1.5449                                         !
 ! R20   R(17,28)                1.0957                                         !
 ! R21   R(18,19)                1.2413                                         !
 ! R22   R(18,36)                1.3574                                         !
 ! R23   R(20,21)                1.5158                                         !
 ! R24   R(20,29)                1.0955                                         !
 ! R25   R(20,30)                1.0952                                         !
 ! R26   R(21,22)                1.4034                                         !
 ! R27   R(21,23)                1.4004                                         !
 ! R28   R(22,24)                1.3955                                         !
 ! R29   R(22,31)                1.0866                                         !
 ! R30   R(23,25)                1.3979                                         !
 ! R31   R(23,32)                1.0875                                         !
 ! R32   R(24,26)                1.3997                                         !
 ! R33   R(24,33)                1.0863                                         !
 ! R34   R(25,26)                1.3968                                         !
 ! R35   R(25,34)                1.0868                                         !
 ! R36   R(26,35)                1.0872                                         !
 ! R37   R(36,37)                1.4594                                         !
 ! R38   R(36,44)                1.0174                                         !
 ! R39   R(37,38)                1.5462                                         !
 ! R40   R(37,40)                1.5449                                         !
 ! R41   R(37,45)                1.0927                                         !
 ! R42   R(38,39)                1.2363                                         !
 ! R43   R(38,50)                1.346                                          !
 ! R44   R(40,41)                1.531                                          !
 ! R45   R(40,46)                1.0968                                         !
 ! R46   R(40,47)                1.0935                                         !
 ! R47   R(41,42)                1.3468                                         !
 ! R48   R(41,43)                1.2403                                         !
 ! R49   R(42,48)                1.0121                                         !
 ! R50   R(42,49)                1.0099                                         !
 ! R51   R(50,51)                1.4636                                         !
 ! R52   R(50,63)                1.0099                                         !
 ! R53   R(51,52)                1.5739                                         !
 ! R54   R(51,54)                1.5576                                         !
 ! R55   R(51,64)                1.0923                                         !
 ! R56   R(52,53)                1.2471                                         !
 ! R57   R(52,61)                1.2757                                         !
 ! R58   R(54,55)                1.5478                                         !
 ! R59   R(54,65)                1.0959                                         !
 ! R60   R(54,66)                1.0945                                         !
 ! R61   R(55,56)                1.539                                          !
 ! R62   R(55,67)                1.0965                                         !
 ! R63   R(55,68)                1.0947                                         !
 ! R64   R(56,57)                1.4605                                         !
 ! R65   R(56,69)                1.0943                                         !
 ! R66   R(56,70)                1.0948                                         !
 ! R67   R(57,58)                1.3324                                         !
 ! R68   R(57,71)                1.0334                                         !
 ! R69   R(58,59)                1.3481                                         !
 ! R70   R(58,60)                1.3462                                         !
 ! R71   R(59,72)                1.0182                                         !
 ! R72   R(59,73)                1.0117                                         !
 ! R73   R(60,74)                1.0156                                         !
 ! R74   R(60,75)                1.0158                                         !
 ! R75   R(61,62)                1.6251                                         !
 ! A1    A(2,1,14)             105.3324                                         !
 ! A2    A(2,1,15)             111.1531                                         !
 ! A3    A(14,1,15)            113.8238                                         !
 ! A4    A(1,2,3)              114.1775                                         !
 ! A5    A(1,2,5)              108.9441                                         !
 ! A6    A(1,2,9)              107.0408                                         !
 ! A7    A(3,2,5)              109.8199                                         !
 ! A8    A(3,2,9)              106.0232                                         !
 ! A9    A(5,2,9)              110.7749                                         !
 ! A10   A(2,3,4)              119.5267                                         !
 ! A11   A(2,3,16)             116.8173                                         !
 ! A12   A(4,3,16)             123.5161                                         !
 ! A13   A(2,5,6)              112.0202                                         !
 ! A14   A(2,5,10)             109.8555                                         !
 ! A15   A(2,5,11)             108.823                                          !
 ! A16   A(6,5,10)             108.4415                                         !
 ! A17   A(6,5,11)             111.1531                                         !
 ! A18   A(10,5,11)            106.3895                                         !
 ! A19   A(5,6,7)              115.0745                                         !
 ! A20   A(5,6,8)              121.8431                                         !
 ! A21   A(7,6,8)              123.0702                                         !
 ! A22   A(6,7,12)             119.0141                                         !
 ! A23   A(6,7,13)             121.7195                                         !
 ! A24   A(12,7,13)            119.2234                                         !
 ! A25   A(3,16,17)            120.0627                                         !
 ! A26   A(3,16,27)            119.5848                                         !
 ! A27   A(17,16,27)           118.0127                                         !
 ! A28   A(16,17,18)           112.8642                                         !
 ! A29   A(16,17,20)           110.7285                                         !
 ! A30   A(16,17,28)           105.5952                                         !
 ! A31   A(18,17,20)           110.7133                                         !
 ! A32   A(18,17,28)           106.6709                                         !
 ! A33   A(20,17,28)           110.0458                                         !
 ! A34   A(17,18,19)           120.7581                                         !
 ! A35   A(17,18,36)           119.731                                          !
 ! A36   A(19,18,36)           119.4931                                         !
 ! A37   A(17,20,21)           113.2866                                         !
 ! A38   A(17,20,29)           108.6694                                         !
 ! A39   A(17,20,30)           108.1547                                         !
 ! A40   A(21,20,29)           109.2779                                         !
 ! A41   A(21,20,30)           111.1474                                         !
 ! A42   A(29,20,30)           106.0219                                         !
 ! A43   A(20,21,22)           121.4085                                         !
 ! A44   A(20,21,23)           120.1334                                         !
 ! A45   A(22,21,23)           118.4576                                         !
 ! A46   A(21,22,24)           120.772                                          !
 ! A47   A(21,22,31)           119.9829                                         !
 ! A48   A(24,22,31)           119.2444                                         !
 ! A49   A(21,23,25)           121.0427                                         !
 ! A50   A(21,23,32)           119.4983                                         !
 ! A51   A(25,23,32)           119.4574                                         !
 ! A52   A(22,24,26)           120.231                                          !
 ! A53   A(22,24,33)           119.6581                                         !
 ! A54   A(26,24,33)           120.1068                                         !
 ! A55   A(23,25,26)           119.9867                                         !
 ! A56   A(23,25,34)           119.6634                                         !
 ! A57   A(26,25,34)           120.3444                                         !
 ! A58   A(24,26,25)           119.5061                                         !
 ! A59   A(24,26,35)           120.0704                                         !
 ! A60   A(25,26,35)           120.4061                                         !
 ! A61   A(18,36,37)           130.7008                                         !
 ! A62   A(18,36,44)           114.5366                                         !
 ! A63   A(37,36,44)           113.5223                                         !
 ! A64   A(36,37,38)           114.0922                                         !
 ! A65   A(36,37,40)           109.4722                                         !
 ! A66   A(36,37,45)           110.3521                                         !
 ! A67   A(38,37,40)           108.9121                                         !
 ! A68   A(38,37,45)           105.7462                                         !
 ! A69   A(40,37,45)           108.0537                                         !
 ! A70   A(37,38,39)           119.019                                          !
 ! A71   A(37,38,50)           115.9807                                         !
 ! A72   A(39,38,50)           124.9657                                         !
 ! A73   A(37,40,41)           112.9766                                         !
 ! A74   A(37,40,46)           108.952                                          !
 ! A75   A(37,40,47)           107.9146                                         !
 ! A76   A(41,40,46)           107.8062                                         !
 ! A77   A(41,40,47)           111.3174                                         !
 ! A78   A(46,40,47)           107.7299                                         !
 ! A79   A(40,41,42)           116.2573                                         !
 ! A80   A(40,41,43)           121.8746                                         !
 ! A81   A(42,41,43)           121.8666                                         !
 ! A82   A(41,42,48)           118.7747                                         !
 ! A83   A(41,42,49)           122.6857                                         !
 ! A84   A(48,42,49)           118.2691                                         !
 ! A85   A(38,50,51)           126.0153                                         !
 ! A86   A(38,50,63)           115.981                                          !
 ! A87   A(51,50,63)           117.592                                          !
 ! A88   A(50,51,52)           106.6241                                         !
 ! A89   A(50,51,54)           113.0703                                         !
 ! A90   A(50,51,64)           105.0352                                         !
 ! A91   A(52,51,54)           117.7271                                         !
 ! A92   A(52,51,64)           106.0107                                         !
 ! A93   A(54,51,64)           107.4454                                         !
 ! A94   A(51,52,53)           120.3715                                         !
 ! A95   A(51,52,61)           114.4522                                         !
 ! A96   A(53,52,61)           125.1034                                         !
 ! A97   A(51,54,55)           118.5227                                         !
 ! A98   A(51,54,65)           107.7676                                         !
 ! A99   A(51,54,66)           106.4723                                         !
 ! A100  A(55,54,65)           110.4143                                         !
 ! A101  A(55,54,66)           106.64                                           !
 ! A102  A(65,54,66)           106.3213                                         !
 ! A103  A(54,55,56)           115.5998                                         !
 ! A104  A(54,55,67)           108.1575                                         !
 ! A105  A(54,55,68)           110.1955                                         !
 ! A106  A(56,55,67)           106.5448                                         !
 ! A107  A(56,55,68)           109.9512                                         !
 ! A108  A(67,55,68)           105.8651                                         !
 ! A109  A(55,56,57)           113.1982                                         !
 ! A110  A(55,56,69)           109.8708                                         !
 ! A111  A(55,56,70)           111.3616                                         !
 ! A112  A(57,56,69)           105.7596                                         !
 ! A113  A(57,56,70)           109.8495                                         !
 ! A114  A(69,56,70)           106.4357                                         !
 ! A115  A(56,57,58)           127.309                                          !
 ! A116  A(56,57,71)           114.3996                                         !
 ! A117  A(58,57,71)           113.236                                          !
 ! A118  A(57,58,59)           122.8021                                         !
 ! A119  A(57,58,60)           118.359                                          !
 ! A120  A(59,58,60)           118.8068                                         !
 ! A121  A(58,59,72)           116.4858                                         !
 ! A122  A(58,59,73)           120.1238                                         !
 ! A123  A(72,59,73)           115.9593                                         !
 ! A124  A(58,60,74)           118.3967                                         !
 ! A125  A(58,60,75)           117.8055                                         !
 ! A126  A(74,60,75)           118.6406                                         !
 ! A127  A(52,61,62)           123.1415                                         !
 ! D1    D(14,1,2,3)          -178.9069                                         !
 ! D2    D(14,1,2,5)            57.9285                                         !
 ! D3    D(14,1,2,9)           -61.902                                          !
 ! D4    D(15,1,2,3)           -55.1838                                         !
 ! D5    D(15,1,2,5)          -178.3484                                         !
 ! D6    D(15,1,2,9)            61.8211                                         !
 ! D7    D(1,2,3,4)            129.5325                                         !
 ! D8    D(1,2,3,16)           -54.615                                          !
 ! D9    D(5,2,3,4)           -107.7788                                         !
 ! D10   D(5,2,3,16)            68.0737                                         !
 ! D11   D(9,2,3,4)             11.9423                                         !
 ! D12   D(9,2,3,16)          -172.2052                                         !
 ! D13   D(1,2,5,6)            -61.8023                                         !
 ! D14   D(1,2,5,10)            58.7846                                         !
 ! D15   D(1,2,5,11)           174.8915                                         !
 ! D16   D(3,2,5,6)            172.4659                                         !
 ! D17   D(3,2,5,10)           -66.9472                                         !
 ! D18   D(3,2,5,11)            49.1597                                         !
 ! D19   D(9,2,5,6)             55.6876                                         !
 ! D20   D(9,2,5,10)           176.2745                                         !
 ! D21   D(9,2,5,11)           -67.6186                                         !
 ! D22   D(2,3,16,17)         -157.9808                                         !
 ! D23   D(2,3,16,27)            4.314                                          !
 ! D24   D(4,3,16,17)           17.6904                                         !
 ! D25   D(4,3,16,27)          179.9851                                         !
 ! D26   D(2,5,6,7)           -157.3004                                         !
 ! D27   D(2,5,6,8)             23.9336                                         !
 ! D28   D(10,5,6,7)            81.2954                                         !
 ! D29   D(10,5,6,8)           -97.4707                                         !
 ! D30   D(11,5,6,7)           -35.3172                                         !
 ! D31   D(11,5,6,8)           145.9167                                         !
 ! D32   D(5,6,7,12)          -176.4401                                         !
 ! D33   D(5,6,7,13)             1.1561                                         !
 ! D34   D(8,6,7,12)             2.3091                                         !
 ! D35   D(8,6,7,13)           179.9052                                         !
 ! D36   D(3,16,17,18)        -126.1589                                         !
 ! D37   D(3,16,17,20)         109.091                                          !
 ! D38   D(3,16,17,28)          -9.9955                                         !
 ! D39   D(27,16,17,18)         71.2727                                         !
 ! D40   D(27,16,17,20)        -53.4774                                         !
 ! D41   D(27,16,17,28)       -172.5639                                         !
 ! D42   D(16,17,18,19)       -131.5576                                         !
 ! D43   D(16,17,18,36)         49.9807                                         !
 ! D44   D(20,17,18,19)         -6.7992                                         !
 ! D45   D(20,17,18,36)        174.7391                                         !
 ! D46   D(28,17,18,19)        112.9215                                         !
 ! D47   D(28,17,18,36)        -65.5402                                         !
 ! D48   D(16,17,20,21)        -49.4525                                         !
 ! D49   D(16,17,20,29)         72.2033                                         !
 ! D50   D(16,17,20,30)       -173.1266                                         !
 ! D51   D(18,17,20,21)       -175.4146                                         !
 ! D52   D(18,17,20,29)        -53.7587                                         !
 ! D53   D(18,17,20,30)         60.9113                                         !
 ! D54   D(28,17,20,21)         66.9109                                         !
 ! D55   D(28,17,20,29)       -171.4332                                         !
 ! D56   D(28,17,20,30)        -56.7631                                         !
 ! D57   D(17,18,36,37)        -12.4699                                         !
 ! D58   D(17,18,36,44)       -178.7236                                         !
 ! D59   D(19,18,36,37)        169.0488                                         !
 ! D60   D(19,18,36,44)          2.7951                                         !
 ! D61   D(17,20,21,22)        -58.1246                                         !
 ! D62   D(17,20,21,23)        122.1552                                         !
 ! D63   D(29,20,21,22)       -179.4389                                         !
 ! D64   D(29,20,21,23)          0.8409                                         !
 ! D65   D(30,20,21,22)         63.8939                                         !
 ! D66   D(30,20,21,23)       -115.8263                                         !
 ! D67   D(20,21,22,24)       -179.4637                                         !
 ! D68   D(20,21,22,31)          0.8386                                         !
 ! D69   D(23,21,22,24)          0.261                                          !
 ! D70   D(23,21,22,31)       -179.4367                                         !
 ! D71   D(20,21,23,25)        179.0495                                         !
 ! D72   D(20,21,23,32)         -0.4893                                         !
 ! D73   D(22,21,23,25)         -0.6788                                         !
 ! D74   D(22,21,23,32)        179.7823                                         !
 ! D75   D(21,22,24,26)          0.2881                                         !
 ! D76   D(21,22,24,33)        179.5524                                         !
 ! D77   D(31,22,24,26)        179.988                                          !
 ! D78   D(31,22,24,33)         -0.7477                                         !
 ! D79   D(21,23,25,26)          0.5469                                         !
 ! D80   D(21,23,25,34)       -178.6064                                         !
 ! D81   D(32,23,25,26)       -179.914                                          !
 ! D82   D(32,23,25,34)          0.9327                                         !
 ! D83   D(22,24,26,25)         -0.4267                                         !
 ! D84   D(22,24,26,35)        178.0583                                         !
 ! D85   D(33,24,26,25)       -179.6876                                         !
 ! D86   D(33,24,26,35)         -1.2026                                         !
 ! D87   D(23,25,26,24)          0.0142                                         !
 ! D88   D(23,25,26,35)       -178.4656                                         !
 ! D89   D(34,25,26,24)        179.1617                                         !
 ! D90   D(34,25,26,35)          0.6818                                         !
 ! D91   D(18,36,37,38)        -72.8052                                         !
 ! D92   D(18,36,37,40)        164.8721                                         !
 ! D93   D(18,36,37,45)         46.0723                                         !
 ! D94   D(44,36,37,38)         93.5587                                         !
 ! D95   D(44,36,37,40)        -28.764                                          !
 ! D96   D(44,36,37,45)       -147.5638                                         !
 ! D97   D(36,37,38,39)        160.4522                                         !
 ! D98   D(36,37,38,50)        -21.5797                                         !
 ! D99   D(40,37,38,39)        -76.9188                                         !
 ! D100  D(40,37,38,50)        101.0493                                         !
 ! D101  D(45,37,38,39)         38.9917                                         !
 ! D102  D(45,37,38,50)       -143.0401                                         !
 ! D103  D(36,37,40,41)         60.6355                                         !
 ! D104  D(36,37,40,46)        -59.1519                                         !
 ! D105  D(36,37,40,47)       -175.8571                                         !
 ! D106  D(38,37,40,41)        -64.7318                                         !
 ! D107  D(38,37,40,46)        175.4808                                         !
 ! D108  D(38,37,40,47)         58.7756                                         !
 ! D109  D(45,37,40,41)       -179.1501                                         !
 ! D110  D(45,37,40,46)         61.0626                                         !
 ! D111  D(45,37,40,47)        -55.6426                                         !
 ! D112  D(37,38,50,51)        173.0508                                         !
 ! D113  D(37,38,50,63)          0.6325                                         !
 ! D114  D(39,38,50,51)         -9.1174                                         !
 ! D115  D(39,38,50,63)        178.4643                                         !
 ! D116  D(37,40,41,42)        141.6248                                         !
 ! D117  D(37,40,41,43)        -38.8063                                         !
 ! D118  D(46,40,41,42)        -97.9316                                         !
 ! D119  D(46,40,41,43)         81.6373                                         !
 ! D120  D(47,40,41,42)         20.0172                                         !
 ! D121  D(47,40,41,43)       -160.414                                          !
 ! D122  D(40,41,42,48)        174.6733                                         !
 ! D123  D(40,41,42,49)          0.7556                                         !
 ! D124  D(43,41,42,48)         -4.8956                                         !
 ! D125  D(43,41,42,49)       -178.8133                                         !
 ! D126  D(38,50,51,52)       -107.5697                                         !
 ! D127  D(38,50,51,54)        121.5157                                         !
 ! D128  D(38,50,51,64)          4.6556                                         !
 ! D129  D(63,50,51,52)         64.7395                                         !
 ! D130  D(63,50,51,54)        -66.175                                          !
 ! D131  D(63,50,51,64)        176.9648                                         !
 ! D132  D(50,51,52,53)       -110.9659                                         !
 ! D133  D(50,51,52,61)         66.0867                                         !
 ! D134  D(54,51,52,53)         17.2727                                         !
 ! D135  D(54,51,52,61)       -165.6747                                         !
 ! D136  D(64,51,52,53)        137.4831                                         !
 ! D137  D(64,51,52,61)        -45.4643                                         !
 ! D138  D(50,51,54,55)         21.4051                                         !
 ! D139  D(50,51,54,65)        147.6347                                         !
 ! D140  D(50,51,54,66)        -98.632                                          !
 ! D141  D(52,51,54,55)       -103.7065                                         !
 ! D142  D(52,51,54,65)         22.5231                                         !
 ! D143  D(52,51,54,66)        136.2564                                         !
 ! D144  D(64,51,54,55)        136.8349                                         !
 ! D145  D(64,51,54,65)        -96.9355                                         !
 ! D146  D(64,51,54,66)         16.7978                                         !
 ! D147  D(51,52,61,62)         25.9619                                         !
 ! D148  D(53,52,61,62)       -157.1465                                         !
 ! D149  D(51,54,55,56)         87.1019                                         !
 ! D150  D(51,54,55,67)       -153.5943                                         !
 ! D151  D(51,54,55,68)        -38.3054                                         !
 ! D152  D(65,54,55,56)        -37.8476                                         !
 ! D153  D(65,54,55,67)         81.4562                                         !
 ! D154  D(65,54,55,68)       -163.2549                                         !
 ! D155  D(66,54,55,56)       -152.9474                                         !
 ! D156  D(66,54,55,67)        -33.6436                                         !
 ! D157  D(66,54,55,68)         81.6453                                         !
 ! D158  D(54,55,56,57)        -46.5937                                         !
 ! D159  D(54,55,56,69)         71.3816                                         !
 ! D160  D(54,55,56,70)       -170.9468                                         !
 ! D161  D(67,55,56,57)       -166.7793                                         !
 ! D162  D(67,55,56,69)        -48.804                                          !
 ! D163  D(67,55,56,70)         68.8676                                         !
 ! D164  D(68,55,56,57)         78.9389                                         !
 ! D165  D(68,55,56,69)       -163.0858                                         !
 ! D166  D(68,55,56,70)        -45.4142                                         !
 ! D167  D(55,56,57,58)        -86.893                                          !
 ! D168  D(55,56,57,71)         66.0217                                         !
 ! D169  D(69,56,57,58)        152.7631                                         !
 ! D170  D(69,56,57,71)        -54.3222                                         !
 ! D171  D(70,56,57,58)         38.2792                                         !
 ! D172  D(70,56,57,71)       -168.8061                                         !
 ! D173  D(56,57,58,59)         -9.6105                                         !
 ! D174  D(56,57,58,60)        172.475                                          !
 ! D175  D(71,57,58,59)       -162.7864                                         !
 ! D176  D(71,57,58,60)         19.2991                                         !
 ! D177  D(57,58,59,72)        170.6101                                         !
 ! D178  D(57,58,59,73)         21.901                                          !
 ! D179  D(60,58,59,72)        -11.4843                                         !
 ! D180  D(60,58,59,73)       -160.1934                                         !
 ! D181  D(57,58,60,74)       -166.1355                                         !
 ! D182  D(57,58,60,75)        -11.8316                                         !
 ! D183  D(59,58,60,74)         15.865                                          !
 ! D184  D(59,58,60,75)        170.1688                                         !
 --------------------------------------------------------------------------------
 Symmetry turned off by external request.
 Stoichiometry    C23H36N9O7(1+)
 Framework group  C1[X(C23H36N9O7)]
 Deg. of freedom   219
 Full point group                 C1      NOp   1
                          Input orientation:                          
 ---------------------------------------------------------------------
 Center     Atomic      Atomic             Coordinates (Angstroms)
 Number     Number       Type             X           Y           Z
 ---------------------------------------------------------------------
      1          7           0       -8.062806    0.447120   -9.730292
      2          6           0       -7.998699    1.271633   -8.477295
      3          6           0       -7.074820    0.696296   -7.391557
      4          8           0       -6.232281    1.417619   -6.871407
      5          6           0       -9.415917    1.438667   -7.918583
      6          6           0      -10.331205    2.175664   -8.891599
      7          7           0      -11.400036    2.775264   -8.328299
      8          8           0      -10.110891    2.193844  -10.107099
      9          1           0       -7.574683    2.238455   -8.752141
     10          1           0       -9.852174    0.454782   -7.709632
     11          1           0       -9.357786    1.960331   -6.959522
     12          1           0      -12.075682    3.234758   -8.924626
     13          1           0      -11.561231    2.746329   -7.330841
     14          1           0       -8.699805    0.963452  -10.366222
     15          1           0       -7.120520    0.289949  -10.121405
     16          7           0       -7.309546   -0.589545   -7.001927
     17          6           0       -6.842181   -1.055554   -5.702461
     18          6           0       -5.982431   -2.325332   -5.797489
     19          8           0       -6.203349   -3.298268   -5.059038
     20          6           0       -8.030521   -1.271106   -4.739076
     21          6           0       -8.980427   -0.091089   -4.685823
     22          6           0       -8.536687    1.189075   -4.320057
     23          6           0      -10.334336   -0.263757   -4.999331
     24          6           0       -9.425013    2.263848   -4.264678
     25          6           0      -11.230891    0.807032   -4.937383
     26          6           0      -10.778282    2.076069   -4.569143
     27          1           0       -8.030621   -1.139614   -7.479879
     28          1           0       -6.189563   -0.261803   -5.322142
     29          1           0       -8.580592   -2.164243   -5.055070
     30          1           0       -7.627998   -1.499440   -3.746397
     31          1           0       -7.489512    1.353007   -4.080697
     32          1           0      -10.695761   -1.247832   -5.288398
     33          1           0       -9.063427    3.245527   -3.972253
     34          1           0      -12.281153    0.642918   -5.163432
     35          1           0      -11.473984    2.908212   -4.494627
     36          7           0       -4.949389   -2.374612   -6.676680
     37          6           0       -4.598413   -1.490174   -7.783160
     38          6           0       -5.526289   -1.619386   -9.013217
     39          8           0       -5.560561   -0.698968   -9.837926
     40          6           0       -3.143392   -1.767157   -8.222238
     41          6           0       -2.928218   -3.203802   -8.705619
     42          7           0       -2.103309   -3.360925   -9.758627
     43          8           0       -3.476292   -4.169687   -8.153316
     44          1           0       -4.446404   -3.258888   -6.688418
     45          1           0       -4.664624   -0.445353   -7.470229
     46          1           0       -2.475306   -1.596669   -7.369222
     47          1           0       -2.882878   -1.043086   -8.999185
     48          1           0       -1.869373   -4.298831  -10.058560
     49          1           0       -1.636993   -2.585234  -10.206603
     50          7           0       -6.212572   -2.772764   -9.115556
     51          6           0       -7.251491   -3.071377  -10.102296
     52          6           0       -8.622439   -3.062934   -9.329293
     53          8           0       -9.255497   -4.123494   -9.156591
     54          6           0       -6.921301   -4.316046  -10.978632
     55          6           0       -5.902133   -5.349334  -10.440722
     56          6           0       -6.486728   -6.455526   -9.544638
     57          7           0       -7.396471   -5.946504   -8.521704
     58          6           0       -7.077869   -5.500295   -7.307351
     59          7           0       -5.844457   -5.635008   -6.780139
     60          7           0       -8.042491   -4.927867   -6.563026
     61          8           0       -8.963141   -1.922221   -8.870813
     62          1           0       -8.464444   -0.518591   -9.520393
     63          1           0       -6.065217   -3.442503   -8.374226
     64          1           0       -7.272898   -2.201914  -10.763196
     65          1           0       -7.867561   -4.808039  -11.230812
     66          1           0       -6.513127   -3.933741  -11.919438
     67          1           0       -5.441426   -5.853352  -11.298594
     68          1           0       -5.085761   -4.838976   -9.919643
     69          1           0       -7.077939   -7.150208  -10.149106
     70          1           0       -5.695104   -7.049054   -9.076019
     71          1           0       -8.267235   -5.531913   -8.892910
     72          1           0       -5.664123   -5.133276   -5.912668
     73          1           0       -5.045934   -5.774019   -7.385529
     74          1           0       -7.768178   -4.400438   -5.739622
     75          1           0       -8.918748   -4.694808   -7.020903
 ---------------------------------------------------------------------
 Rotational constants (GHZ):           0.1525968           0.0712629           0.0695853
 Standard basis: 6-31G(d) (6D, 7F)
   657 basis functions,  1236 primitive gaussians,   657 cartesian basis functions
   146 alpha electrons      146 beta electrons
       nuclear repulsion energy      5210.6681155945 Hartrees.
 NAtoms=   75 NActive=   75 NUniq=   75 SFac= 1.00D+00 NAtFMM=   60 NAOKFM=T Big=T
 Integral buffers will be    131072 words long.
 Raffenetti 2 integral format.
 Two-electron integral symmetry is turned off.
 Nuclear repulsion after empirical dispersion term =     5210.5382548387 Hartrees.
 One-electron integrals computed using PRISM.
 NBasis=   657 RedAO= T EigKep=  4.64D-04  NBF=   657
 NBsUse=   657 1.00D-06 EigRej= -1.00D+00 NBFU=   657
 Initial guess from the checkpoint file:  "conf-95.chk"
 B after Tr=     0.000000    0.000000    0.000000
         Rot=    1.000000    0.000000    0.000000    0.000000 Ang=   0.00 deg.
 Requested convergence on RMS density matrix=1.00D-08 within 128 cycles.
 Requested convergence on MAX density matrix=1.00D-06.
 Requested convergence on             energy=1.00D-06.
 No special actions if energy rises.
 SCF Done:  E(RB3LYP) =  -1917.54512182     A.U. after    1 cycles
            NFock=  1  Conv=0.70D-08     -V/T= 2.0093

 **********************************************************************

            Population analysis using the SCF Density.

 **********************************************************************

 Alpha  occ. eigenvalues --  -19.24944 -19.24433 -19.23853 -19.22918 -19.22501
 Alpha  occ. eigenvalues --  -19.21356 -19.21161 -14.51571 -14.48710 -14.48366
 Alpha  occ. eigenvalues --  -14.48288 -14.47957 -14.47647 -14.47608 -14.46634
 Alpha  occ. eigenvalues --  -14.46120 -10.44640 -10.42550 -10.41512 -10.41023
 Alpha  occ. eigenvalues --  -10.40214 -10.40070 -10.39220 -10.36115 -10.36114
 Alpha  occ. eigenvalues --  -10.34680 -10.33766 -10.33733 -10.32740 -10.30852
 Alpha  occ. eigenvalues --  -10.29422 -10.29420 -10.29305 -10.29229 -10.28370
 Alpha  occ. eigenvalues --  -10.28300 -10.28234 -10.28181 -10.28108  -1.16684
 Alpha  occ. eigenvalues --   -1.16081  -1.15611  -1.14913  -1.14509  -1.14094
 Alpha  occ. eigenvalues --   -1.13252  -1.07877  -1.05974  -1.05427  -1.03930
 Alpha  occ. eigenvalues --   -1.03488  -1.03121  -1.02728  -1.01238  -1.01080
 Alpha  occ. eigenvalues --   -0.94906  -0.91057  -0.90157  -0.89697  -0.88204
 Alpha  occ. eigenvalues --   -0.85366  -0.83919  -0.83578  -0.80559  -0.79054
 Alpha  occ. eigenvalues --   -0.78537  -0.76623  -0.75060  -0.72820  -0.71354
 Alpha  occ. eigenvalues --   -0.71028  -0.70469  -0.70324  -0.69842  -0.69554
 Alpha  occ. eigenvalues --   -0.69065  -0.68793  -0.67209  -0.66816  -0.66342
 Alpha  occ. eigenvalues --   -0.66272  -0.65328  -0.63870  -0.63562  -0.62652
 Alpha  occ. eigenvalues --   -0.62011  -0.61302  -0.61247  -0.60569  -0.59865
 Alpha  occ. eigenvalues --   -0.58992  -0.58662  -0.58397  -0.58147  -0.57662
 Alpha  occ. eigenvalues --   -0.56840  -0.56515  -0.56402  -0.55314  -0.55023
 Alpha  occ. eigenvalues --   -0.54945  -0.54516  -0.54144  -0.53948  -0.53099
 Alpha  occ. eigenvalues --   -0.52904  -0.52681  -0.52338  -0.52162  -0.51651
 Alpha  occ. eigenvalues --   -0.51387  -0.51064  -0.50772  -0.50572  -0.49832
 Alpha  occ. eigenvalues --   -0.49641  -0.49444  -0.49003  -0.48509  -0.47878
 Alpha  occ. eigenvalues --   -0.47758  -0.46785  -0.46586  -0.46106  -0.44779
 Alpha  occ. eigenvalues --   -0.44544  -0.44390  -0.43304  -0.43006  -0.41005
 Alpha  occ. eigenvalues --   -0.40058  -0.39720  -0.39239  -0.39016  -0.38763
 Alpha  occ. eigenvalues --   -0.37502  -0.37363  -0.37291  -0.37014  -0.36317
 Alpha  occ. eigenvalues --   -0.36270  -0.35752  -0.35231  -0.34329  -0.34278
 Alpha  occ. eigenvalues --   -0.33866
 Alpha virt. eigenvalues --   -0.11690  -0.10851  -0.10770  -0.09957  -0.09797
 Alpha virt. eigenvalues --   -0.09552  -0.09362  -0.07482  -0.07064  -0.04396
 Alpha virt. eigenvalues --   -0.03333  -0.01966  -0.01726  -0.00885  -0.00335
 Alpha virt. eigenvalues --    0.00497   0.01136   0.01314   0.01665   0.01978
 Alpha virt. eigenvalues --    0.02092   0.02932   0.03096   0.03415   0.03584
 Alpha virt. eigenvalues --    0.04297   0.04574   0.04897   0.04986   0.05301
 Alpha virt. eigenvalues --    0.05560   0.05968   0.06158   0.06600   0.06708
 Alpha virt. eigenvalues --    0.07056   0.07368   0.07772   0.07894   0.08013
 Alpha virt. eigenvalues --    0.08443   0.08634   0.09247   0.09421   0.09979
 Alpha virt. eigenvalues --    0.10191   0.10476   0.10933   0.11682   0.12096
 Alpha virt. eigenvalues --    0.12665   0.12829   0.13173   0.13681   0.14135
 Alpha virt. eigenvalues --    0.14443   0.14664   0.15242   0.15467   0.16297
 Alpha virt. eigenvalues --    0.16693   0.17485   0.17738   0.18275   0.20207
 Alpha virt. eigenvalues --    0.21459   0.21772   0.22978   0.23373   0.23498
 Alpha virt. eigenvalues --    0.24186   0.24472   0.24955   0.26211   0.26657
 Alpha virt. eigenvalues --    0.27314   0.28944   0.29323   0.29801   0.31011
 Alpha virt. eigenvalues --    0.31948   0.32652   0.33390   0.36423   0.36806
 Alpha virt. eigenvalues --    0.37443   0.38086   0.39280   0.39376   0.39816
 Alpha virt. eigenvalues --    0.40741   0.41407   0.42117   0.42727   0.43194
 Alpha virt. eigenvalues --    0.43959   0.44345   0.44883   0.45177   0.46055
 Alpha virt. eigenvalues --    0.46372   0.46520   0.46678   0.46948   0.47357
 Alpha virt. eigenvalues --    0.47588   0.48191   0.48738   0.49173   0.49552
 Alpha virt. eigenvalues --    0.49881   0.50259   0.51294   0.51374   0.51647
 Alpha virt. eigenvalues --    0.52057   0.52427   0.52763   0.53041   0.53170
 Alpha virt. eigenvalues --    0.53484   0.53646   0.54273   0.54460   0.54709
 Alpha virt. eigenvalues --    0.55284   0.55358   0.55699   0.55923   0.56046
 Alpha virt. eigenvalues --    0.56566   0.56730   0.57726   0.57873   0.58455
 Alpha virt. eigenvalues --    0.59089   0.59592   0.60303   0.60945   0.61431
 Alpha virt. eigenvalues --    0.62561   0.62762   0.63261   0.64056   0.64480
 Alpha virt. eigenvalues --    0.64668   0.65995   0.66077   0.66712   0.67522
 Alpha virt. eigenvalues --    0.68201   0.69352   0.69824   0.70116   0.70838
 Alpha virt. eigenvalues --    0.71383   0.71851   0.71908   0.72507   0.72994
 Alpha virt. eigenvalues --    0.73790   0.73874   0.74490   0.74579   0.74888
 Alpha virt. eigenvalues --    0.75164   0.75616   0.75797   0.76159   0.76412
 Alpha virt. eigenvalues --    0.76869   0.77310   0.77516   0.77782   0.78374
 Alpha virt. eigenvalues --    0.78703   0.78805   0.79783   0.80609   0.81079
 Alpha virt. eigenvalues --    0.81369   0.81863   0.82028   0.82336   0.82859
 Alpha virt. eigenvalues --    0.83282   0.83414   0.83525   0.84185   0.84614
 Alpha virt. eigenvalues --    0.85015   0.85159   0.85693   0.85906   0.86679
 Alpha virt. eigenvalues --    0.87504   0.87979   0.88833   0.89338   0.90334
 Alpha virt. eigenvalues --    0.90594   0.91158   0.92342   0.92504   0.93644
 Alpha virt. eigenvalues --    0.94357   0.94717   0.96018   0.96140   0.96720
 Alpha virt. eigenvalues --    0.97398   0.98329   0.99194   1.00006   1.00802
 Alpha virt. eigenvalues --    1.01366   1.01434   1.01888   1.02446   1.03453
 Alpha virt. eigenvalues --    1.04417   1.05174   1.05842   1.07218   1.07389
 Alpha virt. eigenvalues --    1.08206   1.08964   1.09235   1.09680   1.10204
 Alpha virt. eigenvalues --    1.10897   1.11455   1.12564   1.12920   1.14069
 Alpha virt. eigenvalues --    1.14497   1.14983   1.15645   1.16410   1.17086
 Alpha virt. eigenvalues --    1.17661   1.17896   1.18242   1.19304   1.19728
 Alpha virt. eigenvalues --    1.20147   1.21724   1.22760   1.23759   1.24814
 Alpha virt. eigenvalues --    1.25672   1.25971   1.26505   1.27883   1.28594
 Alpha virt. eigenvalues --    1.29129   1.29256   1.30374   1.31284   1.32378
 Alpha virt. eigenvalues --    1.33326   1.33581   1.34088   1.34628   1.34793
 Alpha virt. eigenvalues --    1.35791   1.36757   1.37605   1.38379   1.38558
 Alpha virt. eigenvalues --    1.38969   1.39191   1.39588   1.40606   1.40996
 Alpha virt. eigenvalues --    1.42054   1.42439   1.42710   1.44645   1.45537
 Alpha virt. eigenvalues --    1.46390   1.48023   1.48951   1.49073   1.51027
 Alpha virt. eigenvalues --    1.52816   1.53697   1.53841   1.54228   1.55889
 Alpha virt. eigenvalues --    1.56048   1.56523   1.57185   1.58199   1.58691
 Alpha virt. eigenvalues --    1.60624   1.61387   1.61877   1.62543   1.62786
 Alpha virt. eigenvalues --    1.63141   1.64206   1.64602   1.65777   1.65797
 Alpha virt. eigenvalues --    1.66449   1.67240   1.67779   1.69333   1.69733
 Alpha virt. eigenvalues --    1.69959   1.70451   1.71155   1.71381   1.71906
 Alpha virt. eigenvalues --    1.72418   1.72896   1.73749   1.74040   1.74722
 Alpha virt. eigenvalues --    1.75022   1.75322   1.76037   1.76857   1.77305
 Alpha virt. eigenvalues --    1.77827   1.78231   1.78908   1.79337   1.79623
 Alpha virt. eigenvalues --    1.80174   1.80674   1.81231   1.81702   1.82665
 Alpha virt. eigenvalues --    1.83016   1.83283   1.83800   1.84444   1.84913
 Alpha virt. eigenvalues --    1.85385   1.85706   1.86996   1.88082   1.88510
 Alpha virt. eigenvalues --    1.89151   1.89572   1.90035   1.90327   1.91472
 Alpha virt. eigenvalues --    1.92312   1.93123   1.93371   1.93806   1.94588
 Alpha virt. eigenvalues --    1.95248   1.96283   1.96901   1.97651   1.98395
 Alpha virt. eigenvalues --    1.99247   1.99880   2.00426   2.01324   2.01684
 Alpha virt. eigenvalues --    2.02109   2.02537   2.03917   2.04508   2.05139
 Alpha virt. eigenvalues --    2.05517   2.06374   2.07387   2.08435   2.09505
 Alpha virt. eigenvalues --    2.10387   2.11112   2.11750   2.12150   2.13810
 Alpha virt. eigenvalues --    2.14590   2.14778   2.16057   2.16366   2.17657
 Alpha virt. eigenvalues --    2.18605   2.19057   2.19560   2.19978   2.20632
 Alpha virt. eigenvalues --    2.22460   2.22876   2.23063   2.23831   2.25135
 Alpha virt. eigenvalues --    2.26534   2.26873   2.27848   2.28433   2.28815
 Alpha virt. eigenvalues --    2.30583   2.31059   2.31411   2.32463   2.32522
 Alpha virt. eigenvalues --    2.34274   2.34980   2.36047   2.37540   2.38067
 Alpha virt. eigenvalues --    2.39316   2.39886   2.40353   2.41207   2.41722
 Alpha virt. eigenvalues --    2.44304   2.45237   2.45572   2.46967   2.47872
 Alpha virt. eigenvalues --    2.48715   2.49710   2.50132   2.50711   2.51066
 Alpha virt. eigenvalues --    2.51422   2.52210   2.52636   2.53785   2.54775
 Alpha virt. eigenvalues --    2.55362   2.55816   2.56508   2.56702   2.58150
 Alpha virt. eigenvalues --    2.58992   2.59966   2.60872   2.62646   2.63150
 Alpha virt. eigenvalues --    2.63701   2.64565   2.65790   2.66616   2.67166
 Alpha virt. eigenvalues --    2.67831   2.69835   2.72062   2.73050   2.76330
 Alpha virt. eigenvalues --    2.77401   2.81069   2.83788   2.85112   2.88352
 Alpha virt. eigenvalues --    2.88631   2.89739   2.90320   2.90650   2.91140
 Alpha virt. eigenvalues --    2.91822   2.93266   2.93994   2.96562   2.98339
 Alpha virt. eigenvalues --    2.98712   2.99156   3.03565   3.04061   3.05566
 Alpha virt. eigenvalues --    3.09668   3.31512   3.68460   3.73478   3.75180
 Alpha virt. eigenvalues --    3.80129   3.81812   3.86727   3.90203   3.95794
 Alpha virt. eigenvalues --    3.97259   3.98364   4.00222   4.01738   4.05108
 Alpha virt. eigenvalues --    4.06195   4.08013   4.09835   4.12182   4.12646
 Alpha virt. eigenvalues --    4.14143   4.16690   4.20973   4.22031   4.23678
 Alpha virt. eigenvalues --    4.28191   4.29462   4.31238   4.32336   4.35225
 Alpha virt. eigenvalues --    4.38040   4.39379   4.40329   4.42820   4.48669
 Alpha virt. eigenvalues --    4.51271   4.55090   4.58942   4.62530   4.65041
 Alpha virt. eigenvalues --    4.67976
          Condensed to atoms (all electrons):
 Mulliken charges:
               1
     1  N   -0.813864
     2  C   -0.109826
     3  C    0.630489
     4  O   -0.514597
     5  C   -0.415298
     6  C    0.637876
     7  N   -0.741685
     8  O   -0.534142
     9  H    0.217049
    10  H    0.218834
    11  H    0.212170
    12  H    0.365980
    13  H    0.357690
    14  H    0.418537
    15  H    0.427493
    16  N   -0.651775
    17  C   -0.081101
    18  C    0.625741
    19  O   -0.555555
    20  C   -0.356187
    21  C    0.173379
    22  C   -0.178917
    23  C   -0.197425
    24  C   -0.138158
    25  C   -0.136767
    26  C   -0.159131
    27  H    0.389987
    28  H    0.220025
    29  H    0.144275
    30  H    0.194904
    31  H    0.152266
    32  H    0.143453
    33  H    0.158246
    34  H    0.152058
    35  H    0.150122
    36  N   -0.632060
    37  C   -0.060576
    38  C    0.642026
    39  O   -0.583258
    40  C   -0.395677
    41  C    0.626572
    42  N   -0.725827
    43  O   -0.560807
    44  H    0.370087
    45  H    0.221307
    46  H    0.217624
    47  H    0.197592
    48  H    0.366335
    49  H    0.367950
    50  N   -0.605629
    51  C   -0.058894
    52  C    0.602503
    53  O   -0.553176
    54  C   -0.301236
    55  C   -0.301993
    56  C   -0.178529
    57  N   -0.592221
    58  C    0.718732
    59  N   -0.767628
    60  N   -0.780940
    61  O   -0.604539
    62  H    0.430467
    63  H    0.361210
    64  H    0.169719
    65  H    0.177865
    66  H    0.166092
    67  H    0.166730
    68  H    0.165434
    69  H    0.193997
    70  H    0.174144
    71  H    0.403624
    72  H    0.385819
    73  H    0.386742
    74  H    0.398302
    75  H    0.385972
 Sum of Mulliken charges =   1.00000
 Mulliken charges with hydrogens summed into heavy atoms:
               1
     1  N    0.462632
     2  C    0.107223
     3  C    0.630489
     4  O   -0.514597
     5  C    0.015706
     6  C    0.637876
     7  N   -0.018015
     8  O   -0.534142
    16  N   -0.261789
    17  C    0.138925
    18  C    0.625741
    19  O   -0.555555
    20  C   -0.017007
    21  C    0.173379
    22  C   -0.026651
    23  C   -0.053972
    24  C    0.020089
    25  C    0.015291
    26  C   -0.009009
    36  N   -0.261974
    37  C    0.160731
    38  C    0.642026
    39  O   -0.583258
    40  C    0.019539
    41  C    0.626572
    42  N    0.008458
    43  O   -0.560807
    50  N   -0.244419
    51  C    0.110825
    52  C    0.602503
    53  O   -0.553176
    54  C    0.042720
    55  C    0.030171
    56  C    0.189612
    57  N   -0.188598
    58  C    0.718732
    59  N    0.004934
    60  N    0.003334
    61  O   -0.604539
 Electronic spatial extent (au):  <R**2>=         137626.7342
 Charge=              1.0000 electrons
 Dipole moment (field-independent basis, Debye):
    X=            -30.4639    Y=             -9.2254    Z=            -39.7088  Tot=             50.8915
 Quadrupole moment (field-independent basis, Debye-Ang):
   XX=             33.5731   YY=           -154.8504   ZZ=            121.3257
   XY=             13.8105   XZ=            226.5625   YZ=             96.1203
 Traceless Quadrupole moment (field-independent basis, Debye-Ang):
   XX=             33.5570   YY=           -154.8665   ZZ=            121.3095
   XY=             13.8105   XZ=            226.5625   YZ=             96.1203
 Octapole moment (field-independent basis, Debye-Ang**2):
  XXX=           2406.0118  YYY=            786.3603  ZZZ=           2002.7429  XYY=           1210.7599
  XXY=            608.1242  XXZ=            -68.0409  XZZ=           -130.1101  YZZ=           -629.5187
  YYZ=           1089.5090  XYZ=           -223.0380
 Hexadecapole moment (field-independent basis, Debye-Ang**3):
 XXXX=         -52425.8745 YYYY=         -11187.9326 ZZZZ=         -54561.4734 XXXY=         -10954.8968
 XXXZ=         -20188.9854 YYYX=          -4382.3819 YYYZ=          -6416.0728 ZZZX=         -22132.8105
 ZZZY=            845.0786 XXYY=         -12182.5134 XXZZ=         -14546.7755 YYZZ=         -10345.8646
 XXYZ=          -4363.9079 YYXZ=          -8665.8775 ZZXY=            946.0867
 N-N= 5.210538254839D+03 E-N=-1.486013375925D+04  KE= 1.899812207895D+03
 Unable to Open any file for archive entry.
 1\1\GINC-VIM-001\SP\RB3LYP\6-31G(d)\C23H36N9O7(1+)\KENGMITH\03-Jun-202
 2\0\\# B3LYP/6-31G* empiricaldispersion=gd3 guess=read geom=check nosy
 mm integral(ultrafinegrid)\\Candidate Structure: Conf:95 Charge calc i
 n gas phase\\1,1\N,0,-8.062805556,0.4471200783,-9.7302924362\C,0,-7.99
 86988494,1.2716329976,-8.4772945019\C,0,-7.074819723,0.6962957099,-7.3
 915574229\O,0,-6.2322807872,1.4176187964,-6.8714070101\C,0,-9.41591655
 98,1.4386672988,-7.9185831656\C,0,-10.3312046485,2.1756636329,-8.89159
 89146\N,0,-11.4000362066,2.7752641896,-8.3282989153\O,0,-10.1108913418
 ,2.1938440078,-10.107099072\H,0,-7.5746833123,2.238454918,-8.752140653
 2\H,0,-9.8521735301,0.4547822452,-7.7096315467\H,0,-9.3577861787,1.960
 3312951,-6.959522072\H,0,-12.0756819507,3.2347581241,-8.9246262399\H,0
 ,-11.5612308316,2.7463289015,-7.3308405754\H,0,-8.6998050642,0.9634522
 637,-10.3662219306\H,0,-7.1205203041,0.2899489297,-10.1214054068\N,0,-
 7.3095461758,-0.5895446475,-7.0019266862\C,0,-6.8421808344,-1.05555394
 14,-5.7024605108\C,0,-5.9824309095,-2.3253321552,-5.7974890764\O,0,-6.
 2033488275,-3.2982683593,-5.0590380733\C,0,-8.0305208236,-1.2711056476
 ,-4.7390756467\C,0,-8.9804271793,-0.0910890979,-4.6858233891\C,0,-8.53
 6686672,1.1890750852,-4.3200573981\C,0,-10.3343361831,-0.2637571181,-4
 .9993311633\C,0,-9.4250132995,2.2638475238,-4.2646775413\C,0,-11.23089
 13435,0.8070321682,-4.9373833743\C,0,-10.7782817498,2.076068983,-4.569
 1427515\H,0,-8.0306208301,-1.1396135579,-7.479878859\H,0,-6.1895633077
 ,-0.2618033436,-5.322142051\H,0,-8.5805919693,-2.1642429802,-5.0550700
 79\H,0,-7.6279980251,-1.4994395196,-3.7463966505\H,0,-7.4895121608,1.3
 53007243,-4.0806970306\H,0,-10.6957607241,-1.2478324846,-5.2883977608\
 H,0,-9.0634274355,3.2455269106,-3.9722525454\H,0,-12.2811532825,0.6429
 176266,-5.1634322823\H,0,-11.4739839569,2.9082122103,-4.4946266916\N,0
 ,-4.9493890895,-2.3746121216,-6.6766797764\C,0,-4.5984125051,-1.490173
 9621,-7.7831603605\C,0,-5.526289449,-1.6193862934,-9.0132171259\O,0,-5
 .5605609835,-0.6989684447,-9.8379255329\C,0,-3.1433919573,-1.767156763
 2,-8.2222381283\C,0,-2.9282184473,-3.2038022007,-8.7056188052\N,0,-2.1
 03308827,-3.3609245254,-9.7586274313\O,0,-3.4762924975,-4.1696870246,-
 8.1533156148\H,0,-4.446403579,-3.2588880093,-6.6884177794\H,0,-4.66462
 42822,-0.4453529067,-7.4702290489\H,0,-2.4753059156,-1.5966693289,-7.3
 69222427\H,0,-2.8828778467,-1.0430861331,-8.9991853692\H,0,-1.86937327
 5,-4.2988307231,-10.0585600405\H,0,-1.6369929464,-2.5852336312,-10.206
 6026662\N,0,-6.2125719636,-2.7727641697,-9.1155563863\C,0,-7.251491007
 6,-3.0713774172,-10.102295884\C,0,-8.622439053,-3.062933802,-9.3292928
 362\O,0,-9.255497131,-4.1234937148,-9.1565913074\C,0,-6.921301157,-4.3
 160458013,-10.9786323799\C,0,-5.9021332406,-5.3493343363,-10.440721752
 9\C,0,-6.4867278087,-6.4555255015,-9.5446383728\N,0,-7.3964705151,-5.9
 465041201,-8.5217041684\C,0,-7.0778685713,-5.5002953754,-7.3073506271\
 N,0,-5.8444567161,-5.6350078912,-6.7801393784\N,0,-8.0424906205,-4.927
 867322,-6.5630258065\O,0,-8.9631412858,-1.9222209756,-8.8708130376\H,0
 ,-8.4644442157,-0.5185907946,-9.5203926586\H,0,-6.065217279,-3.4425030
 309,-8.3742263786\H,0,-7.2728980879,-2.2019141064,-10.7631956355\H,0,-
 7.8675609617,-4.8080385806,-11.230812305\H,0,-6.5131267228,-3.93374092
 8,-11.9194379018\H,0,-5.4414264821,-5.8533515524,-11.2985937654\H,0,-5
 .0857614114,-4.8389759876,-9.9196433758\H,0,-7.077938543,-7.1502083907
 ,-10.1491055532\H,0,-5.6951038885,-7.0490537951,-9.0760194856\H,0,-8.2
 672352693,-5.5319132345,-8.8929099758\H,0,-5.6641225396,-5.1332760427,
 -5.9126683894\H,0,-5.0459342572,-5.7740194482,-7.3855286934\H,0,-7.768
 1777145,-4.4004379668,-5.7396222455\H,0,-8.9187476119,-4.6948077926,-7
 .0209027883\\Version=ES64L-G16RevC.01\HF=-1917.5451218\RMSD=7.021e-09\
 Dipole=1.7456008,-0.5345049,-1.0254847\Quadrupole=24.9487827,-115.1394
 427,90.19066,10.2677452,168.4436887,71.4630991\PG=C01 [X(C23H36N9O7)]\
 \@
 The archive entry for this job was punched.


 IMAGINATION WILL OFTEN CARRY US TO WORLDS THAT NEVER WERE.
 BUT WITHOUT IT, WE GO NOWHERE. -- CARL SAGAN (COSMOS)
 Job cpu time:       0 days  0 hours  3 minutes 17.2 seconds.
 Elapsed time:       0 days  0 hours  0 minutes 50.1 seconds.
 File lengths (MBytes):  RWF=    344 Int=      0 D2E=      0 Chk=     48 Scr=     16
 Normal termination of Gaussian 16 at Fri Jun  3 06:16:45 2022.
