 Entering Gaussian System, Link 0=/opt/software/Gaussian/g16-AVX2-C.01/g16/g16
 Input=charge-conf-60.com
 Output=charge-conf-60.log
 Initial command:
 /opt/software/Gaussian/g16-AVX2-C.01/g16/l1.exe "/mnt/gs18/scratch/users/kengmith/Gau-10049.inp" -scrdir="/mnt/gs18/scratch/users/kengmith/"
 Entering Link 1 = /opt/software/Gaussian/g16-AVX2-C.01/g16/l1.exe PID=     10065.
  
 Copyright (c) 1988-2019, Gaussian, Inc.  All Rights Reserved.
  
 This is part of the Gaussian(R) 16 program.  It is based on
 the Gaussian(R) 09 system (copyright 2009, Gaussian, Inc.),
 the Gaussian(R) 03 system (copyright 2003, Gaussian, Inc.),
 the Gaussian(R) 98 system (copyright 1998, Gaussian, Inc.),
 the Gaussian(R) 94 system (copyright 1995, Gaussian, Inc.),
 the Gaussian 92(TM) system (copyright 1992, Gaussian, Inc.),
 the Gaussian 90(TM) system (copyright 1990, Gaussian, Inc.),
 the Gaussian 88(TM) system (copyright 1988, Gaussian, Inc.),
 the Gaussian 86(TM) system (copyright 1986, Carnegie Mellon
 University), and the Gaussian 82(TM) system (copyright 1983,
 Carnegie Mellon University). Gaussian is a federally registered
 trademark of Gaussian, Inc.
  
 This software contains proprietary and confidential information,
 including trade secrets, belonging to Gaussian, Inc.
  
 This software is provided under written license and may be
 used, copied, transmitted, or stored only in accord with that
 written license.
  
 The following legend is applicable only to US Government
 contracts under FAR:
  
                    RESTRICTED RIGHTS LEGEND
  
 Use, reproduction and disclosure by the US Government is
 subject to restrictions as set forth in subparagraphs (a)
 and (c) of the Commercial Computer Software - Restricted
 Rights clause in FAR 52.227-19.
  
 Gaussian, Inc.
 340 Quinnipiac St., Bldg. 40, Wallingford CT 06492
  
  
 ---------------------------------------------------------------
 Warning -- This program may not be used in any manner that
 competes with the business of Gaussian, Inc. or will provide
 assistance to any competitor of Gaussian, Inc.  The licensee
 of this program is prohibited from giving any competitor of
 Gaussian, Inc. access to this program.  By using this program,
 the user acknowledges that Gaussian, Inc. is engaged in the
 business of creating and licensing software in the field of
 computational chemistry and represents and warrants to the
 licensee that it is not a competitor of Gaussian, Inc. and that
 it will not use this program in any manner prohibited above.
 ---------------------------------------------------------------
  

 Cite this work as:
 Gaussian 16, Revision C.01,
 M. J. Frisch, G. W. Trucks, H. B. Schlegel, G. E. Scuseria, 
 M. A. Robb, J. R. Cheeseman, G. Scalmani, V. Barone, 
 G. A. Petersson, H. Nakatsuji, X. Li, M. Caricato, A. V. Marenich, 
 J. Bloino, B. G. Janesko, R. Gomperts, B. Mennucci, H. P. Hratchian, 
 J. V. Ortiz, A. F. Izmaylov, J. L. Sonnenberg, D. Williams-Young, 
 F. Ding, F. Lipparini, F. Egidi, J. Goings, B. Peng, A. Petrone, 
 T. Henderson, D. Ranasinghe, V. G. Zakrzewski, J. Gao, N. Rega, 
 G. Zheng, W. Liang, M. Hada, M. Ehara, K. Toyota, R. Fukuda, 
 J. Hasegawa, M. Ishida, T. Nakajima, Y. Honda, O. Kitao, H. Nakai, 
 T. Vreven, K. Throssell, J. A. Montgomery, Jr., J. E. Peralta, 
 F. Ogliaro, M. J. Bearpark, J. J. Heyd, E. N. Brothers, K. N. Kudin, 
 V. N. Staroverov, T. A. Keith, R. Kobayashi, J. Normand, 
 K. Raghavachari, A. P. Rendell, J. C. Burant, S. S. Iyengar, 
 J. Tomasi, M. Cossi, J. M. Millam, M. Klene, C. Adamo, R. Cammi, 
 J. W. Ochterski, R. L. Martin, K. Morokuma, O. Farkas, 
 J. B. Foresman, and D. J. Fox, Gaussian, Inc., Wallingford CT, 2019.
 
 ******************************************
 Gaussian 16:  ES64L-G16RevC.01  3-Jul-2019
                 3-Jun-2022 
 ******************************************
 %mem=8gb
 %nproc=4
 Will use up to    4 processors via shared memory.
 %chk=conf-60.chk
 ----------------------------------------------------------------------
 # B3LYP/6-31G* empiricaldispersion=gd3 guess=read geom=check nosymm in
 tegral(ultrafinegrid)
 ----------------------------------------------------------------------
 1/29=2,38=1,172=1/1;
 2/12=2,15=1,40=1/2;
 3/5=1,6=6,7=1,11=2,14=-4,25=1,30=1,74=-5,75=-5,116=-2,124=31/1,2,3;
 4/5=1/1;
 5/5=2,38=6/2;
 6/7=2,8=2,9=2,10=2,28=1/1;
 99/5=1,9=1/99;
 -----------------------------------------------------
 Candidate Structure: Conf:60 Charge calc in gas phase
 -----------------------------------------------------
 Structure from the checkpoint file:  "conf-60.chk"
 Charge =  1 Multiplicity = 1
 Redundant internal coordinates found in file.  (old form).
 N,0,-7.8447836695,-4.5003083462,-8.9897850045
 C,0,-8.9155030494,-4.3925019842,-8.0096696208
 C,0,-8.6248418719,-3.5605350921,-6.7486310975
 O,0,-9.3120454316,-3.6120760233,-5.7326317127
 C,0,-9.4344802916,-5.7809346643,-7.6217585798
 C,0,-10.3218966254,-6.3325828082,-8.7404553902
 N,0,-10.2705563369,-7.6813082924,-8.9214331187
 O,0,-11.0640073441,-5.6077053656,-9.3884633947
 H,0,-9.7488537011,-3.8806166726,-8.5075919129
 H,0,-8.5941990553,-6.4499426918,-7.3950905694
 H,0,-10.0470055716,-5.7008045144,-6.7172536514
 H,0,-10.8569027919,-8.0911847113,-9.6351140556
 H,0,-9.6243918661,-8.2761564442,-8.4266060468
 H,0,-7.7286935756,-3.6578093528,-9.5422998027
 H,0,-6.9573518871,-4.7903985565,-8.5874601612
 N,0,-7.5877202024,-2.6618515217,-6.8522910631
 C,0,-7.0574899303,-2.0031204299,-5.6773436814
 C,0,-7.5072149901,-0.5475268655,-5.4599509003
 O,0,-6.8917278943,0.1573906834,-4.6426355998
 C,0,-5.5060774102,-2.0497851459,-5.6619081926
 C,0,-4.9053219011,-3.3602585768,-6.1282895123
 C,0,-5.4857722536,-4.6003557619,-5.8309674824
 C,0,-3.7394482758,-3.3383999535,-6.9132626027
 C,0,-4.927859243,-5.7828018141,-6.3222909677
 C,0,-3.1780310733,-4.5224089132,-7.4040743213
 C,0,-3.7795227956,-5.7490350369,-7.1173191436
 H,0,-6.9845629087,-2.7612542873,-7.658071057
 H,0,-7.4588518398,-2.5415531493,-4.8087839658
 H,0,-5.1233444628,-1.2509402359,-6.3075415457
 H,0,-5.1781004675,-1.8049413661,-4.6464092783
 H,0,-6.3864679735,-4.6494128886,-5.225278571
 H,0,-3.2542862813,-2.3858447206,-7.1242550701
 H,0,-5.394737545,-6.7341263436,-6.0832304758
 H,0,-2.2728734897,-4.4835707869,-8.0036147123
 H,0,-3.3527707793,-6.6704870438,-7.5014365388
 N,0,-8.5572735511,-0.0021285426,-6.130729716
 C,0,-9.3864774345,-0.4926213293,-7.2313989202
 C,0,-8.6078718131,-0.7383788316,-8.5411071583
 O,0,-9.0508085341,-1.4763787424,-9.4077028305
 C,0,-10.5402070589,0.496942957,-7.5078819762
 C,0,-10.0661525508,1.8691864351,-7.9767003023
 N,0,-10.738647154,2.4200086659,-9.0039124754
 O,0,-9.1100572917,2.4460773744,-7.4351711275
 H,0,-8.6975005467,0.975208287,-5.899814835
 H,0,-9.8445827761,-1.4427814141,-6.9580487878
 H,0,-11.1167732155,0.6370614423,-6.585016989
 H,0,-11.2025294223,0.0300417449,-8.2419732788
 H,0,-10.5117556367,3.3649598544,-9.2869698862
 H,0,-11.5327972469,1.9699584324,-9.4368874735
 N,0,-7.4374704303,-0.0378756206,-8.66321395
 C,0,-6.5370378703,-0.1764859489,-9.7984066769
 C,0,-5.2908497754,-0.8930152918,-9.2584601736
 O,0,-4.2784142183,-0.3585426882,-8.8310337155
 C,0,-6.2507601901,1.1443267113,-10.5775882519
 C,0,-6.6400656302,2.4815998789,-9.9088748341
 C,0,-5.5700609329,3.1196559235,-9.0084885952
 N,0,-5.0196557269,2.2158319787,-7.9956363346
 C,0,-5.4123500331,2.0897955474,-6.7251704101
 N,0,-6.5026087252,2.7152001154,-6.2525551523
 N,0,-4.676556667,1.3471745239,-5.8791815169
 O,0,-5.4779783368,-2.2179697676,-9.2284174124
 H,0,-4.7245052786,-2.6557974136,-8.7667675259
 H,0,-7.1927656742,0.593182412,-7.9154503847
 H,0,-7.0360437919,-0.8819523916,-10.4665962341
 H,0,-5.1933205004,1.1613818658,-10.8675880186
 H,0,-6.8171308141,1.0745146923,-11.5104654263
 H,0,-6.8422788625,3.2094115827,-10.703392539
 H,0,-7.5780455967,2.3698947003,-9.3572651386
 H,0,-4.7201584129,3.4457909818,-9.616714017
 H,0,-5.9625080982,4.0087134836,-8.5063204657
 H,0,-4.417499072,1.4690977842,-8.3446275083
 H,0,-6.7513171674,2.5155290465,-5.2896535007
 H,0,-7.2923806753,2.9176005015,-6.8617788763
 H,0,-5.1689813991,0.8661754921,-5.1240495516
 H,0,-3.8049304812,0.9509430653,-6.2026051622
 Recover connectivity data from disk.
                           ----------------------------
                           !    Current Parameters    !
                           ! (Angstroms and Degrees)  !
 --------------------------                            --------------------------
 ! Name  Definition              Value                                          !
 --------------------------------------------------------------------------------
 ! R1    R(1,2)                  1.4556                                         !
 ! R2    R(1,14)                 1.0142                                         !
 ! R3    R(1,15)                 1.0166                                         !
 ! R4    R(2,3)                  1.5385                                         !
 ! R5    R(2,5)                  1.5322                                         !
 ! R6    R(2,9)                  1.0975                                         !
 ! R7    R(3,4)                  1.2277                                         !
 ! R8    R(3,16)                 1.3762                                         !
 ! R9    R(5,6)                  1.5308                                         !
 ! R10   R(5,10)                 1.0977                                         !
 ! R11   R(5,11)                 1.0953                                         !
 ! R12   R(6,7)                  1.3618                                         !
 ! R13   R(6,8)                  1.2231                                         !
 ! R14   R(7,12)                 1.0105                                         !
 ! R15   R(7,13)                 1.0081                                         !
 ! R16   R(16,17)                1.4476                                         !
 ! R17   R(16,27)                1.0114                                         !
 ! R18   R(17,18)                1.5389                                         !
 ! R19   R(17,20)                1.5522                                         !
 ! R20   R(17,28)                1.0979                                         !
 ! R21   R(18,19)                1.2425                                         !
 ! R22   R(18,36)                1.3602                                         !
 ! R23   R(20,21)                1.5152                                         !
 ! R24   R(20,29)                1.0961                                         !
 ! R25   R(20,30)                1.0949                                         !
 ! R26   R(21,22)                1.4011                                         !
 ! R27   R(21,23)                1.4057                                         !
 ! R28   R(22,24)                1.3967                                         !
 ! R29   R(22,31)                1.0865                                         !
 ! R30   R(23,25)                1.3993                                         !
 ! R31   R(23,32)                1.0896                                         !
 ! R32   R(24,26)                1.3971                                         !
 ! R33   R(24,33)                1.0863                                         !
 ! R34   R(25,26)                1.3959                                         !
 ! R35   R(25,34)                1.0864                                         !
 ! R36   R(26,35)                1.0857                                         !
 ! R37   R(36,37)                1.4627                                         !
 ! R38   R(36,44)                1.014                                          !
 ! R39   R(37,38)                1.5434                                         !
 ! R40   R(37,40)                1.5449                                         !
 ! R41   R(37,45)                1.0897                                         !
 ! R42   R(38,39)                1.2214                                         !
 ! R43   R(38,50)                1.3695                                         !
 ! R44   R(40,41)                1.5256                                         !
 ! R45   R(40,46)                1.0972                                         !
 ! R46   R(40,47)                1.0934                                         !
 ! R47   R(41,42)                1.3457                                         !
 ! R48   R(41,43)                1.241                                          !
 ! R49   R(42,48)                1.0122                                         !
 ! R50   R(42,49)                1.0103                                         !
 ! R51   R(50,51)                1.4556                                         !
 ! R52   R(50,63)                1.0086                                         !
 ! R53   R(51,52)                1.5356                                         !
 ! R54   R(51,54)                1.56                                           !
 ! R55   R(51,64)                1.0923                                         !
 ! R56   R(52,53)                1.222                                          !
 ! R57   R(52,61)                1.3384                                         !
 ! R58   R(54,55)                1.545                                          !
 ! R59   R(54,65)                1.0966                                         !
 ! R60   R(54,66)                1.0936                                         !
 ! R61   R(55,56)                1.5371                                         !
 ! R62   R(55,67)                1.0963                                         !
 ! R63   R(55,68)                1.0939                                         !
 ! R64   R(56,57)                1.4648                                         !
 ! R65   R(56,69)                1.0948                                         !
 ! R66   R(56,70)                1.0939                                         !
 ! R67   R(57,58)                1.3357                                         !
 ! R68   R(57,71)                1.0208                                         !
 ! R69   R(58,59)                1.3428                                         !
 ! R70   R(58,60)                1.3448                                         !
 ! R71   R(59,72)                1.0143                                         !
 ! R72   R(59,73)                1.0178                                         !
 ! R73   R(60,74)                1.0218                                         !
 ! R74   R(60,75)                1.0106                                         !
 ! R75   R(61,62)                0.9862                                         !
 ! A1    A(2,1,14)             112.9242                                         !
 ! A2    A(2,1,15)             113.3765                                         !
 ! A3    A(14,1,15)            110.6536                                         !
 ! A4    A(1,2,3)              116.9368                                         !
 ! A5    A(1,2,5)              110.6418                                         !
 ! A6    A(1,2,9)              106.7153                                         !
 ! A7    A(3,2,5)              110.2744                                         !
 ! A8    A(3,2,9)              105.2551                                         !
 ! A9    A(5,2,9)              106.28                                           !
 ! A10   A(2,3,4)              123.3596                                         !
 ! A11   A(2,3,16)             115.707                                          !
 ! A12   A(4,3,16)             120.7697                                         !
 ! A13   A(2,5,6)              109.749                                          !
 ! A14   A(2,5,10)             110.1981                                         !
 ! A15   A(2,5,11)             109.402                                          !
 ! A16   A(6,5,10)             112.026                                          !
 ! A17   A(6,5,11)             107.798                                          !
 ! A18   A(10,5,11)            107.5858                                         !
 ! A19   A(5,6,7)              115.606                                          !
 ! A20   A(5,6,8)              121.6902                                         !
 ! A21   A(7,6,8)              122.644                                          !
 ! A22   A(6,7,12)             118.2752                                         !
 ! A23   A(6,7,13)             122.9122                                         !
 ! A24   A(12,7,13)            118.6369                                         !
 ! A25   A(3,16,17)            120.7999                                         !
 ! A26   A(3,16,27)            116.4386                                         !
 ! A27   A(17,16,27)           118.2239                                         !
 ! A28   A(16,17,18)           115.978                                          !
 ! A29   A(16,17,20)           111.1301                                         !
 ! A30   A(16,17,28)           106.5609                                         !
 ! A31   A(18,17,20)           108.6097                                         !
 ! A32   A(18,17,28)           104.1983                                         !
 ! A33   A(20,17,28)           110.0461                                         !
 ! A34   A(17,18,19)           118.9988                                         !
 ! A35   A(17,18,36)           122.3584                                         !
 ! A36   A(19,18,36)           118.6427                                         !
 ! A37   A(17,20,21)           114.7863                                         !
 ! A38   A(17,20,29)           108.7372                                         !
 ! A39   A(17,20,30)           107.5721                                         !
 ! A40   A(21,20,29)           108.0945                                         !
 ! A41   A(21,20,30)           111.1084                                         !
 ! A42   A(29,20,30)           106.185                                          !
 ! A43   A(20,21,22)           122.4065                                         !
 ! A44   A(20,21,23)           119.1627                                         !
 ! A45   A(22,21,23)           118.4156                                         !
 ! A46   A(21,22,24)           120.608                                          !
 ! A47   A(21,22,31)           120.1111                                         !
 ! A48   A(24,22,31)           119.2749                                         !
 ! A49   A(21,23,25)           121.0304                                         !
 ! A50   A(21,23,32)           119.4083                                         !
 ! A51   A(25,23,32)           119.5482                                         !
 ! A52   A(22,24,26)           120.533                                          !
 ! A53   A(22,24,33)           119.4909                                         !
 ! A54   A(26,24,33)           119.9761                                         !
 ! A55   A(23,25,26)           119.9072                                         !
 ! A56   A(23,25,34)           119.8418                                         !
 ! A57   A(26,25,34)           120.2505                                         !
 ! A58   A(24,26,25)           119.4919                                         !
 ! A59   A(24,26,35)           120.2582                                         !
 ! A60   A(25,26,35)           120.2474                                         !
 ! A61   A(18,36,37)           132.3974                                         !
 ! A62   A(18,36,44)           112.3922                                         !
 ! A63   A(37,36,44)           114.5927                                         !
 ! A64   A(36,37,38)           113.9513                                         !
 ! A65   A(36,37,40)           110.0732                                         !
 ! A66   A(36,37,45)           109.9958                                         !
 ! A67   A(38,37,40)           109.079                                          !
 ! A68   A(38,37,45)           106.6258                                         !
 ! A69   A(40,37,45)           106.8256                                         !
 ! A70   A(37,38,39)           121.0214                                         !
 ! A71   A(37,38,50)           115.1739                                         !
 ! A72   A(39,38,50)           123.7615                                         !
 ! A73   A(37,40,41)           113.5203                                         !
 ! A74   A(37,40,46)           108.8878                                         !
 ! A75   A(37,40,47)           107.3973                                         !
 ! A76   A(41,40,46)           107.8724                                         !
 ! A77   A(41,40,47)           111.4683                                         !
 ! A78   A(46,40,47)           107.5138                                         !
 ! A79   A(40,41,42)           116.581                                          !
 ! A80   A(40,41,43)           121.5608                                         !
 ! A81   A(42,41,43)           121.8582                                         !
 ! A82   A(41,42,48)           118.9197                                         !
 ! A83   A(41,42,49)           122.5227                                         !
 ! A84   A(48,42,49)           118.179                                          !
 ! A85   A(38,50,51)           123.3341                                         !
 ! A86   A(38,50,63)           117.4704                                         !
 ! A87   A(51,50,63)           119.1899                                         !
 ! A88   A(50,51,52)           105.7976                                         !
 ! A89   A(50,51,54)           114.9884                                         !
 ! A90   A(50,51,64)           104.8315                                         !
 ! A91   A(52,51,54)           114.9469                                         !
 ! A92   A(52,51,64)           106.5274                                         !
 ! A93   A(54,51,64)           108.9724                                         !
 ! A94   A(51,52,53)           126.2465                                         !
 ! A95   A(51,52,61)           110.8763                                         !
 ! A96   A(53,52,61)           122.7472                                         !
 ! A97   A(51,54,55)           118.0609                                         !
 ! A98   A(51,54,65)           108.7965                                         !
 ! A99   A(51,54,66)           106.0803                                         !
 ! A100  A(55,54,65)           110.1191                                         !
 ! A101  A(55,54,66)           107.0961                                         !
 ! A102  A(65,54,66)           105.9506                                         !
 ! A103  A(54,55,56)           115.9391                                         !
 ! A104  A(54,55,67)           107.9038                                         !
 ! A105  A(54,55,68)           110.2391                                         !
 ! A106  A(56,55,67)           106.1016                                         !
 ! A107  A(56,55,68)           110.1154                                         !
 ! A108  A(67,55,68)           105.9675                                         !
 ! A109  A(55,56,57)           114.234                                          !
 ! A110  A(55,56,69)           109.7929                                         !
 ! A111  A(55,56,70)           110.8875                                         !
 ! A112  A(57,56,69)           106.0362                                         !
 ! A113  A(57,56,70)           108.5941                                         !
 ! A114  A(69,56,70)           106.9434                                         !
 ! A115  A(56,57,58)           127.2589                                         !
 ! A116  A(56,57,71)           115.8886                                         !
 ! A117  A(58,57,71)           115.4409                                         !
 ! A118  A(57,58,59)           121.9725                                         !
 ! A119  A(57,58,60)           119.3132                                         !
 ! A120  A(59,58,60)           118.6854                                         !
 ! A121  A(58,59,72)           116.1997                                         !
 ! A122  A(58,59,73)           120.7956                                         !
 ! A123  A(72,59,73)           114.6522                                         !
 ! A124  A(58,60,74)           117.4625                                         !
 ! A125  A(58,60,75)           119.148                                          !
 ! A126  A(74,60,75)           117.878                                          !
 ! A127  A(52,61,62)           110.0707                                         !
 ! D1    D(14,1,2,3)           -75.8474                                         !
 ! D2    D(14,1,2,5)           156.7964                                         !
 ! D3    D(14,1,2,9)            41.5885                                         !
 ! D4    D(15,1,2,3)            51.0236                                         !
 ! D5    D(15,1,2,5)           -76.3326                                         !
 ! D6    D(15,1,2,9)           168.4594                                         !
 ! D7    D(1,2,3,4)           -164.2916                                         !
 ! D8    D(1,2,3,16)            20.3363                                         !
 ! D9    D(5,2,3,4)            -36.7564                                         !
 ! D10   D(5,2,3,16)           147.8715                                         !
 ! D11   D(9,2,3,4)             77.4803                                         !
 ! D12   D(9,2,3,16)           -97.8918                                         !
 ! D13   D(1,2,5,6)            -76.1084                                         !
 ! D14   D(1,2,5,10)            47.7162                                         !
 ! D15   D(1,2,5,11)           165.8079                                         !
 ! D16   D(3,2,5,6)            152.9558                                         !
 ! D17   D(3,2,5,10)           -83.2196                                         !
 ! D18   D(3,2,5,11)            34.8721                                         !
 ! D19   D(9,2,5,6)             39.3717                                         !
 ! D20   D(9,2,5,10)           163.1963                                         !
 ! D21   D(9,2,5,11)           -78.712                                          !
 ! D22   D(2,3,16,17)         -168.5192                                         !
 ! D23   D(2,3,16,27)          -12.8341                                         !
 ! D24   D(4,3,16,17)           15.9792                                         !
 ! D25   D(4,3,16,27)          171.6643                                         !
 ! D26   D(2,5,6,7)            146.1699                                         !
 ! D27   D(2,5,6,8)            -36.573                                          !
 ! D28   D(10,5,6,7)            23.4203                                         !
 ! D29   D(10,5,6,8)          -159.3226                                         !
 ! D30   D(11,5,6,7)           -94.7554                                         !
 ! D31   D(11,5,6,8)            82.5017                                         !
 ! D32   D(5,6,7,12)           178.5918                                         !
 ! D33   D(5,6,7,13)            -6.2961                                         !
 ! D34   D(8,6,7,12)             1.3636                                         !
 ! D35   D(8,6,7,13)           176.4756                                         !
 ! D36   D(3,16,17,18)        -102.148                                          !
 ! D37   D(3,16,17,20)         133.1795                                         !
 ! D38   D(3,16,17,28)          13.291                                          !
 ! D39   D(27,16,17,18)        102.588                                          !
 ! D40   D(27,16,17,20)        -22.0845                                         !
 ! D41   D(27,16,17,28)       -141.973                                          !
 ! D42   D(16,17,18,19)       -165.4892                                         !
 ! D43   D(16,17,18,36)         14.5487                                         !
 ! D44   D(20,17,18,19)        -39.5308                                         !
 ! D45   D(20,17,18,36)        140.5072                                         !
 ! D46   D(28,17,18,19)         77.7453                                         !
 ! D47   D(28,17,18,36)       -102.2168                                         !
 ! D48   D(16,17,20,21)        -39.9381                                         !
 ! D49   D(16,17,20,29)         81.2521                                         !
 ! D50   D(16,17,20,30)       -164.1551                                         !
 ! D51   D(18,17,20,21)       -168.6675                                         !
 ! D52   D(18,17,20,29)        -47.4772                                         !
 ! D53   D(18,17,20,30)         67.1156                                         !
 ! D54   D(28,17,20,21)         77.8565                                         !
 ! D55   D(28,17,20,29)       -160.9533                                         !
 ! D56   D(28,17,20,30)        -46.3605                                         !
 ! D57   D(17,18,36,37)         -7.3544                                         !
 ! D58   D(17,18,36,44)       -177.6461                                         !
 ! D59   D(19,18,36,37)        172.6834                                         !
 ! D60   D(19,18,36,44)          2.3917                                         !
 ! D61   D(17,20,21,22)        -37.263                                          !
 ! D62   D(17,20,21,23)        141.2951                                         !
 ! D63   D(29,20,21,22)       -158.8043                                         !
 ! D64   D(29,20,21,23)         19.7538                                         !
 ! D65   D(30,20,21,22)         85.0619                                         !
 ! D66   D(30,20,21,23)        -96.38                                           !
 ! D67   D(20,21,22,24)        177.5843                                         !
 ! D68   D(20,21,22,31)         -1.5176                                         !
 ! D69   D(23,21,22,24)         -0.9841                                         !
 ! D70   D(23,21,22,31)        179.914                                          !
 ! D71   D(20,21,23,25)       -177.7477                                         !
 ! D72   D(20,21,23,32)          3.5772                                         !
 ! D73   D(22,21,23,25)          0.8682                                         !
 ! D74   D(22,21,23,32)       -177.8069                                         !
 ! D75   D(21,22,24,26)          0.1028                                         !
 ! D76   D(21,22,24,33)       -179.7977                                         !
 ! D77   D(31,22,24,26)        179.2121                                         !
 ! D78   D(31,22,24,33)         -0.6884                                         !
 ! D79   D(21,23,25,26)          0.1348                                         !
 ! D80   D(21,23,25,34)       -179.6066                                         !
 ! D81   D(32,23,25,26)        178.808                                          !
 ! D82   D(32,23,25,34)         -0.9334                                         !
 ! D83   D(22,24,26,25)          0.9165                                         !
 ! D84   D(22,24,26,35)       -179.6591                                         !
 ! D85   D(33,24,26,25)       -179.1835                                         !
 ! D86   D(33,24,26,35)          0.2408                                         !
 ! D87   D(23,25,26,24)         -1.0294                                         !
 ! D88   D(23,25,26,35)        179.5461                                         !
 ! D89   D(34,25,26,24)        178.7109                                         !
 ! D90   D(34,25,26,35)         -0.7135                                         !
 ! D91   D(18,36,37,38)        -62.795                                          !
 ! D92   D(18,36,37,40)        174.3084                                         !
 ! D93   D(18,36,37,45)         56.8619                                         !
 ! D94   D(44,36,37,38)        107.3316                                         !
 ! D95   D(44,36,37,40)        -15.565                                          !
 ! D96   D(44,36,37,45)       -133.0115                                         !
 ! D97   D(36,37,38,39)        159.3477                                         !
 ! D98   D(36,37,38,50)        -22.9559                                         !
 ! D99   D(40,37,38,39)        -77.2147                                         !
 ! D100  D(40,37,38,50)        100.4817                                         !
 ! D101  D(45,37,38,39)         37.8047                                         !
 ! D102  D(45,37,38,50)       -144.4989                                         !
 ! D103  D(36,37,40,41)         63.558                                          !
 ! D104  D(36,37,40,46)        -56.6185                                         !
 ! D105  D(36,37,40,47)       -172.755                                          !
 ! D106  D(38,37,40,41)        -62.155                                          !
 ! D107  D(38,37,40,46)        177.6686                                         !
 ! D108  D(38,37,40,47)         61.532                                          !
 ! D109  D(45,37,40,41)       -177.0454                                         !
 ! D110  D(45,37,40,46)         62.7782                                         !
 ! D111  D(45,37,40,47)        -53.3584                                         !
 ! D112  D(37,38,50,51)        177.3698                                         !
 ! D113  D(37,38,50,63)         -1.7599                                         !
 ! D114  D(39,38,50,51)         -5.0049                                         !
 ! D115  D(39,38,50,63)        175.8655                                         !
 ! D116  D(37,40,41,42)        136.3607                                         !
 ! D117  D(37,40,41,43)        -43.732                                          !
 ! D118  D(46,40,41,42)       -102.8892                                         !
 ! D119  D(46,40,41,43)         77.018                                          !
 ! D120  D(47,40,41,42)         14.9235                                         !
 ! D121  D(47,40,41,43)       -165.1693                                         !
 ! D122  D(40,41,42,48)        174.2945                                         !
 ! D123  D(40,41,42,49)          1.4905                                         !
 ! D124  D(43,41,42,48)         -5.6125                                         !
 ! D125  D(43,41,42,49)       -178.4165                                         !
 ! D126  D(38,50,51,52)       -109.9232                                         !
 ! D127  D(38,50,51,54)        122.0912                                         !
 ! D128  D(38,50,51,64)          2.4569                                         !
 ! D129  D(63,50,51,52)         69.1922                                         !
 ! D130  D(63,50,51,54)        -58.7934                                         !
 ! D131  D(63,50,51,64)       -178.4277                                         !
 ! D132  D(50,51,52,53)        -92.7414                                         !
 ! D133  D(50,51,52,61)         83.1816                                         !
 ! D134  D(54,51,52,53)         35.269                                          !
 ! D135  D(54,51,52,61)       -148.8081                                         !
 ! D136  D(64,51,52,53)        156.0698                                         !
 ! D137  D(64,51,52,61)        -28.0073                                         !
 ! D138  D(50,51,54,55)         14.4398                                         !
 ! D139  D(50,51,54,65)        140.8235                                         !
 ! D140  D(50,51,54,66)       -105.5844                                         !
 ! D141  D(52,51,54,55)       -108.7945                                         !
 ! D142  D(52,51,54,65)         17.5892                                         !
 ! D143  D(52,51,54,66)        131.1813                                         !
 ! D144  D(64,51,54,55)        131.7536                                         !
 ! D145  D(64,51,54,65)       -101.8627                                         !
 ! D146  D(64,51,54,66)         11.7294                                         !
 ! D147  D(51,52,61,62)       -172.2229                                         !
 ! D148  D(53,52,61,62)          3.8679                                         !
 ! D149  D(51,54,55,56)         88.6178                                         !
 ! D150  D(51,54,55,67)       -152.615                                          !
 ! D151  D(51,54,55,68)        -37.323                                          !
 ! D152  D(65,54,55,56)        -37.1241                                         !
 ! D153  D(65,54,55,67)         81.6431                                         !
 ! D154  D(65,54,55,68)       -163.065                                          !
 ! D155  D(66,54,55,56)       -151.8872                                         !
 ! D156  D(66,54,55,67)        -33.12                                           !
 ! D157  D(66,54,55,68)         82.172                                          !
 ! D158  D(54,55,56,57)        -51.6305                                         !
 ! D159  D(54,55,56,69)         67.3136                                         !
 ! D160  D(54,55,56,70)       -174.727                                          !
 ! D161  D(67,55,56,57)       -171.3815                                         !
 ! D162  D(67,55,56,69)        -52.4374                                         !
 ! D163  D(67,55,56,70)         65.5221                                         !
 ! D164  D(68,55,56,57)         74.373                                          !
 ! D165  D(68,55,56,69)       -166.683                                          !
 ! D166  D(68,55,56,70)        -48.7235                                         !
 ! D167  D(55,56,57,58)        -95.1241                                         !
 ! D168  D(55,56,57,71)         70.599                                          !
 ! D169  D(69,56,57,58)        143.8275                                         !
 ! D170  D(69,56,57,71)        -50.4494                                         !
 ! D171  D(70,56,57,58)         29.2059                                         !
 ! D172  D(70,56,57,71)       -165.071                                          !
 ! D173  D(56,57,58,59)          7.3238                                         !
 ! D174  D(56,57,58,60)       -170.6954                                         !
 ! D175  D(71,57,58,59)       -158.4539                                         !
 ! D176  D(71,57,58,60)         23.5268                                         !
 ! D177  D(57,58,59,72)        176.5579                                         !
 ! D178  D(57,58,59,73)         29.9995                                         !
 ! D179  D(60,58,59,72)         -5.4109                                         !
 ! D180  D(60,58,59,73)       -151.9693                                         !
 ! D181  D(57,58,60,74)       -149.0064                                         !
 ! D182  D(57,58,60,75)          4.2759                                         !
 ! D183  D(59,58,60,74)         32.9089                                         !
 ! D184  D(59,58,60,75)       -173.8088                                         !
 --------------------------------------------------------------------------------
 Symmetry turned off by external request.
 Stoichiometry    C23H36N9O7(1+)
 Framework group  C1[X(C23H36N9O7)]
 Deg. of freedom   219
 Full point group                 C1      NOp   1
                          Input orientation:                          
 ---------------------------------------------------------------------
 Center     Atomic      Atomic             Coordinates (Angstroms)
 Number     Number       Type             X           Y           Z
 ---------------------------------------------------------------------
      1          7           0       -7.844784   -4.500308   -8.989785
      2          6           0       -8.915503   -4.392502   -8.009670
      3          6           0       -8.624842   -3.560535   -6.748631
      4          8           0       -9.312045   -3.612076   -5.732632
      5          6           0       -9.434480   -5.780935   -7.621759
      6          6           0      -10.321897   -6.332583   -8.740455
      7          7           0      -10.270556   -7.681308   -8.921433
      8          8           0      -11.064007   -5.607705   -9.388463
      9          1           0       -9.748854   -3.880617   -8.507592
     10          1           0       -8.594199   -6.449943   -7.395091
     11          1           0      -10.047006   -5.700805   -6.717254
     12          1           0      -10.856903   -8.091185   -9.635114
     13          1           0       -9.624392   -8.276156   -8.426606
     14          1           0       -7.728694   -3.657809   -9.542300
     15          1           0       -6.957352   -4.790399   -8.587460
     16          7           0       -7.587720   -2.661852   -6.852291
     17          6           0       -7.057490   -2.003120   -5.677344
     18          6           0       -7.507215   -0.547527   -5.459951
     19          8           0       -6.891728    0.157391   -4.642636
     20          6           0       -5.506077   -2.049785   -5.661908
     21          6           0       -4.905322   -3.360259   -6.128290
     22          6           0       -5.485772   -4.600356   -5.830967
     23          6           0       -3.739448   -3.338400   -6.913263
     24          6           0       -4.927859   -5.782802   -6.322291
     25          6           0       -3.178031   -4.522409   -7.404074
     26          6           0       -3.779523   -5.749035   -7.117319
     27          1           0       -6.984563   -2.761254   -7.658071
     28          1           0       -7.458852   -2.541553   -4.808784
     29          1           0       -5.123344   -1.250940   -6.307542
     30          1           0       -5.178100   -1.804941   -4.646409
     31          1           0       -6.386468   -4.649413   -5.225279
     32          1           0       -3.254286   -2.385845   -7.124255
     33          1           0       -5.394738   -6.734126   -6.083230
     34          1           0       -2.272873   -4.483571   -8.003615
     35          1           0       -3.352771   -6.670487   -7.501437
     36          7           0       -8.557274   -0.002129   -6.130730
     37          6           0       -9.386477   -0.492621   -7.231399
     38          6           0       -8.607872   -0.738379   -8.541107
     39          8           0       -9.050809   -1.476379   -9.407703
     40          6           0      -10.540207    0.496943   -7.507882
     41          6           0      -10.066153    1.869186   -7.976700
     42          7           0      -10.738647    2.420009   -9.003912
     43          8           0       -9.110057    2.446077   -7.435171
     44          1           0       -8.697501    0.975208   -5.899815
     45          1           0       -9.844583   -1.442781   -6.958049
     46          1           0      -11.116773    0.637061   -6.585017
     47          1           0      -11.202529    0.030042   -8.241973
     48          1           0      -10.511756    3.364960   -9.286970
     49          1           0      -11.532797    1.969958   -9.436887
     50          7           0       -7.437470   -0.037876   -8.663214
     51          6           0       -6.537038   -0.176486   -9.798407
     52          6           0       -5.290850   -0.893015   -9.258460
     53          8           0       -4.278414   -0.358543   -8.831034
     54          6           0       -6.250760    1.144327  -10.577588
     55          6           0       -6.640066    2.481600   -9.908875
     56          6           0       -5.570061    3.119656   -9.008489
     57          7           0       -5.019656    2.215832   -7.995636
     58          6           0       -5.412350    2.089796   -6.725170
     59          7           0       -6.502609    2.715200   -6.252555
     60          7           0       -4.676557    1.347175   -5.879182
     61          8           0       -5.477978   -2.217970   -9.228417
     62          1           0       -4.724505   -2.655797   -8.766768
     63          1           0       -7.192766    0.593182   -7.915450
     64          1           0       -7.036044   -0.881952  -10.466596
     65          1           0       -5.193321    1.161382  -10.867588
     66          1           0       -6.817131    1.074515  -11.510465
     67          1           0       -6.842279    3.209412  -10.703393
     68          1           0       -7.578046    2.369895   -9.357265
     69          1           0       -4.720158    3.445791   -9.616714
     70          1           0       -5.962508    4.008713   -8.506320
     71          1           0       -4.417499    1.469098   -8.344628
     72          1           0       -6.751317    2.515529   -5.289654
     73          1           0       -7.292381    2.917601   -6.861779
     74          1           0       -5.168981    0.866175   -5.124050
     75          1           0       -3.804930    0.950943   -6.202605
 ---------------------------------------------------------------------
 Rotational constants (GHZ):           0.1299565           0.0819156           0.0653899
 Standard basis: 6-31G(d) (6D, 7F)
   657 basis functions,  1236 primitive gaussians,   657 cartesian basis functions
   146 alpha electrons      146 beta electrons
       nuclear repulsion energy      5182.2828666140 Hartrees.
 NAtoms=   75 NActive=   75 NUniq=   75 SFac= 1.00D+00 NAtFMM=   60 NAOKFM=T Big=T
 Integral buffers will be    131072 words long.
 Raffenetti 2 integral format.
 Two-electron integral symmetry is turned off.
 Nuclear repulsion after empirical dispersion term =     5182.1565463615 Hartrees.
 One-electron integrals computed using PRISM.
 NBasis=   657 RedAO= T EigKep=  4.58D-04  NBF=   657
 NBsUse=   657 1.00D-06 EigRej= -1.00D+00 NBFU=   657
 Initial guess from the checkpoint file:  "conf-60.chk"
 B after Tr=     0.000000    0.000000    0.000000
         Rot=    1.000000    0.000000    0.000000    0.000000 Ang=   0.00 deg.
 Requested convergence on RMS density matrix=1.00D-08 within 128 cycles.
 Requested convergence on MAX density matrix=1.00D-06.
 Requested convergence on             energy=1.00D-06.
 No special actions if energy rises.
 SCF Done:  E(RB3LYP) =  -1917.49891359     A.U. after    2 cycles
            NFock=  2  Conv=0.90D-08     -V/T= 2.0093

 **********************************************************************

            Population analysis using the SCF Density.

 **********************************************************************

 Alpha  occ. eigenvalues --  -19.32976 -19.28506 -19.25658 -19.24039 -19.23665
 Alpha  occ. eigenvalues --  -19.20541 -19.16417 -14.50692 -14.49986 -14.49807
 Alpha  occ. eigenvalues --  -14.49357 -14.49006 -14.48340 -14.45289 -14.41279
 Alpha  occ. eigenvalues --  -14.39250 -10.46812 -10.46078 -10.43174 -10.41435
 Alpha  occ. eigenvalues --  -10.41075 -10.36982 -10.36648 -10.36137 -10.35697
 Alpha  occ. eigenvalues --  -10.34592 -10.34424 -10.32931 -10.31625 -10.31258
 Alpha  occ. eigenvalues --  -10.30688 -10.30514 -10.29578 -10.29376 -10.29276
 Alpha  occ. eigenvalues --  -10.29016 -10.28950 -10.28716 -10.25764  -1.24254
 Alpha  occ. eigenvalues --   -1.17204  -1.16155  -1.15768  -1.15508  -1.15125
 Alpha  occ. eigenvalues --   -1.12521  -1.08371  -1.06145  -1.05038  -1.04262
 Alpha  occ. eigenvalues --   -1.04085  -1.03186  -1.02365  -0.96503  -0.95809
 Alpha  occ. eigenvalues --   -0.95686  -0.92403  -0.90828  -0.89116  -0.88020
 Alpha  occ. eigenvalues --   -0.84654  -0.84120  -0.82596  -0.82366  -0.80603
 Alpha  occ. eigenvalues --   -0.78084  -0.77271  -0.74903  -0.74136  -0.73649
 Alpha  occ. eigenvalues --   -0.72454  -0.71645  -0.71150  -0.70844  -0.70062
 Alpha  occ. eigenvalues --   -0.68375  -0.68184  -0.67807  -0.67117  -0.65521
 Alpha  occ. eigenvalues --   -0.64649  -0.64138  -0.63971  -0.63492  -0.62755
 Alpha  occ. eigenvalues --   -0.62441  -0.61444  -0.60786  -0.60695  -0.60102
 Alpha  occ. eigenvalues --   -0.59523  -0.58495  -0.58290  -0.58036  -0.57589
 Alpha  occ. eigenvalues --   -0.57403  -0.57144  -0.56595  -0.56101  -0.55551
 Alpha  occ. eigenvalues --   -0.55145  -0.54480  -0.54231  -0.53679  -0.53296
 Alpha  occ. eigenvalues --   -0.53115  -0.52728  -0.52252  -0.52168  -0.51913
 Alpha  occ. eigenvalues --   -0.51660  -0.51264  -0.50658  -0.50256  -0.49718
 Alpha  occ. eigenvalues --   -0.48905  -0.48232  -0.48087  -0.47462  -0.47208
 Alpha  occ. eigenvalues --   -0.46998  -0.46491  -0.46041  -0.45879  -0.45451
 Alpha  occ. eigenvalues --   -0.44624  -0.44226  -0.43727  -0.42495  -0.42262
 Alpha  occ. eigenvalues --   -0.41879  -0.41816  -0.40677  -0.40228  -0.39873
 Alpha  occ. eigenvalues --   -0.38984  -0.38772  -0.37951  -0.36152  -0.36038
 Alpha  occ. eigenvalues --   -0.35703  -0.34710  -0.34378  -0.32071  -0.30530
 Alpha  occ. eigenvalues --   -0.30252
 Alpha virt. eigenvalues --   -0.14063  -0.12297  -0.11550  -0.11472  -0.10714
 Alpha virt. eigenvalues --   -0.09964  -0.09294  -0.06593  -0.06069  -0.04380
 Alpha virt. eigenvalues --   -0.02975  -0.02580  -0.02122  -0.01900  -0.00953
 Alpha virt. eigenvalues --   -0.00464  -0.00093   0.00089   0.00202   0.00971
 Alpha virt. eigenvalues --    0.01620   0.01985   0.02117   0.02879   0.03060
 Alpha virt. eigenvalues --    0.03129   0.03540   0.04142   0.04348   0.04975
 Alpha virt. eigenvalues --    0.05198   0.05530   0.05692   0.06118   0.06651
 Alpha virt. eigenvalues --    0.06735   0.06956   0.07267   0.07642   0.07777
 Alpha virt. eigenvalues --    0.08041   0.08611   0.08981   0.09465   0.09681
 Alpha virt. eigenvalues --    0.10656   0.10824   0.11061   0.11125   0.11934
 Alpha virt. eigenvalues --    0.12213   0.12611   0.13285   0.13531   0.14228
 Alpha virt. eigenvalues --    0.14340   0.15055   0.15381   0.15880   0.17107
 Alpha virt. eigenvalues --    0.17952   0.19084   0.19437   0.19586   0.20071
 Alpha virt. eigenvalues --    0.20604   0.21131   0.22085   0.22422   0.23188
 Alpha virt. eigenvalues --    0.23470   0.23512   0.24850   0.25324   0.25690
 Alpha virt. eigenvalues --    0.27193   0.27413   0.28346   0.29810   0.30765
 Alpha virt. eigenvalues --    0.32204   0.32620   0.34537   0.35174   0.37094
 Alpha virt. eigenvalues --    0.37602   0.38108   0.38571   0.39701   0.40482
 Alpha virt. eigenvalues --    0.40892   0.41746   0.41959   0.42742   0.43148
 Alpha virt. eigenvalues --    0.44201   0.44488   0.44816   0.45049   0.45477
 Alpha virt. eigenvalues --    0.45626   0.46118   0.46585   0.47132   0.47489
 Alpha virt. eigenvalues --    0.47783   0.48080   0.48641   0.49100   0.49289
 Alpha virt. eigenvalues --    0.49579   0.50211   0.50942   0.51270   0.51744
 Alpha virt. eigenvalues --    0.51978   0.52076   0.52218   0.52626   0.52983
 Alpha virt. eigenvalues --    0.53356   0.54088   0.54253   0.54597   0.54787
 Alpha virt. eigenvalues --    0.55071   0.55571   0.55839   0.56958   0.57074
 Alpha virt. eigenvalues --    0.57701   0.57977   0.58375   0.59252   0.60132
 Alpha virt. eigenvalues --    0.60683   0.60934   0.61441   0.61991   0.62261
 Alpha virt. eigenvalues --    0.63252   0.63425   0.64175   0.64479   0.64845
 Alpha virt. eigenvalues --    0.65204   0.65876   0.66729   0.67194   0.67444
 Alpha virt. eigenvalues --    0.67925   0.68320   0.69365   0.69659   0.69943
 Alpha virt. eigenvalues --    0.70814   0.71381   0.71684   0.72498   0.72972
 Alpha virt. eigenvalues --    0.73426   0.73842   0.74035   0.74657   0.74769
 Alpha virt. eigenvalues --    0.74938   0.75206   0.75263   0.76054   0.76396
 Alpha virt. eigenvalues --    0.76600   0.76821   0.77141   0.77939   0.78607
 Alpha virt. eigenvalues --    0.78705   0.79079   0.79223   0.79749   0.80251
 Alpha virt. eigenvalues --    0.80457   0.80666   0.81198   0.81592   0.82169
 Alpha virt. eigenvalues --    0.82206   0.82753   0.82965   0.83140   0.83903
 Alpha virt. eigenvalues --    0.84210   0.84901   0.85001   0.85394   0.86468
 Alpha virt. eigenvalues --    0.86924   0.87816   0.88257   0.88670   0.89430
 Alpha virt. eigenvalues --    0.89768   0.90322   0.91469   0.91577   0.92213
 Alpha virt. eigenvalues --    0.92621   0.92887   0.93765   0.94496   0.96073
 Alpha virt. eigenvalues --    0.96551   0.96938   0.97395   0.98542   0.98853
 Alpha virt. eigenvalues --    0.99674   0.99882   1.00494   1.01409   1.02028
 Alpha virt. eigenvalues --    1.03238   1.03541   1.04673   1.04995   1.05375
 Alpha virt. eigenvalues --    1.05819   1.07218   1.07405   1.08129   1.08483
 Alpha virt. eigenvalues --    1.09659   1.09967   1.10621   1.11650   1.12376
 Alpha virt. eigenvalues --    1.12950   1.13172   1.13880   1.15170   1.15785
 Alpha virt. eigenvalues --    1.16021   1.16574   1.17377   1.18313   1.19272
 Alpha virt. eigenvalues --    1.20209   1.21328   1.21832   1.22281   1.23058
 Alpha virt. eigenvalues --    1.23376   1.25304   1.26282   1.27141   1.28293
 Alpha virt. eigenvalues --    1.28897   1.29613   1.30545   1.30577   1.31410
 Alpha virt. eigenvalues --    1.32205   1.32668   1.33159   1.33944   1.34268
 Alpha virt. eigenvalues --    1.35175   1.35212   1.35763   1.36900   1.38266
 Alpha virt. eigenvalues --    1.38600   1.38869   1.40018   1.40217   1.40993
 Alpha virt. eigenvalues --    1.41243   1.41469   1.42285   1.44267   1.45173
 Alpha virt. eigenvalues --    1.45818   1.46823   1.48242   1.49437   1.49899
 Alpha virt. eigenvalues --    1.51260   1.52089   1.52383   1.54757   1.55292
 Alpha virt. eigenvalues --    1.56176   1.56513   1.58105   1.58529   1.59967
 Alpha virt. eigenvalues --    1.60673   1.61030   1.61728   1.62857   1.63193
 Alpha virt. eigenvalues --    1.64347   1.64602   1.64737   1.65064   1.65566
 Alpha virt. eigenvalues --    1.65736   1.65871   1.66919   1.67931   1.68617
 Alpha virt. eigenvalues --    1.69557   1.69736   1.70030   1.70148   1.71108
 Alpha virt. eigenvalues --    1.71494   1.72148   1.72509   1.73434   1.74190
 Alpha virt. eigenvalues --    1.74937   1.75372   1.76150   1.76737   1.77488
 Alpha virt. eigenvalues --    1.77567   1.78258   1.78770   1.78825   1.79398
 Alpha virt. eigenvalues --    1.80254   1.80389   1.81361   1.81825   1.82636
 Alpha virt. eigenvalues --    1.83298   1.83869   1.84752   1.85193   1.85921
 Alpha virt. eigenvalues --    1.87098   1.87328   1.88236   1.88564   1.88847
 Alpha virt. eigenvalues --    1.89327   1.90331   1.90643   1.91298   1.91735
 Alpha virt. eigenvalues --    1.92469   1.92961   1.94293   1.94936   1.95456
 Alpha virt. eigenvalues --    1.96048   1.96153   1.96840   1.97767   1.99283
 Alpha virt. eigenvalues --    2.00168   2.00484   2.01617   2.02161   2.02757
 Alpha virt. eigenvalues --    2.03517   2.04610   2.05010   2.05167   2.06052
 Alpha virt. eigenvalues --    2.06734   2.07112   2.07735   2.08315   2.08594
 Alpha virt. eigenvalues --    2.09207   2.09715   2.12450   2.12570   2.13929
 Alpha virt. eigenvalues --    2.14638   2.15984   2.16734   2.17944   2.18165
 Alpha virt. eigenvalues --    2.18752   2.19712   2.20480   2.20576   2.20814
 Alpha virt. eigenvalues --    2.21531   2.21989   2.22352   2.23233   2.24148
 Alpha virt. eigenvalues --    2.25251   2.26713   2.27414   2.28238   2.28575
 Alpha virt. eigenvalues --    2.30643   2.31943   2.31995   2.32992   2.33633
 Alpha virt. eigenvalues --    2.34993   2.35625   2.36443   2.37053   2.38578
 Alpha virt. eigenvalues --    2.38862   2.39646   2.40256   2.41992   2.43193
 Alpha virt. eigenvalues --    2.44283   2.45235   2.45847   2.46694   2.47504
 Alpha virt. eigenvalues --    2.48462   2.49285   2.49490   2.50318   2.50928
 Alpha virt. eigenvalues --    2.51587   2.52121   2.52765   2.53849   2.54808
 Alpha virt. eigenvalues --    2.55074   2.55763   2.56680   2.57329   2.57619
 Alpha virt. eigenvalues --    2.58897   2.59467   2.60441   2.60998   2.62159
 Alpha virt. eigenvalues --    2.62947   2.63765   2.64751   2.65039   2.66170
 Alpha virt. eigenvalues --    2.67885   2.69933   2.73130   2.74808   2.75887
 Alpha virt. eigenvalues --    2.77529   2.80177   2.81102   2.83441   2.86077
 Alpha virt. eigenvalues --    2.87018   2.88742   2.89855   2.90512   2.92231
 Alpha virt. eigenvalues --    2.92522   2.93585   2.95456   2.96375   2.97062
 Alpha virt. eigenvalues --    2.97556   3.01357   3.01819   3.03571   3.07404
 Alpha virt. eigenvalues --    3.09647   3.30737   3.67772   3.73056   3.74970
 Alpha virt. eigenvalues --    3.77992   3.79842   3.83768   3.85586   3.92054
 Alpha virt. eigenvalues --    3.95232   4.00675   4.01948   4.02953   4.04947
 Alpha virt. eigenvalues --    4.05915   4.07915   4.10712   4.11178   4.11774
 Alpha virt. eigenvalues --    4.13199   4.15807   4.18926   4.20123   4.22249
 Alpha virt. eigenvalues --    4.24033   4.25625   4.29061   4.30315   4.31760
 Alpha virt. eigenvalues --    4.34909   4.37334   4.41723   4.46300   4.47831
 Alpha virt. eigenvalues --    4.51129   4.56205   4.59210   4.62303   4.65768
 Alpha virt. eigenvalues --    4.67397
          Condensed to atoms (all electrons):
 Mulliken charges:
               1
     1  N   -0.744458
     2  C   -0.073488
     3  C    0.580509
     4  O   -0.527803
     5  C   -0.359837
     6  C    0.629675
     7  N   -0.752660
     8  O   -0.508784
     9  H    0.224934
    10  H    0.130391
    11  H    0.206376
    12  H    0.349249
    13  H    0.337177
    14  H    0.329792
    15  H    0.296508
    16  N   -0.652958
    17  C   -0.040454
    18  C    0.625421
    19  O   -0.569673
    20  C   -0.392018
    21  C    0.174810
    22  C   -0.181444
    23  C   -0.290661
    24  C   -0.136943
    25  C   -0.123379
    26  C   -0.123768
    27  H    0.350647
    28  H    0.225103
    29  H    0.131704
    30  H    0.200378
    31  H    0.162115
    32  H    0.150905
    33  H    0.159993
    34  H    0.159801
    35  H    0.162142
    36  N   -0.635953
    37  C   -0.036599
    38  C    0.630167
    39  O   -0.510485
    40  C   -0.409262
    41  C    0.628306
    42  N   -0.723343
    43  O   -0.569064
    44  H    0.354708
    45  H    0.234049
    46  H    0.221121
    47  H    0.204835
    48  H    0.365742
    49  H    0.373066
    50  N   -0.641858
    51  C   -0.025421
    52  C    0.600809
    53  O   -0.496316
    54  C   -0.312154
    55  C   -0.301825
    56  C   -0.174105
    57  N   -0.606718
    58  C    0.718366
    59  N   -0.753221
    60  N   -0.760619
    61  O   -0.563541
    62  H    0.436869
    63  H    0.357121
    64  H    0.226622
    65  H    0.171129
    66  H    0.186945
    67  H    0.175419
    68  H    0.172285
    69  H    0.194279
    70  H    0.191891
    71  H    0.393885
    72  H    0.378918
    73  H    0.409986
    74  H    0.414775
    75  H    0.369894
 Sum of Mulliken charges =   1.00000
 Mulliken charges with hydrogens summed into heavy atoms:
               1
     1  N   -0.118158
     2  C    0.151446
     3  C    0.580509
     4  O   -0.527803
     5  C   -0.023071
     6  C    0.629675
     7  N   -0.066234
     8  O   -0.508784
    16  N   -0.302311
    17  C    0.184649
    18  C    0.625421
    19  O   -0.569673
    20  C   -0.059937
    21  C    0.174810
    22  C   -0.019329
    23  C   -0.139756
    24  C    0.023050
    25  C    0.036422
    26  C    0.038374
    36  N   -0.281245
    37  C    0.197450
    38  C    0.630167
    39  O   -0.510485
    40  C    0.016694
    41  C    0.628306
    42  N    0.015464
    43  O   -0.569064
    50  N   -0.284736
    51  C    0.201201
    52  C    0.600809
    53  O   -0.496316
    54  C    0.045920
    55  C    0.045879
    56  C    0.212065
    57  N   -0.212834
    58  C    0.718366
    59  N    0.035683
    60  N    0.024050
    61  O   -0.126672
 Electronic spatial extent (au):  <R**2>=         135995.5145
 Charge=              1.0000 electrons
 Dipole moment (field-independent basis, Debye):
    X=            -30.6324    Y=              1.9493    Z=            -38.7525  Tot=             49.4358
 Quadrupole moment (field-independent basis, Debye-Ang):
   XX=              2.8195   YY=           -144.6536   ZZ=             92.3688
   XY=            -41.6042   XZ=            250.5740   YZ=            -30.2599
 Traceless Quadrupole moment (field-independent basis, Debye-Ang):
   XX=             19.3079   YY=           -128.1651   ZZ=            108.8572
   XY=            -41.6042   XZ=            250.5740   YZ=            -30.2599
 Octapole moment (field-independent basis, Debye-Ang**2):
  XXX=           2917.4227  YYY=            504.0139  ZZZ=           2492.9820  XYY=           1056.9987
  XXY=            901.3377  XXZ=           -175.5700  XZZ=           -437.0536  YZZ=            756.5646
  YYZ=           1071.8402  XYZ=            458.9653
 Hexadecapole moment (field-independent basis, Debye-Ang**3):
 XXXX=         -58335.5550 YYYY=         -10151.5477 ZZZZ=         -59020.6838 XXXY=         -14668.9893
 XXXZ=         -21133.0290 YYYX=          -3560.0784 YYYZ=          -3439.2177 ZZZX=         -20383.9818
 ZZZY=         -12703.3977 XXYY=         -11038.2683 XXZZ=         -10867.5949 YYZZ=         -11071.5259
 XXYZ=          -8102.1198 YYXZ=          -7875.5820 ZZXY=          -7735.8075
 N-N= 5.182156546362D+03 E-N=-1.480298588595D+04  KE= 1.899780976593D+03
 Unable to Open any file for archive entry.
 1\1\GINC-LAC-317\SP\RB3LYP\6-31G(d)\C23H36N9O7(1+)\KENGMITH\03-Jun-202
 2\0\\# B3LYP/6-31G* empiricaldispersion=gd3 guess=read geom=check nosy
 mm integral(ultrafinegrid)\\Candidate Structure: Conf:60 Charge calc i
 n gas phase\\1,1\N,0,-7.8447836695,-4.5003083462,-8.9897850045\C,0,-8.
 9155030494,-4.3925019842,-8.0096696208\C,0,-8.6248418719,-3.5605350921
 ,-6.7486310975\O,0,-9.3120454316,-3.6120760233,-5.7326317127\C,0,-9.43
 44802916,-5.7809346643,-7.6217585798\C,0,-10.3218966254,-6.3325828082,
 -8.7404553902\N,0,-10.2705563369,-7.6813082924,-8.9214331187\O,0,-11.0
 640073441,-5.6077053656,-9.3884633947\H,0,-9.7488537011,-3.8806166726,
 -8.5075919129\H,0,-8.5941990553,-6.4499426918,-7.3950905694\H,0,-10.04
 70055716,-5.7008045144,-6.7172536514\H,0,-10.8569027919,-8.0911847113,
 -9.6351140556\H,0,-9.6243918661,-8.2761564442,-8.4266060468\H,0,-7.728
 6935756,-3.6578093528,-9.5422998027\H,0,-6.9573518871,-4.7903985565,-8
 .5874601612\N,0,-7.5877202024,-2.6618515217,-6.8522910631\C,0,-7.05748
 99303,-2.0031204299,-5.6773436814\C,0,-7.5072149901,-0.5475268655,-5.4
 599509003\O,0,-6.8917278943,0.1573906834,-4.6426355998\C,0,-5.50607741
 02,-2.0497851459,-5.6619081926\C,0,-4.9053219011,-3.3602585768,-6.1282
 895123\C,0,-5.4857722536,-4.6003557619,-5.8309674824\C,0,-3.7394482758
 ,-3.3383999535,-6.9132626027\C,0,-4.927859243,-5.7828018141,-6.3222909
 677\C,0,-3.1780310733,-4.5224089132,-7.4040743213\C,0,-3.7795227956,-5
 .7490350369,-7.1173191436\H,0,-6.9845629087,-2.7612542873,-7.658071057
 \H,0,-7.4588518398,-2.5415531493,-4.8087839658\H,0,-5.1233444628,-1.25
 09402359,-6.3075415457\H,0,-5.1781004675,-1.8049413661,-4.6464092783\H
 ,0,-6.3864679735,-4.6494128886,-5.225278571\H,0,-3.2542862813,-2.38584
 47206,-7.1242550701\H,0,-5.394737545,-6.7341263436,-6.0832304758\H,0,-
 2.2728734897,-4.4835707869,-8.0036147123\H,0,-3.3527707793,-6.67048704
 38,-7.5014365388\N,0,-8.5572735511,-0.0021285426,-6.130729716\C,0,-9.3
 864774345,-0.4926213293,-7.2313989202\C,0,-8.6078718131,-0.7383788316,
 -8.5411071583\O,0,-9.0508085341,-1.4763787424,-9.4077028305\C,0,-10.54
 02070589,0.496942957,-7.5078819762\C,0,-10.0661525508,1.8691864351,-7.
 9767003023\N,0,-10.738647154,2.4200086659,-9.0039124754\O,0,-9.1100572
 917,2.4460773744,-7.4351711275\H,0,-8.6975005467,0.975208287,-5.899814
 835\H,0,-9.8445827761,-1.4427814141,-6.9580487878\H,0,-11.1167732155,0
 .6370614423,-6.585016989\H,0,-11.2025294223,0.0300417449,-8.2419732788
 \H,0,-10.5117556367,3.3649598544,-9.2869698862\H,0,-11.5327972469,1.96
 99584324,-9.4368874735\N,0,-7.4374704303,-0.0378756206,-8.66321395\C,0
 ,-6.5370378703,-0.1764859489,-9.7984066769\C,0,-5.2908497754,-0.893015
 2918,-9.2584601736\O,0,-4.2784142183,-0.3585426882,-8.8310337155\C,0,-
 6.2507601901,1.1443267113,-10.5775882519\C,0,-6.6400656302,2.481599878
 9,-9.9088748341\C,0,-5.5700609329,3.1196559235,-9.0084885952\N,0,-5.01
 96557269,2.2158319787,-7.9956363346\C,0,-5.4123500331,2.0897955474,-6.
 7251704101\N,0,-6.5026087252,2.7152001154,-6.2525551523\N,0,-4.6765566
 67,1.3471745239,-5.8791815169\O,0,-5.4779783368,-2.2179697676,-9.22841
 74124\H,0,-4.7245052786,-2.6557974136,-8.7667675259\H,0,-7.1927656742,
 0.593182412,-7.9154503847\H,0,-7.0360437919,-0.8819523916,-10.46659623
 41\H,0,-5.1933205004,1.1613818658,-10.8675880186\H,0,-6.8171308141,1.0
 745146923,-11.5104654263\H,0,-6.8422788625,3.2094115827,-10.703392539\
 H,0,-7.5780455967,2.3698947003,-9.3572651386\H,0,-4.7201584129,3.44579
 09818,-9.616714017\H,0,-5.9625080982,4.0087134836,-8.5063204657\H,0,-4
 .417499072,1.4690977842,-8.3446275083\H,0,-6.7513171674,2.5155290465,-
 5.2896535007\H,0,-7.2923806753,2.9176005015,-6.8617788763\H,0,-5.16898
 13991,0.8661754921,-5.1240495516\H,0,-3.8049304812,0.9509430653,-6.202
 6051622\\Version=ES64L-G16RevC.01\HF=-1917.4989136\RMSD=9.033e-09\Dipo
 le=1.6433872,3.5719529,-0.765288\Quadrupole=14.3549698,-95.2876446,80.
 9326748,-30.9317302,186.2956044,-22.4974942\PG=C01 [X(C23H36N9O7)]\\@
 The archive entry for this job was punched.



 IN THIS SHORT LIFE

 THAT ONLY LASTS AN HOUR

 HOW MUCH, HOW LITTLE, IS WITHIN OUR POWER....


 EMILY DICKINSON BOLTS OF MELODY NO. 521
 Job cpu time:       0 days  0 hours  4 minutes 41.2 seconds.
 Elapsed time:       0 days  0 hours  1 minutes 11.1 seconds.
 File lengths (MBytes):  RWF=    344 Int=      0 D2E=      0 Chk=     48 Scr=     16
 Normal termination of Gaussian 16 at Fri Jun  3 06:16:58 2022.
