 Entering Gaussian System, Link 0=/opt/software/Gaussian/g16-AVX2-C.01/g16/g16
 Input=charge-conf-684.com
 Output=charge-conf-684.log
 Initial command:
 /opt/software/Gaussian/g16-AVX2-C.01/g16/l1.exe "/mnt/gs18/scratch/users/kengmith/Gau-57382.inp" -scrdir="/mnt/gs18/scratch/users/kengmith/"
 Entering Link 1 = /opt/software/Gaussian/g16-AVX2-C.01/g16/l1.exe PID=     57393.
  
 Copyright (c) 1988-2019, Gaussian, Inc.  All Rights Reserved.
  
 This is part of the Gaussian(R) 16 program.  It is based on
 the Gaussian(R) 09 system (copyright 2009, Gaussian, Inc.),
 the Gaussian(R) 03 system (copyright 2003, Gaussian, Inc.),
 the Gaussian(R) 98 system (copyright 1998, Gaussian, Inc.),
 the Gaussian(R) 94 system (copyright 1995, Gaussian, Inc.),
 the Gaussian 92(TM) system (copyright 1992, Gaussian, Inc.),
 the Gaussian 90(TM) system (copyright 1990, Gaussian, Inc.),
 the Gaussian 88(TM) system (copyright 1988, Gaussian, Inc.),
 the Gaussian 86(TM) system (copyright 1986, Carnegie Mellon
 University), and the Gaussian 82(TM) system (copyright 1983,
 Carnegie Mellon University). Gaussian is a federally registered
 trademark of Gaussian, Inc.
  
 This software contains proprietary and confidential information,
 including trade secrets, belonging to Gaussian, Inc.
  
 This software is provided under written license and may be
 used, copied, transmitted, or stored only in accord with that
 written license.
  
 The following legend is applicable only to US Government
 contracts under FAR:
  
                    RESTRICTED RIGHTS LEGEND
  
 Use, reproduction and disclosure by the US Government is
 subject to restrictions as set forth in subparagraphs (a)
 and (c) of the Commercial Computer Software - Restricted
 Rights clause in FAR 52.227-19.
  
 Gaussian, Inc.
 340 Quinnipiac St., Bldg. 40, Wallingford CT 06492
  
  
 ---------------------------------------------------------------
 Warning -- This program may not be used in any manner that
 competes with the business of Gaussian, Inc. or will provide
 assistance to any competitor of Gaussian, Inc.  The licensee
 of this program is prohibited from giving any competitor of
 Gaussian, Inc. access to this program.  By using this program,
 the user acknowledges that Gaussian, Inc. is engaged in the
 business of creating and licensing software in the field of
 computational chemistry and represents and warrants to the
 licensee that it is not a competitor of Gaussian, Inc. and that
 it will not use this program in any manner prohibited above.
 ---------------------------------------------------------------
  

 Cite this work as:
 Gaussian 16, Revision C.01,
 M. J. Frisch, G. W. Trucks, H. B. Schlegel, G. E. Scuseria, 
 M. A. Robb, J. R. Cheeseman, G. Scalmani, V. Barone, 
 G. A. Petersson, H. Nakatsuji, X. Li, M. Caricato, A. V. Marenich, 
 J. Bloino, B. G. Janesko, R. Gomperts, B. Mennucci, H. P. Hratchian, 
 J. V. Ortiz, A. F. Izmaylov, J. L. Sonnenberg, D. Williams-Young, 
 F. Ding, F. Lipparini, F. Egidi, J. Goings, B. Peng, A. Petrone, 
 T. Henderson, D. Ranasinghe, V. G. Zakrzewski, J. Gao, N. Rega, 
 G. Zheng, W. Liang, M. Hada, M. Ehara, K. Toyota, R. Fukuda, 
 J. Hasegawa, M. Ishida, T. Nakajima, Y. Honda, O. Kitao, H. Nakai, 
 T. Vreven, K. Throssell, J. A. Montgomery, Jr., J. E. Peralta, 
 F. Ogliaro, M. J. Bearpark, J. J. Heyd, E. N. Brothers, K. N. Kudin, 
 V. N. Staroverov, T. A. Keith, R. Kobayashi, J. Normand, 
 K. Raghavachari, A. P. Rendell, J. C. Burant, S. S. Iyengar, 
 J. Tomasi, M. Cossi, J. M. Millam, M. Klene, C. Adamo, R. Cammi, 
 J. W. Ochterski, R. L. Martin, K. Morokuma, O. Farkas, 
 J. B. Foresman, and D. J. Fox, Gaussian, Inc., Wallingford CT, 2019.
 
 ******************************************
 Gaussian 16:  ES64L-G16RevC.01  3-Jul-2019
                 3-Jun-2022 
 ******************************************
 %mem=8gb
 %nproc=4
 Will use up to    4 processors via shared memory.
 %chk=conf-684.chk
 ----------------------------------------------------------------------
 # B3LYP/6-31G* empiricaldispersion=gd3 guess=read geom=check nosymm in
 tegral(ultrafinegrid)
 ----------------------------------------------------------------------
 1/29=2,38=1,172=1/1;
 2/12=2,15=1,40=1/2;
 3/5=1,6=6,7=1,11=2,14=-4,25=1,30=1,74=-5,75=-5,116=-2,124=31/1,2,3;
 4/5=1/1;
 5/5=2,38=6/2;
 6/7=2,8=2,9=2,10=2,28=1/1;
 99/5=1,9=1/99;
 ------------------------------------------------------
 Candidate Structure: Conf:684 Charge calc in gas phase
 ------------------------------------------------------
 Structure from the checkpoint file:  "conf-684.chk"
 Charge =  1 Multiplicity = 1
 Redundant internal coordinates found in file.  (old form).
 N,0,-9.3820801679,1.3848230477,-6.0555544671
 C,0,-9.5547377884,-0.0074769543,-5.6657834686
 C,0,-8.2065382863,-0.5070883844,-5.1020282714
 O,0,-7.6017060238,0.1124470793,-4.2396952434
 C,0,-10.1550688486,-0.935066989,-6.7457314464
 C,0,-11.4493519706,-0.3807224924,-7.3402046549
 N,0,-11.757876775,-0.8750173976,-8.5858982697
 O,0,-12.1337725263,0.4607068631,-6.7807549845
 H,0,-10.2408189352,-0.0017402739,-4.8111315933
 H,0,-9.4361140794,-1.0944598758,-7.5543686163
 H,0,-10.3901315212,-1.9265752021,-6.3292675718
 H,0,-12.6917195272,-0.6736710984,-8.9235548932
 H,0,-11.3403781592,-1.7376960808,-8.9113695812
 H,0,-8.7984139799,1.496556783,-6.8813519846
 H,0,-10.2936774182,1.794828164,-6.2371892467
 N,0,-7.657643258,-1.6412688111,-5.671078089
 C,0,-6.4472340659,-2.249261675,-5.1366878237
 C,0,-5.3524607753,-2.3065396371,-6.2121344247
 O,0,-4.7157417381,-3.3497878395,-6.4305486929
 C,0,-6.709651717,-3.6341829682,-4.4935174366
 C,0,-7.3218221328,-4.6641576113,-5.4221180306
 C,0,-8.6845120549,-4.6159249004,-5.7545777462
 C,0,-6.5418462223,-5.6934290442,-5.975298433
 C,0,-9.2410627421,-5.5273362725,-6.6577522975
 C,0,-7.0997931604,-6.621381406,-6.858187747
 C,0,-8.4481074338,-6.5290693947,-7.2193825111
 H,0,-8.2085811318,-2.2077735445,-6.2990350749
 H,0,-6.105618929,-1.5673430273,-4.3487252916
 H,0,-5.7621618502,-4.0056164474,-4.0944807306
 H,0,-7.3764796071,-3.45584245,-3.6427723964
 H,0,-9.3266157554,-3.8815281591,-5.2740869998
 H,0,-5.4909091382,-5.7568972327,-5.7128284115
 H,0,-10.2989174914,-5.4696505246,-6.8989981799
 H,0,-6.4821335783,-7.4189914831,-7.2621412153
 H,0,-8.8808128705,-7.2492419649,-7.9076171851
 N,0,-5.104959541,-1.2027404313,-6.9628155339
 C,0,-5.5532839464,0.1799126935,-6.8593462111
 C,0,-6.5335657347,0.5810806863,-7.9796695824
 O,0,-6.7666891247,1.7661562912,-8.202980994
 C,0,-4.3452291237,1.1372366622,-6.9241110423
 C,0,-3.6021631287,1.0435049885,-8.2563878352
 N,0,-2.8799190617,2.1235212292,-8.6079646339
 O,0,-3.6413189131,0.0215321825,-8.9602122161
 H,0,-4.3779442217,-1.305414711,-7.6654969125
 H,0,-6.0535780205,0.3537762187,-5.9044255145
 H,0,-3.6477294867,0.8886903272,-6.1153954012
 H,0,-4.7052349639,2.155398993,-6.7572983883
 H,0,-2.3316908309,2.0926128899,-9.4575329909
 H,0,-2.878825557,2.9756097317,-8.0657572647
 N,0,-7.1033697318,-0.4119854899,-8.7160084532
 C,0,-7.962342415,-0.0681688674,-9.8322311402
 C,0,-8.894807427,-1.2258434206,-10.1597118113
 O,0,-8.8278503362,-2.3285178334,-9.6455693441
 C,0,-7.1654417818,0.4214737827,-11.0786466708
 C,0,-6.49073061,-0.621204575,-11.9897683233
 C,0,-5.4248583157,-1.5369171548,-11.3638501656
 N,0,-6.0628534073,-2.6603592629,-10.6635000298
 C,0,-5.612053304,-3.2979307906,-9.5733788153
 N,0,-4.3281554767,-3.2443455138,-9.2016476071
 N,0,-6.4803894076,-4.0152305231,-8.847204113
 O,0,-9.8105634333,-1.0037558528,-11.1095949102
 H,0,-9.8467313775,-0.066061306,-11.3681089003
 H,0,-6.9522639462,-1.378652977,-8.4717404734
 H,0,-8.5861424199,0.776392894,-9.5073751372
 H,0,-7.8408364769,1.0182182366,-11.7058716531
 H,0,-6.4246362267,1.1271729323,-10.6920155287
 H,0,-7.2514528406,-1.2403462808,-12.4880839985
 H,0,-6.0011492101,-0.0641068244,-12.7960991366
 H,0,-4.7724727379,-1.925200404,-12.1551556082
 H,0,-4.8136696227,-0.9736024537,-10.6520409545
 H,0,-6.98155467,-2.9380044975,-10.9814941381
 H,0,-4.119697958,-3.4297017543,-8.2116166507
 H,0,-3.6730746537,-2.6831802758,-9.7282788688
 H,0,-6.17805039,-4.5627036789,-8.0472096072
 H,0,-7.4771830092,-3.8945399151,-8.979832449
 Recover connectivity data from disk.
                           ----------------------------
                           !    Current Parameters    !
                           ! (Angstroms and Degrees)  !
 --------------------------                            --------------------------
 ! Name  Definition              Value                                          !
 --------------------------------------------------------------------------------
 ! R1    R(1,2)                  1.4561                                         !
 ! R2    R(1,14)                 1.0174                                         !
 ! R3    R(1,15)                 1.0159                                         !
 ! R4    R(2,3)                  1.5444                                         !
 ! R5    R(2,5)                  1.545                                          !
 ! R6    R(2,9)                  1.096                                          !
 ! R7    R(3,4)                  1.222                                          !
 ! R8    R(3,16)                 1.3826                                         !
 ! R9    R(5,6)                  1.5284                                         !
 ! R10   R(5,10)                 1.0937                                         !
 ! R11   R(5,11)                 1.1008                                         !
 ! R12   R(6,7)                  1.3752                                         !
 ! R13   R(6,8)                  1.2204                                         !
 ! R14   R(7,12)                 1.0132                                         !
 ! R15   R(7,13)                 1.0122                                         !
 ! R16   R(16,17)                1.4561                                         !
 ! R17   R(16,27)                1.0094                                         !
 ! R18   R(17,18)                1.5357                                         !
 ! R19   R(17,20)                1.5494                                         !
 ! R20   R(17,28)                1.0966                                         !
 ! R21   R(18,19)                1.2416                                         !
 ! R22   R(18,36)                1.3576                                         !
 ! R23   R(20,21)                1.5159                                         !
 ! R24   R(20,29)                1.0931                                         !
 ! R25   R(20,30)                1.0956                                         !
 ! R26   R(21,22)                1.4035                                         !
 ! R27   R(21,23)                1.4049                                         !
 ! R28   R(22,24)                1.3986                                         !
 ! R29   R(22,31)                1.0874                                         !
 ! R30   R(23,25)                1.3971                                         !
 ! R31   R(23,32)                1.0851                                         !
 ! R32   R(24,26)                1.3956                                         !
 ! R33   R(24,33)                1.0865                                         !
 ! R34   R(25,26)                1.3989                                         !
 ! R35   R(25,34)                1.0867                                         !
 ! R36   R(26,35)                1.0861                                         !
 ! R37   R(36,37)                1.4572                                         !
 ! R38   R(36,44)                1.0163                                         !
 ! R39   R(37,38)                1.5418                                         !
 ! R40   R(37,40)                1.5427                                         !
 ! R41   R(37,45)                1.092                                          !
 ! R42   R(38,39)                1.2283                                         !
 ! R43   R(38,50)                1.3613                                         !
 ! R44   R(40,41)                1.5284                                         !
 ! R45   R(40,46)                1.0965                                         !
 ! R46   R(40,47)                1.0927                                         !
 ! R47   R(41,42)                1.346                                          !
 ! R48   R(41,43)                1.2415                                         !
 ! R49   R(42,48)                1.0116                                         !
 ! R50   R(42,49)                1.01                                           !
 ! R51   R(50,51)                1.4498                                         !
 ! R52   R(50,63)                1.0084                                         !
 ! R53   R(51,52)                1.5222                                         !
 ! R54   R(51,54)                1.5583                                         !
 ! R55   R(51,64)                1.0991                                         !
 ! R56   R(52,53)                1.2185                                         !
 ! R57   R(52,61)                1.338                                          !
 ! R58   R(54,55)                1.5403                                         !
 ! R59   R(54,65)                1.098                                          !
 ! R60   R(54,66)                1.0937                                         !
 ! R61   R(55,56)                1.5383                                         !
 ! R62   R(55,67)                1.1002                                         !
 ! R63   R(55,68)                1.0955                                         !
 ! R64   R(56,57)                1.4696                                         !
 ! R65   R(56,69)                1.0966                                         !
 ! R66   R(56,70)                1.0943                                         !
 ! R67   R(57,58)                1.3409                                         !
 ! R68   R(57,71)                1.011                                          !
 ! R69   R(58,59)                1.3377                                         !
 ! R70   R(58,60)                1.3401                                         !
 ! R71   R(59,72)                1.0286                                         !
 ! R72   R(59,73)                1.0106                                         !
 ! R73   R(60,74)                1.0154                                         !
 ! R74   R(60,75)                1.0128                                         !
 ! R75   R(61,62)                0.9733                                         !
 ! A1    A(2,1,14)             112.9736                                         !
 ! A2    A(2,1,15)             109.1083                                         !
 ! A3    A(14,1,15)            108.9858                                         !
 ! A4    A(1,2,3)              107.6698                                         !
 ! A5    A(1,2,5)              115.6602                                         !
 ! A6    A(1,2,9)              106.1386                                         !
 ! A7    A(3,2,5)              113.5866                                         !
 ! A8    A(3,2,9)              105.2788                                         !
 ! A9    A(5,2,9)              107.7569                                         !
 ! A10   A(2,3,4)              121.7135                                         !
 ! A11   A(2,3,16)             117.4984                                         !
 ! A12   A(4,3,16)             120.6541                                         !
 ! A13   A(2,5,6)              112.5301                                         !
 ! A14   A(2,5,10)             110.4183                                         !
 ! A15   A(2,5,11)             111.0564                                         !
 ! A16   A(6,5,10)             108.7814                                         !
 ! A17   A(6,5,11)             107.0385                                         !
 ! A18   A(10,5,11)            106.7873                                         !
 ! A19   A(5,6,7)              114.327                                          !
 ! A20   A(5,6,8)              123.1401                                         !
 ! A21   A(7,6,8)              122.4949                                         !
 ! A22   A(6,7,12)             115.9256                                         !
 ! A23   A(6,7,13)             120.3368                                         !
 ! A24   A(12,7,13)            116.256                                          !
 ! A25   A(3,16,17)            121.4326                                         !
 ! A26   A(3,16,27)            119.9861                                         !
 ! A27   A(17,16,27)           116.5961                                         !
 ! A28   A(16,17,18)           110.5577                                         !
 ! A29   A(16,17,20)           112.63                                           !
 ! A30   A(16,17,28)           105.2483                                         !
 ! A31   A(18,17,20)           112.2165                                         !
 ! A32   A(18,17,28)           107.7163                                         !
 ! A33   A(20,17,28)           108.0784                                         !
 ! A34   A(17,18,19)           121.3406                                         !
 ! A35   A(17,18,36)           119.1341                                         !
 ! A36   A(19,18,36)           119.4988                                         !
 ! A37   A(17,20,21)           114.9258                                         !
 ! A38   A(17,20,29)           107.9661                                         !
 ! A39   A(17,20,30)           106.2566                                         !
 ! A40   A(21,20,29)           110.0463                                         !
 ! A41   A(21,20,30)           109.9073                                         !
 ! A42   A(29,20,30)           107.4226                                         !
 ! A43   A(20,21,22)           120.9211                                         !
 ! A44   A(20,21,23)           120.9832                                         !
 ! A45   A(22,21,23)           118.0957                                         !
 ! A46   A(21,22,24)           121.1268                                         !
 ! A47   A(21,22,31)           119.4625                                         !
 ! A48   A(24,22,31)           119.3707                                         !
 ! A49   A(21,23,25)           120.9118                                         !
 ! A50   A(21,23,32)           119.0335                                         !
 ! A51   A(25,23,32)           120.0534                                         !
 ! A52   A(22,24,26)           120.1007                                         !
 ! A53   A(22,24,33)           119.749                                          !
 ! A54   A(26,24,33)           120.1283                                         !
 ! A55   A(23,25,26)           120.2819                                         !
 ! A56   A(23,25,34)           119.6985                                         !
 ! A57   A(26,25,34)           120.0194                                         !
 ! A58   A(24,26,25)           119.4127                                         !
 ! A59   A(24,26,35)           120.3053                                         !
 ! A60   A(25,26,35)           120.2561                                         !
 ! A61   A(18,36,37)           132.5391                                         !
 ! A62   A(18,36,44)           115.5045                                         !
 ! A63   A(37,36,44)           111.4102                                         !
 ! A64   A(36,37,38)           113.0113                                         !
 ! A65   A(36,37,40)           110.1752                                         !
 ! A66   A(36,37,45)           110.7399                                         !
 ! A67   A(38,37,40)           107.8132                                         !
 ! A68   A(38,37,45)           107.621                                          !
 ! A69   A(40,37,45)           107.2579                                         !
 ! A70   A(37,38,39)           120.2548                                         !
 ! A71   A(37,38,50)           117.9944                                         !
 ! A72   A(39,38,50)           121.7406                                         !
 ! A73   A(37,40,41)           112.2871                                         !
 ! A74   A(37,40,46)           109.0561                                         !
 ! A75   A(37,40,47)           108.288                                          !
 ! A76   A(41,40,46)           108.6477                                         !
 ! A77   A(41,40,47)           110.511                                          !
 ! A78   A(46,40,47)           107.9497                                         !
 ! A79   A(40,41,42)           116.0633                                         !
 ! A80   A(40,41,43)           121.9601                                         !
 ! A81   A(42,41,43)           121.962                                          !
 ! A82   A(41,42,48)           119.056                                          !
 ! A83   A(41,42,49)           122.5011                                         !
 ! A84   A(48,42,49)           118.4289                                         !
 ! A85   A(38,50,51)           119.4361                                         !
 ! A86   A(38,50,63)           120.3681                                         !
 ! A87   A(51,50,63)           120.1712                                         !
 ! A88   A(50,51,52)           110.3786                                         !
 ! A89   A(50,51,54)           112.789                                          !
 ! A90   A(50,51,64)           106.9139                                         !
 ! A91   A(52,51,54)           112.344                                          !
 ! A92   A(52,51,64)           107.4776                                         !
 ! A93   A(54,51,64)           106.5715                                         !
 ! A94   A(51,52,53)           124.3204                                         !
 ! A95   A(51,52,61)           116.4729                                         !
 ! A96   A(53,52,61)           119.1683                                         !
 ! A97   A(51,54,55)           118.9752                                         !
 ! A98   A(51,54,65)           108.2466                                         !
 ! A99   A(51,54,66)           105.4478                                         !
 ! A100  A(55,54,65)           107.4234                                         !
 ! A101  A(55,54,66)           110.4367                                         !
 ! A102  A(65,54,66)           105.5383                                         !
 ! A103  A(54,55,56)           117.761                                          !
 ! A104  A(54,55,67)           110.2427                                         !
 ! A105  A(54,55,68)           106.6718                                         !
 ! A106  A(56,55,67)           109.1718                                         !
 ! A107  A(56,55,68)           107.0099                                         !
 ! A108  A(67,55,68)           105.1774                                         !
 ! A109  A(55,56,57)           110.3754                                         !
 ! A110  A(55,56,69)           109.2307                                         !
 ! A111  A(55,56,70)           110.1953                                         !
 ! A112  A(57,56,69)           109.3588                                         !
 ! A113  A(57,56,70)           109.0262                                         !
 ! A114  A(69,56,70)           108.6247                                         !
 ! A115  A(56,57,58)           127.2261                                         !
 ! A116  A(56,57,71)           117.0344                                         !
 ! A117  A(58,57,71)           115.5057                                         !
 ! A118  A(57,58,59)           121.9737                                         !
 ! A119  A(57,58,60)           118.5023                                         !
 ! A120  A(59,58,60)           119.5223                                         !
 ! A121  A(58,59,72)           117.0501                                         !
 ! A122  A(58,59,73)           119.9706                                         !
 ! A123  A(72,59,73)           118.0511                                         !
 ! A124  A(58,60,74)           121.5047                                         !
 ! A125  A(58,60,75)           120.1975                                         !
 ! A126  A(74,60,75)           117.4163                                         !
 ! A127  A(52,61,62)           111.9558                                         !
 ! D1    D(14,1,2,3)            70.8715                                         !
 ! D2    D(14,1,2,5)           -57.3669                                         !
 ! D3    D(14,1,2,9)          -176.7892                                         !
 ! D4    D(15,1,2,3)          -167.7404                                         !
 ! D5    D(15,1,2,5)            64.0212                                         !
 ! D6    D(15,1,2,9)           -55.4011                                         !
 ! D7    D(1,2,3,4)             50.6328                                         !
 ! D8    D(1,2,3,16)          -125.185                                          !
 ! D9    D(5,2,3,4)           -179.9479                                         !
 ! D10   D(5,2,3,16)             4.2344                                         !
 ! D11   D(9,2,3,4)            -62.2866                                         !
 ! D12   D(9,2,3,16)           121.8956                                         !
 ! D13   D(1,2,5,6)            -51.6628                                         !
 ! D14   D(1,2,5,10)            70.0967                                         !
 ! D15   D(1,2,5,11)          -171.6383                                         !
 ! D16   D(3,2,5,6)           -176.916                                          !
 ! D17   D(3,2,5,10)           -55.1566                                         !
 ! D18   D(3,2,5,11)            63.1084                                         !
 ! D19   D(9,2,5,6)             66.869                                          !
 ! D20   D(9,2,5,10)          -171.3715                                         !
 ! D21   D(9,2,5,11)           -53.1065                                         !
 ! D22   D(2,3,16,17)         -174.9505                                         !
 ! D23   D(2,3,16,27)          -11.5251                                         !
 ! D24   D(4,3,16,17)            9.1852                                         !
 ! D25   D(4,3,16,27)          172.6106                                         !
 ! D26   D(2,5,6,7)            157.618                                          !
 ! D27   D(2,5,6,8)            -20.1869                                         !
 ! D28   D(10,5,6,7)            34.9337                                         !
 ! D29   D(10,5,6,8)          -142.8712                                         !
 ! D30   D(11,5,6,7)           -80.1085                                         !
 ! D31   D(11,5,6,8)           102.0866                                         !
 ! D32   D(5,6,7,12)           168.1697                                         !
 ! D33   D(5,6,7,13)            19.4749                                         !
 ! D34   D(8,6,7,12)           -14.0095                                         !
 ! D35   D(8,6,7,13)          -162.7043                                         !
 ! D36   D(3,16,17,18)        -121.6093                                         !
 ! D37   D(3,16,17,20)         111.9601                                         !
 ! D38   D(3,16,17,28)          -5.5632                                         !
 ! D39   D(27,16,17,18)         74.4313                                         !
 ! D40   D(27,16,17,20)        -51.9993                                         !
 ! D41   D(27,16,17,28)       -169.5226                                         !
 ! D42   D(16,17,18,19)       -131.5038                                         !
 ! D43   D(16,17,18,36)         46.6119                                         !
 ! D44   D(20,17,18,19)         -4.8429                                         !
 ! D45   D(20,17,18,36)        173.2727                                         !
 ! D46   D(28,17,18,19)        113.997                                          !
 ! D47   D(28,17,18,36)        -67.8873                                         !
 ! D48   D(16,17,20,21)         58.3701                                         !
 ! D49   D(16,17,20,29)       -178.3959                                         !
 ! D50   D(16,17,20,30)        -63.4077                                         !
 ! D51   D(18,17,20,21)        -67.1658                                         !
 ! D52   D(18,17,20,29)         56.0682                                         !
 ! D53   D(18,17,20,30)        171.0564                                         !
 ! D54   D(28,17,20,21)        174.2075                                         !
 ! D55   D(28,17,20,29)        -62.5585                                         !
 ! D56   D(28,17,20,30)         52.4297                                         !
 ! D57   D(17,18,36,37)         10.1119                                         !
 ! D58   D(17,18,36,44)       -179.2503                                         !
 ! D59   D(19,18,36,37)       -171.7372                                         !
 ! D60   D(19,18,36,44)         -1.0994                                         !
 ! D61   D(17,20,21,22)        -76.5338                                         !
 ! D62   D(17,20,21,23)        103.4192                                         !
 ! D63   D(29,20,21,22)        161.3494                                         !
 ! D64   D(29,20,21,23)        -18.6976                                         !
 ! D65   D(30,20,21,22)         43.2422                                         !
 ! D66   D(30,20,21,23)       -136.8048                                         !
 ! D67   D(20,21,22,24)        177.0883                                         !
 ! D68   D(20,21,22,31)         -5.225                                          !
 ! D69   D(23,21,22,24)         -2.866                                          !
 ! D70   D(23,21,22,31)        174.8207                                         !
 ! D71   D(20,21,23,25)       -178.3282                                         !
 ! D72   D(20,21,23,32)          1.2575                                         !
 ! D73   D(22,21,23,25)          1.6261                                         !
 ! D74   D(22,21,23,32)       -178.7882                                         !
 ! D75   D(21,22,24,26)          1.6978                                         !
 ! D76   D(21,22,24,33)        179.9927                                         !
 ! D77   D(31,22,24,26)       -175.991                                          !
 ! D78   D(31,22,24,33)          2.304                                          !
 ! D79   D(21,23,25,26)          0.7824                                         !
 ! D80   D(21,23,25,34)       -179.032                                          !
 ! D81   D(32,23,25,26)       -178.7991                                         !
 ! D82   D(32,23,25,34)          1.3865                                         !
 ! D83   D(22,24,26,25)          0.7705                                         !
 ! D84   D(22,24,26,35)        178.9224                                         !
 ! D85   D(33,24,26,25)       -177.5179                                         !
 ! D86   D(33,24,26,35)          0.6339                                         !
 ! D87   D(23,25,26,24)         -1.995                                          !
 ! D88   D(23,25,26,35)        179.8522                                         !
 ! D89   D(34,25,26,24)        177.8188                                         !
 ! D90   D(34,25,26,35)         -0.334                                          !
 ! D91   D(18,36,37,38)       -110.1068                                         !
 ! D92   D(18,36,37,40)        129.2201                                         !
 ! D93   D(18,36,37,45)         10.7237                                         !
 ! D94   D(44,36,37,38)         78.967                                          !
 ! D95   D(44,36,37,40)        -41.7062                                         !
 ! D96   D(44,36,37,45)       -160.2025                                         !
 ! D97   D(36,37,38,39)       -163.9343                                         !
 ! D98   D(36,37,38,50)         14.9259                                         !
 ! D99   D(40,37,38,39)        -41.926                                          !
 ! D100  D(40,37,38,50)        136.9342                                         !
 ! D101  D(45,37,38,39)         73.4788                                         !
 ! D102  D(45,37,38,50)       -107.661                                          !
 ! D103  D(36,37,40,41)         62.5426                                         !
 ! D104  D(36,37,40,46)        -57.9333                                         !
 ! D105  D(36,37,40,47)       -175.1627                                         !
 ! D106  D(38,37,40,41)        -61.2026                                         !
 ! D107  D(38,37,40,46)        178.3214                                         !
 ! D108  D(38,37,40,47)         61.0921                                         !
 ! D109  D(45,37,40,41)       -176.8463                                         !
 ! D110  D(45,37,40,46)         62.6778                                         !
 ! D111  D(45,37,40,47)        -54.5515                                         !
 ! D112  D(37,38,50,51)       -176.0526                                         !
 ! D113  D(37,38,50,63)          5.7503                                         !
 ! D114  D(39,38,50,51)          2.7897                                         !
 ! D115  D(39,38,50,63)       -175.4074                                         !
 ! D116  D(37,40,41,42)        156.5297                                         !
 ! D117  D(37,40,41,43)        -24.8325                                         !
 ! D118  D(46,40,41,42)        -82.7585                                         !
 ! D119  D(46,40,41,43)         95.8793                                         !
 ! D120  D(47,40,41,42)         35.5045                                         !
 ! D121  D(47,40,41,43)       -145.8577                                         !
 ! D122  D(40,41,42,48)        176.8689                                         !
 ! D123  D(40,41,42,49)         -4.5128                                         !
 ! D124  D(43,41,42,48)         -1.7689                                         !
 ! D125  D(43,41,42,49)        176.8495                                         !
 ! D126  D(38,50,51,52)       -157.9155                                         !
 ! D127  D(38,50,51,54)         75.5038                                         !
 ! D128  D(38,50,51,64)        -41.3109                                         !
 ! D129  D(63,50,51,52)         20.2852                                         !
 ! D130  D(63,50,51,54)       -106.2955                                         !
 ! D131  D(63,50,51,64)        136.8898                                         !
 ! D132  D(50,51,52,53)         -7.0492                                         !
 ! D133  D(50,51,52,61)        175.2297                                         !
 ! D134  D(54,51,52,53)        119.7797                                         !
 ! D135  D(54,51,52,61)        -57.9415                                         !
 ! D136  D(64,51,52,53)       -123.3028                                         !
 ! D137  D(64,51,52,61)         58.9761                                         !
 ! D138  D(50,51,54,55)         79.117                                          !
 ! D139  D(50,51,54,65)       -157.998                                          !
 ! D140  D(50,51,54,66)        -45.4322                                         !
 ! D141  D(52,51,54,55)        -46.4077                                         !
 ! D142  D(52,51,54,65)         76.4773                                         !
 ! D143  D(52,51,54,66)       -170.957                                          !
 ! D144  D(64,51,54,55)       -163.8655                                         !
 ! D145  D(64,51,54,65)        -40.9804                                         !
 ! D146  D(64,51,54,66)         71.5853                                         !
 ! D147  D(51,52,61,62)         -9.2358                                         !
 ! D148  D(53,52,61,62)        172.9196                                         !
 ! D149  D(51,54,55,56)        -60.279                                          !
 ! D150  D(51,54,55,67)         65.854                                          !
 ! D151  D(51,54,55,68)        179.5402                                         !
 ! D152  D(65,54,55,56)        176.4295                                         !
 ! D153  D(65,54,55,67)        -57.4375                                         !
 ! D154  D(65,54,55,68)         56.2487                                         !
 ! D155  D(66,54,55,56)         61.8116                                         !
 ! D156  D(66,54,55,67)       -172.0554                                         !
 ! D157  D(66,54,55,68)        -58.3692                                         !
 ! D158  D(54,55,56,57)         81.9094                                         !
 ! D159  D(54,55,56,69)       -157.8213                                         !
 ! D160  D(54,55,56,70)        -38.5652                                         !
 ! D161  D(67,55,56,57)        -44.744                                          !
 ! D162  D(67,55,56,69)         75.5253                                         !
 ! D163  D(67,55,56,70)       -165.2186                                         !
 ! D164  D(68,55,56,57)       -158.0864                                         !
 ! D165  D(68,55,56,69)        -37.8171                                         !
 ! D166  D(68,55,56,70)         81.439                                          !
 ! D167  D(55,56,57,58)       -148.4544                                         !
 ! D168  D(55,56,57,71)         25.7071                                         !
 ! D169  D(69,56,57,58)         91.3532                                         !
 ! D170  D(69,56,57,71)        -94.4853                                         !
 ! D171  D(70,56,57,58)        -27.2816                                         !
 ! D172  D(70,56,57,71)        146.8799                                         !
 ! D173  D(56,57,58,59)        -19.8783                                         !
 ! D174  D(56,57,58,60)        160.6089                                         !
 ! D175  D(71,57,58,59)        165.8836                                         !
 ! D176  D(71,57,58,60)        -13.6292                                         !
 ! D177  D(57,58,59,72)        157.0115                                         !
 ! D178  D(57,58,59,73)          2.3248                                         !
 ! D179  D(60,58,59,72)        -23.4805                                         !
 ! D180  D(60,58,59,73)       -178.1673                                         !
 ! D181  D(57,58,60,74)        176.1288                                         !
 ! D182  D(57,58,60,75)        -14.897                                          !
 ! D183  D(59,58,60,74)         -3.3962                                         !
 ! D184  D(59,58,60,75)        165.578                                          !
 --------------------------------------------------------------------------------
 Symmetry turned off by external request.
 Stoichiometry    C23H36N9O7(1+)
 Framework group  C1[X(C23H36N9O7)]
 Deg. of freedom   219
 Full point group                 C1      NOp   1
                          Input orientation:                          
 ---------------------------------------------------------------------
 Center     Atomic      Atomic             Coordinates (Angstroms)
 Number     Number       Type             X           Y           Z
 ---------------------------------------------------------------------
      1          7           0       -9.382080    1.384823   -6.055554
      2          6           0       -9.554738   -0.007477   -5.665783
      3          6           0       -8.206538   -0.507088   -5.102028
      4          8           0       -7.601706    0.112447   -4.239695
      5          6           0      -10.155069   -0.935067   -6.745731
      6          6           0      -11.449352   -0.380722   -7.340205
      7          7           0      -11.757877   -0.875017   -8.585898
      8          8           0      -12.133773    0.460707   -6.780755
      9          1           0      -10.240819   -0.001740   -4.811132
     10          1           0       -9.436114   -1.094460   -7.554369
     11          1           0      -10.390132   -1.926575   -6.329268
     12          1           0      -12.691720   -0.673671   -8.923555
     13          1           0      -11.340378   -1.737696   -8.911370
     14          1           0       -8.798414    1.496557   -6.881352
     15          1           0      -10.293677    1.794828   -6.237189
     16          7           0       -7.657643   -1.641269   -5.671078
     17          6           0       -6.447234   -2.249262   -5.136688
     18          6           0       -5.352461   -2.306540   -6.212134
     19          8           0       -4.715742   -3.349788   -6.430549
     20          6           0       -6.709652   -3.634183   -4.493517
     21          6           0       -7.321822   -4.664158   -5.422118
     22          6           0       -8.684512   -4.615925   -5.754578
     23          6           0       -6.541846   -5.693429   -5.975298
     24          6           0       -9.241063   -5.527336   -6.657752
     25          6           0       -7.099793   -6.621381   -6.858188
     26          6           0       -8.448107   -6.529069   -7.219383
     27          1           0       -8.208581   -2.207774   -6.299035
     28          1           0       -6.105619   -1.567343   -4.348725
     29          1           0       -5.762162   -4.005616   -4.094481
     30          1           0       -7.376480   -3.455842   -3.642772
     31          1           0       -9.326616   -3.881528   -5.274087
     32          1           0       -5.490909   -5.756897   -5.712828
     33          1           0      -10.298917   -5.469651   -6.898998
     34          1           0       -6.482134   -7.418991   -7.262141
     35          1           0       -8.880813   -7.249242   -7.907617
     36          7           0       -5.104960   -1.202740   -6.962816
     37          6           0       -5.553284    0.179913   -6.859346
     38          6           0       -6.533566    0.581081   -7.979670
     39          8           0       -6.766689    1.766156   -8.202981
     40          6           0       -4.345229    1.137237   -6.924111
     41          6           0       -3.602163    1.043505   -8.256388
     42          7           0       -2.879919    2.123521   -8.607965
     43          8           0       -3.641319    0.021532   -8.960212
     44          1           0       -4.377944   -1.305415   -7.665497
     45          1           0       -6.053578    0.353776   -5.904426
     46          1           0       -3.647729    0.888690   -6.115395
     47          1           0       -4.705235    2.155399   -6.757298
     48          1           0       -2.331691    2.092613   -9.457533
     49          1           0       -2.878826    2.975610   -8.065757
     50          7           0       -7.103370   -0.411985   -8.716008
     51          6           0       -7.962342   -0.068169   -9.832231
     52          6           0       -8.894807   -1.225843  -10.159712
     53          8           0       -8.827850   -2.328518   -9.645569
     54          6           0       -7.165442    0.421474  -11.078647
     55          6           0       -6.490731   -0.621205  -11.989768
     56          6           0       -5.424858   -1.536917  -11.363850
     57          7           0       -6.062853   -2.660359  -10.663500
     58          6           0       -5.612053   -3.297931   -9.573379
     59          7           0       -4.328155   -3.244346   -9.201648
     60          7           0       -6.480389   -4.015231   -8.847204
     61          8           0       -9.810563   -1.003756  -11.109595
     62          1           0       -9.846731   -0.066061  -11.368109
     63          1           0       -6.952264   -1.378653   -8.471740
     64          1           0       -8.586142    0.776393   -9.507375
     65          1           0       -7.840836    1.018218  -11.705872
     66          1           0       -6.424636    1.127173  -10.692016
     67          1           0       -7.251453   -1.240346  -12.488084
     68          1           0       -6.001149   -0.064107  -12.796099
     69          1           0       -4.772473   -1.925200  -12.155156
     70          1           0       -4.813670   -0.973602  -10.652041
     71          1           0       -6.981555   -2.938004  -10.981494
     72          1           0       -4.119698   -3.429702   -8.211617
     73          1           0       -3.673075   -2.683180   -9.728279
     74          1           0       -6.178050   -4.562704   -8.047210
     75          1           0       -7.477183   -3.894540   -8.979832
 ---------------------------------------------------------------------
 Rotational constants (GHZ):           0.1067119           0.0962483           0.0843293
 Standard basis: 6-31G(d) (6D, 7F)
   657 basis functions,  1236 primitive gaussians,   657 cartesian basis functions
   146 alpha electrons      146 beta electrons
       nuclear repulsion energy      5259.4677434874 Hartrees.
 NAtoms=   75 NActive=   75 NUniq=   75 SFac= 1.00D+00 NAtFMM=   60 NAOKFM=T Big=T
 Integral buffers will be    131072 words long.
 Raffenetti 2 integral format.
 Two-electron integral symmetry is turned off.
 Nuclear repulsion after empirical dispersion term =     5259.3389520878 Hartrees.
 One-electron integrals computed using PRISM.
 NBasis=   657 RedAO= T EigKep=  4.72D-04  NBF=   657
 NBsUse=   657 1.00D-06 EigRej= -1.00D+00 NBFU=   657
 Initial guess from the checkpoint file:  "conf-684.chk"
 B after Tr=     0.000000    0.000000    0.000000
         Rot=    1.000000    0.000000    0.000000    0.000000 Ang=   0.00 deg.
 Requested convergence on RMS density matrix=1.00D-08 within 128 cycles.
 Requested convergence on MAX density matrix=1.00D-06.
 Requested convergence on             energy=1.00D-06.
 No special actions if energy rises.
 SCF Done:  E(RB3LYP) =  -1917.49650014     A.U. after    3 cycles
            NFock=  3  Conv=0.72D-09     -V/T= 2.0093

 **********************************************************************

            Population analysis using the SCF Density.

 **********************************************************************

 Alpha  occ. eigenvalues --  -19.34031 -19.28820 -19.24336 -19.24181 -19.23538
 Alpha  occ. eigenvalues --  -19.20894 -19.20585 -14.51157 -14.49818 -14.49793
 Alpha  occ. eigenvalues --  -14.48683 -14.47920 -14.47708 -14.46454 -14.44725
 Alpha  occ. eigenvalues --  -14.38638 -10.47019 -10.46897 -10.41784 -10.41193
 Alpha  occ. eigenvalues --  -10.40817 -10.38294 -10.38164 -10.37729 -10.35849
 Alpha  occ. eigenvalues --  -10.35554 -10.34191 -10.32576 -10.32535 -10.31567
 Alpha  occ. eigenvalues --  -10.31388 -10.29890 -10.29231 -10.29180 -10.29117
 Alpha  occ. eigenvalues --  -10.29031 -10.28925 -10.28793 -10.28559  -1.25080
 Alpha  occ. eigenvalues --   -1.16830  -1.16302  -1.15820  -1.15458  -1.15281
 Alpha  occ. eigenvalues --   -1.13148  -1.12440  -1.05811  -1.05084  -1.04254
 Alpha  occ. eigenvalues --   -1.03252  -1.02743  -1.02489  -0.99446  -0.96670
 Alpha  occ. eigenvalues --   -0.95473  -0.93272  -0.90088  -0.88771  -0.88195
 Alpha  occ. eigenvalues --   -0.85322  -0.84358  -0.83393  -0.82337  -0.79847
 Alpha  occ. eigenvalues --   -0.77762  -0.77219  -0.76353  -0.75396  -0.74550
 Alpha  occ. eigenvalues --   -0.72674  -0.71381  -0.70615  -0.70558  -0.70361
 Alpha  occ. eigenvalues --   -0.69151  -0.68944  -0.68595  -0.67586  -0.66754
 Alpha  occ. eigenvalues --   -0.65472  -0.64494  -0.63944  -0.63660  -0.62890
 Alpha  occ. eigenvalues --   -0.62690  -0.62256  -0.61081  -0.60769  -0.60334
 Alpha  occ. eigenvalues --   -0.60246  -0.59560  -0.59015  -0.58187  -0.57384
 Alpha  occ. eigenvalues --   -0.57119  -0.56662  -0.55978  -0.55918  -0.55457
 Alpha  occ. eigenvalues --   -0.55282  -0.54868  -0.54473  -0.53904  -0.53580
 Alpha  occ. eigenvalues --   -0.53348  -0.53105  -0.52553  -0.52502  -0.51818
 Alpha  occ. eigenvalues --   -0.51539  -0.51296  -0.50909  -0.50396  -0.49736
 Alpha  occ. eigenvalues --   -0.49381  -0.48912  -0.48643  -0.48488  -0.47880
 Alpha  occ. eigenvalues --   -0.47752  -0.47676  -0.47182  -0.46690  -0.46103
 Alpha  occ. eigenvalues --   -0.45939  -0.45501  -0.44062  -0.43645  -0.43254
 Alpha  occ. eigenvalues --   -0.42574  -0.41581  -0.40228  -0.39883  -0.39209
 Alpha  occ. eigenvalues --   -0.38669  -0.38451  -0.37811  -0.36428  -0.36046
 Alpha  occ. eigenvalues --   -0.35901  -0.35166  -0.34712  -0.34070  -0.33624
 Alpha  occ. eigenvalues --   -0.30869
 Alpha virt. eigenvalues --   -0.14356  -0.11640  -0.11197  -0.10719  -0.10204
 Alpha virt. eigenvalues --   -0.09842  -0.09688  -0.08183  -0.07606  -0.06657
 Alpha virt. eigenvalues --   -0.05010  -0.03323  -0.02657  -0.02501  -0.02110
 Alpha virt. eigenvalues --   -0.01092  -0.00420   0.00051   0.00557   0.00850
 Alpha virt. eigenvalues --    0.01543   0.01772   0.02039   0.02440   0.02901
 Alpha virt. eigenvalues --    0.03568   0.03970   0.04043   0.04461   0.04689
 Alpha virt. eigenvalues --    0.05054   0.05277   0.05520   0.06058   0.06392
 Alpha virt. eigenvalues --    0.06602   0.07065   0.07366   0.07433   0.07985
 Alpha virt. eigenvalues --    0.08308   0.08452   0.08821   0.09297   0.09499
 Alpha virt. eigenvalues --    0.09843   0.09965   0.10714   0.11169   0.11339
 Alpha virt. eigenvalues --    0.11574   0.12169   0.12566   0.12699   0.13326
 Alpha virt. eigenvalues --    0.13835   0.14014   0.14513   0.14759   0.16090
 Alpha virt. eigenvalues --    0.16544   0.16875   0.17677   0.18931   0.20717
 Alpha virt. eigenvalues --    0.21614   0.21727   0.22328   0.22993   0.23334
 Alpha virt. eigenvalues --    0.23888   0.24022   0.24936   0.25447   0.25723
 Alpha virt. eigenvalues --    0.26108   0.27552   0.28240   0.29489   0.30614
 Alpha virt. eigenvalues --    0.30977   0.32433   0.34443   0.34663   0.36252
 Alpha virt. eigenvalues --    0.36757   0.37240   0.38444   0.38876   0.39369
 Alpha virt. eigenvalues --    0.39928   0.40540   0.41340   0.42642   0.42706
 Alpha virt. eigenvalues --    0.43413   0.43508   0.44416   0.44502   0.45604
 Alpha virt. eigenvalues --    0.45736   0.46013   0.46246   0.46400   0.47262
 Alpha virt. eigenvalues --    0.48052   0.48169   0.48380   0.48854   0.49565
 Alpha virt. eigenvalues --    0.49665   0.49861   0.50068   0.50797   0.51470
 Alpha virt. eigenvalues --    0.51707   0.52012   0.52301   0.52620   0.52900
 Alpha virt. eigenvalues --    0.53129   0.53863   0.54435   0.54579   0.55067
 Alpha virt. eigenvalues --    0.55361   0.55370   0.56397   0.56867   0.57277
 Alpha virt. eigenvalues --    0.57938   0.58486   0.58852   0.59355   0.59918
 Alpha virt. eigenvalues --    0.60030   0.60957   0.61157   0.61636   0.62640
 Alpha virt. eigenvalues --    0.63030   0.63301   0.63818   0.63858   0.64322
 Alpha virt. eigenvalues --    0.64913   0.65637   0.66085   0.66493   0.67313
 Alpha virt. eigenvalues --    0.68181   0.68427   0.69115   0.69570   0.70083
 Alpha virt. eigenvalues --    0.71136   0.71370   0.71654   0.72116   0.72539
 Alpha virt. eigenvalues --    0.72899   0.73468   0.74166   0.74389   0.74628
 Alpha virt. eigenvalues --    0.74842   0.75069   0.75368   0.75551   0.76015
 Alpha virt. eigenvalues --    0.76159   0.76498   0.77445   0.77552   0.78129
 Alpha virt. eigenvalues --    0.78282   0.78547   0.78832   0.79243   0.79512
 Alpha virt. eigenvalues --    0.80450   0.80926   0.81281   0.81535   0.81998
 Alpha virt. eigenvalues --    0.82345   0.82633   0.83023   0.83288   0.83361
 Alpha virt. eigenvalues --    0.84143   0.84862   0.85140   0.85628   0.86476
 Alpha virt. eigenvalues --    0.86681   0.87297   0.87566   0.88521   0.88719
 Alpha virt. eigenvalues --    0.88793   0.89345   0.90150   0.90871   0.91153
 Alpha virt. eigenvalues --    0.91649   0.92157   0.92938   0.93348   0.94534
 Alpha virt. eigenvalues --    0.95415   0.95698   0.96787   0.97219   0.97420
 Alpha virt. eigenvalues --    0.99460   0.99930   1.00520   1.01043   1.01258
 Alpha virt. eigenvalues --    1.02304   1.03207   1.03823   1.04672   1.05403
 Alpha virt. eigenvalues --    1.05810   1.06716   1.07047   1.08134   1.08467
 Alpha virt. eigenvalues --    1.09118   1.09296   1.10705   1.12046   1.12513
 Alpha virt. eigenvalues --    1.12904   1.14227   1.15176   1.15715   1.16043
 Alpha virt. eigenvalues --    1.16771   1.16992   1.17677   1.18550   1.19611
 Alpha virt. eigenvalues --    1.20119   1.20724   1.21446   1.21926   1.22885
 Alpha virt. eigenvalues --    1.23749   1.24549   1.24920   1.26101   1.26702
 Alpha virt. eigenvalues --    1.27581   1.27873   1.28336   1.30450   1.30837
 Alpha virt. eigenvalues --    1.31333   1.31947   1.32573   1.32923   1.33690
 Alpha virt. eigenvalues --    1.33956   1.34896   1.35592   1.36597   1.37601
 Alpha virt. eigenvalues --    1.38116   1.39099   1.39337   1.39978   1.41326
 Alpha virt. eigenvalues --    1.42111   1.42435   1.43630   1.44053   1.45182
 Alpha virt. eigenvalues --    1.46044   1.46907   1.47661   1.48480   1.49409
 Alpha virt. eigenvalues --    1.50452   1.51822   1.53413   1.53755   1.54170
 Alpha virt. eigenvalues --    1.54491   1.56352   1.56967   1.57501   1.58234
 Alpha virt. eigenvalues --    1.58746   1.60017   1.60560   1.60886   1.61777
 Alpha virt. eigenvalues --    1.62681   1.63242   1.63707   1.64169   1.65523
 Alpha virt. eigenvalues --    1.66545   1.67666   1.68122   1.68307   1.68569
 Alpha virt. eigenvalues --    1.68996   1.70156   1.70230   1.70978   1.71800
 Alpha virt. eigenvalues --    1.72703   1.72852   1.73323   1.73988   1.74184
 Alpha virt. eigenvalues --    1.74717   1.74881   1.75476   1.75650   1.76478
 Alpha virt. eigenvalues --    1.77237   1.77824   1.78643   1.78868   1.79266
 Alpha virt. eigenvalues --    1.79666   1.80082   1.80882   1.81586   1.82231
 Alpha virt. eigenvalues --    1.82546   1.82975   1.83995   1.84753   1.85094
 Alpha virt. eigenvalues --    1.85661   1.86312   1.86505   1.87157   1.88543
 Alpha virt. eigenvalues --    1.88694   1.89327   1.89712   1.90562   1.91930
 Alpha virt. eigenvalues --    1.92326   1.93241   1.93612   1.94220   1.94649
 Alpha virt. eigenvalues --    1.95216   1.95662   1.96942   1.97647   1.97864
 Alpha virt. eigenvalues --    1.99109   1.99781   2.00685   2.01437   2.01665
 Alpha virt. eigenvalues --    2.03222   2.04051   2.04459   2.05015   2.05342
 Alpha virt. eigenvalues --    2.05523   2.05991   2.06834   2.07592   2.07903
 Alpha virt. eigenvalues --    2.09443   2.10088   2.10695   2.11022   2.12761
 Alpha virt. eigenvalues --    2.13440   2.13839   2.14290   2.14946   2.15306
 Alpha virt. eigenvalues --    2.16461   2.17932   2.18617   2.18932   2.20330
 Alpha virt. eigenvalues --    2.21221   2.22285   2.22919   2.23765   2.24504
 Alpha virt. eigenvalues --    2.25314   2.26436   2.27208   2.28035   2.29265
 Alpha virt. eigenvalues --    2.30308   2.31125   2.31828   2.31890   2.33354
 Alpha virt. eigenvalues --    2.34439   2.36059   2.36415   2.36576   2.38491
 Alpha virt. eigenvalues --    2.38859   2.40084   2.40307   2.42013   2.43676
 Alpha virt. eigenvalues --    2.43813   2.44481   2.45477   2.46522   2.47155
 Alpha virt. eigenvalues --    2.47710   2.48426   2.49529   2.49718   2.50299
 Alpha virt. eigenvalues --    2.50575   2.51591   2.51839   2.52847   2.53542
 Alpha virt. eigenvalues --    2.53987   2.54955   2.55506   2.55699   2.56187
 Alpha virt. eigenvalues --    2.57437   2.57804   2.59644   2.60264   2.61346
 Alpha virt. eigenvalues --    2.63011   2.64133   2.64820   2.65406   2.67109
 Alpha virt. eigenvalues --    2.67209   2.67787   2.73109   2.74305   2.75468
 Alpha virt. eigenvalues --    2.75990   2.77843   2.80203   2.83259   2.84704
 Alpha virt. eigenvalues --    2.88251   2.89345   2.91057   2.91547   2.92310
 Alpha virt. eigenvalues --    2.92937   2.93157   2.94742   2.96201   2.96454
 Alpha virt. eigenvalues --    2.97653   2.98142   2.99816   3.05385   3.06692
 Alpha virt. eigenvalues --    3.10920   3.30498   3.69558   3.72176   3.74830
 Alpha virt. eigenvalues --    3.78375   3.80678   3.83285   3.87119   3.90031
 Alpha virt. eigenvalues --    3.95718   3.97513   3.99062   4.00567   4.01574
 Alpha virt. eigenvalues --    4.04190   4.06851   4.07471   4.08975   4.10620
 Alpha virt. eigenvalues --    4.13018   4.14107   4.17616   4.18172   4.20304
 Alpha virt. eigenvalues --    4.23105   4.25118   4.27163   4.31268   4.33914
 Alpha virt. eigenvalues --    4.35293   4.39374   4.40979   4.43052   4.45632
 Alpha virt. eigenvalues --    4.47913   4.53145   4.57482   4.62961   4.64111
 Alpha virt. eigenvalues --    4.68737
          Condensed to atoms (all electrons):
 Mulliken charges:
               1
     1  N   -0.726786
     2  C   -0.051305
     3  C    0.608023
     4  O   -0.489910
     5  C   -0.439989
     6  C    0.596182
     7  N   -0.765124
     8  O   -0.481067
     9  H    0.200125
    10  H    0.145722
    11  H    0.171165
    12  H    0.352605
    13  H    0.346775
    14  H    0.309115
    15  H    0.337895
    16  N   -0.636424
    17  C   -0.079861
    18  C    0.622150
    19  O   -0.558354
    20  C   -0.345853
    21  C    0.162463
    22  C   -0.218304
    23  C   -0.212538
    24  C   -0.137640
    25  C   -0.147142
    26  C   -0.136412
    27  H    0.340552
    28  H    0.223153
    29  H    0.182130
    30  H    0.180652
    31  H    0.148524
    32  H    0.164048
    33  H    0.150531
    34  H    0.157567
    35  H    0.156222
    36  N   -0.639165
    37  C   -0.092557
    38  C    0.649352
    39  O   -0.535958
    40  C   -0.380133
    41  C    0.625402
    42  N   -0.728513
    43  O   -0.563835
    44  H    0.369803
    45  H    0.244233
    46  H    0.206046
    47  H    0.213058
    48  H    0.361947
    49  H    0.368765
    50  N   -0.629623
    51  C   -0.073250
    52  C    0.633848
    53  O   -0.511158
    54  C   -0.285355
    55  C   -0.318017
    56  C   -0.169950
    57  N   -0.605922
    58  C    0.759635
    59  N   -0.769810
    60  N   -0.789378
    61  O   -0.543938
    62  H    0.440713
    63  H    0.359192
    64  H    0.212202
    65  H    0.154815
    66  H    0.207266
    67  H    0.158741
    68  H    0.189000
    69  H    0.186166
    70  H    0.223876
    71  H    0.361662
    72  H    0.401871
    73  H    0.381587
    74  H    0.401429
    75  H    0.397064
 Sum of Mulliken charges =   1.00000
 Mulliken charges with hydrogens summed into heavy atoms:
               1
     1  N   -0.079775
     2  C    0.148820
     3  C    0.608023
     4  O   -0.489910
     5  C   -0.123102
     6  C    0.596182
     7  N   -0.065745
     8  O   -0.481067
    16  N   -0.295872
    17  C    0.143291
    18  C    0.622150
    19  O   -0.558354
    20  C    0.016929
    21  C    0.162463
    22  C   -0.069780
    23  C   -0.048490
    24  C    0.012891
    25  C    0.010425
    26  C    0.019810
    36  N   -0.269362
    37  C    0.151676
    38  C    0.649352
    39  O   -0.535958
    40  C    0.038970
    41  C    0.625402
    42  N    0.002199
    43  O   -0.563835
    50  N   -0.270431
    51  C    0.138952
    52  C    0.633848
    53  O   -0.511158
    54  C    0.076726
    55  C    0.029724
    56  C    0.240091
    57  N   -0.244259
    58  C    0.759635
    59  N    0.013647
    60  N    0.009115
    61  O   -0.103225
 Electronic spatial extent (au):  <R**2>=         135626.2016
 Charge=              1.0000 electrons
 Dipole moment (field-independent basis, Debye):
    X=            -28.7589    Y=             -8.8027    Z=            -47.9932  Tot=             56.6384
 Quadrupole moment (field-independent basis, Debye-Ang):
   XX=            -14.8615   YY=           -179.9888   ZZ=            262.2828
   XY=             83.6165   XZ=            305.2587   YZ=             64.2867
 Traceless Quadrupole moment (field-independent basis, Debye-Ang):
   XX=            -37.3390   YY=           -202.4663   ZZ=            239.8053
   XY=             83.6165   XZ=            305.2587   YZ=             64.2867
 Octapole moment (field-independent basis, Debye-Ang**2):
  XXX=           3119.5269  YYY=            889.3072  ZZZ=            161.0609  XYY=           1345.7577
  XXY=           -385.0219  XXZ=           -601.5638  XZZ=          -1587.0984  YZZ=           -154.4191
  YYZ=           1362.2356  XYZ=           -596.1294
 Hexadecapole moment (field-independent basis, Debye-Ang**3):
 XXXX=         -61460.9091 YYYY=          -9495.7705 ZZZZ=         -32950.0451 XXXY=          -1043.6302
 XXXZ=         -16972.3023 YYYX=          -6455.6300 YYYZ=          -6129.8049 ZZZX=          -3234.4802
 ZZZY=          -3386.7761 XXYY=         -12609.7034 XXZZ=          -2107.5495 YYZZ=         -13047.3543
 XXYZ=           2587.0860 YYXZ=         -10081.7849 ZZXY=           1839.8173
 N-N= 5.259338952088D+03 E-N=-1.495628922494D+04  KE= 1.899800971315D+03
 Unable to Open any file for archive entry.
 1\1\GINC-NAL-001\SP\RB3LYP\6-31G(d)\C23H36N9O7(1+)\KENGMITH\03-Jun-202
 2\0\\# B3LYP/6-31G* empiricaldispersion=gd3 guess=read geom=check nosy
 mm integral(ultrafinegrid)\\Candidate Structure: Conf:684 Charge calc 
 in gas phase\\1,1\N,0,-9.3820801679,1.3848230477,-6.0555544671\C,0,-9.
 5547377884,-0.0074769543,-5.6657834686\C,0,-8.2065382863,-0.5070883844
 ,-5.1020282714\O,0,-7.6017060238,0.1124470793,-4.2396952434\C,0,-10.15
 50688486,-0.935066989,-6.7457314464\C,0,-11.4493519706,-0.3807224924,-
 7.3402046549\N,0,-11.757876775,-0.8750173976,-8.5858982697\O,0,-12.133
 7725263,0.4607068631,-6.7807549845\H,0,-10.2408189352,-0.0017402739,-4
 .8111315933\H,0,-9.4361140794,-1.0944598758,-7.5543686163\H,0,-10.3901
 315212,-1.9265752021,-6.3292675718\H,0,-12.6917195272,-0.6736710984,-8
 .9235548932\H,0,-11.3403781592,-1.7376960808,-8.9113695812\H,0,-8.7984
 139799,1.496556783,-6.8813519846\H,0,-10.2936774182,1.794828164,-6.237
 1892467\N,0,-7.657643258,-1.6412688111,-5.671078089\C,0,-6.4472340659,
 -2.249261675,-5.1366878237\C,0,-5.3524607753,-2.3065396371,-6.21213442
 47\O,0,-4.7157417381,-3.3497878395,-6.4305486929\C,0,-6.709651717,-3.6
 341829682,-4.4935174366\C,0,-7.3218221328,-4.6641576113,-5.4221180306\
 C,0,-8.6845120549,-4.6159249004,-5.7545777462\C,0,-6.5418462223,-5.693
 4290442,-5.975298433\C,0,-9.2410627421,-5.5273362725,-6.6577522975\C,0
 ,-7.0997931604,-6.621381406,-6.858187747\C,0,-8.4481074338,-6.52906939
 47,-7.2193825111\H,0,-8.2085811318,-2.2077735445,-6.2990350749\H,0,-6.
 105618929,-1.5673430273,-4.3487252916\H,0,-5.7621618502,-4.0056164474,
 -4.0944807306\H,0,-7.3764796071,-3.45584245,-3.6427723964\H,0,-9.32661
 57554,-3.8815281591,-5.2740869998\H,0,-5.4909091382,-5.7568972327,-5.7
 128284115\H,0,-10.2989174914,-5.4696505246,-6.8989981799\H,0,-6.482133
 5783,-7.4189914831,-7.2621412153\H,0,-8.8808128705,-7.2492419649,-7.90
 76171851\N,0,-5.104959541,-1.2027404313,-6.9628155339\C,0,-5.553283946
 4,0.1799126935,-6.8593462111\C,0,-6.5335657347,0.5810806863,-7.9796695
 824\O,0,-6.7666891247,1.7661562912,-8.202980994\C,0,-4.3452291237,1.13
 72366622,-6.9241110423\C,0,-3.6021631287,1.0435049885,-8.2563878352\N,
 0,-2.8799190617,2.1235212292,-8.6079646339\O,0,-3.6413189131,0.0215321
 825,-8.9602122161\H,0,-4.3779442217,-1.305414711,-7.6654969125\H,0,-6.
 0535780205,0.3537762187,-5.9044255145\H,0,-3.6477294867,0.8886903272,-
 6.1153954012\H,0,-4.7052349639,2.155398993,-6.7572983883\H,0,-2.331690
 8309,2.0926128899,-9.4575329909\H,0,-2.878825557,2.9756097317,-8.06575
 72647\N,0,-7.1033697318,-0.4119854899,-8.7160084532\C,0,-7.962342415,-
 0.0681688674,-9.8322311402\C,0,-8.894807427,-1.2258434206,-10.15971181
 13\O,0,-8.8278503362,-2.3285178334,-9.6455693441\C,0,-7.1654417818,0.4
 214737827,-11.0786466708\C,0,-6.49073061,-0.621204575,-11.9897683233\C
 ,0,-5.4248583157,-1.5369171548,-11.3638501656\N,0,-6.0628534073,-2.660
 3592629,-10.6635000298\C,0,-5.612053304,-3.2979307906,-9.5733788153\N,
 0,-4.3281554767,-3.2443455138,-9.2016476071\N,0,-6.4803894076,-4.01523
 05231,-8.847204113\O,0,-9.8105634333,-1.0037558528,-11.1095949102\H,0,
 -9.8467313775,-0.066061306,-11.3681089003\H,0,-6.9522639462,-1.3786529
 77,-8.4717404734\H,0,-8.5861424199,0.776392894,-9.5073751372\H,0,-7.84
 08364769,1.0182182366,-11.7058716531\H,0,-6.4246362267,1.1271729323,-1
 0.6920155287\H,0,-7.2514528406,-1.2403462808,-12.4880839985\H,0,-6.001
 1492101,-0.0641068244,-12.7960991366\H,0,-4.7724727379,-1.925200404,-1
 2.1551556082\H,0,-4.8136696227,-0.9736024537,-10.6520409545\H,0,-6.981
 55467,-2.9380044975,-10.9814941381\H,0,-4.119697958,-3.4297017543,-8.2
 116166507\H,0,-3.6730746537,-2.6831802758,-9.7282788688\H,0,-6.1780503
 9,-4.5627036789,-8.0472096072\H,0,-7.4771830092,-3.8945399151,-8.97983
 2449\\Version=ES64L-G16RevC.01\HF=-1917.4965001\RMSD=7.218e-10\Dipole=
 2.2946327,-0.5806198,-4.1602903\Quadrupole=-27.7606288,-150.5287334,17
 8.2893622,62.1668329,226.9523974,47.7955927\PG=C01 [X(C23H36N9O7)]\\@
 The archive entry for this job was punched.


 CHRISTMAS IS ON TOP OF A STEEP HILL.
 THE CLOSER YOU GET, THE STEEPER THE HILL IS.
          -- LINUS, OF PEANUTS
 Job cpu time:       0 days  0 hours  4 minutes 28.3 seconds.
 Elapsed time:       0 days  0 hours  1 minutes  7.9 seconds.
 File lengths (MBytes):  RWF=    344 Int=      0 D2E=      0 Chk=     48 Scr=     16
 Normal termination of Gaussian 16 at Fri Jun  3 06:16:55 2022.
