 Entering Gaussian System, Link 0=/opt/software/Gaussian/g16-AVX2-C.01/g16/g16
 Input=charge-conf-135.com
 Output=charge-conf-135.log
 Initial command:
 /opt/software/Gaussian/g16-AVX2-C.01/g16/l1.exe "/mnt/gs18/scratch/users/kengmith/Gau-92783.inp" -scrdir="/mnt/gs18/scratch/users/kengmith/"
 Entering Link 1 = /opt/software/Gaussian/g16-AVX2-C.01/g16/l1.exe PID=     92793.
  
 Copyright (c) 1988-2019, Gaussian, Inc.  All Rights Reserved.
  
 This is part of the Gaussian(R) 16 program.  It is based on
 the Gaussian(R) 09 system (copyright 2009, Gaussian, Inc.),
 the Gaussian(R) 03 system (copyright 2003, Gaussian, Inc.),
 the Gaussian(R) 98 system (copyright 1998, Gaussian, Inc.),
 the Gaussian(R) 94 system (copyright 1995, Gaussian, Inc.),
 the Gaussian 92(TM) system (copyright 1992, Gaussian, Inc.),
 the Gaussian 90(TM) system (copyright 1990, Gaussian, Inc.),
 the Gaussian 88(TM) system (copyright 1988, Gaussian, Inc.),
 the Gaussian 86(TM) system (copyright 1986, Carnegie Mellon
 University), and the Gaussian 82(TM) system (copyright 1983,
 Carnegie Mellon University). Gaussian is a federally registered
 trademark of Gaussian, Inc.
  
 This software contains proprietary and confidential information,
 including trade secrets, belonging to Gaussian, Inc.
  
 This software is provided under written license and may be
 used, copied, transmitted, or stored only in accord with that
 written license.
  
 The following legend is applicable only to US Government
 contracts under FAR:
  
                    RESTRICTED RIGHTS LEGEND
  
 Use, reproduction and disclosure by the US Government is
 subject to restrictions as set forth in subparagraphs (a)
 and (c) of the Commercial Computer Software - Restricted
 Rights clause in FAR 52.227-19.
  
 Gaussian, Inc.
 340 Quinnipiac St., Bldg. 40, Wallingford CT 06492
  
  
 ---------------------------------------------------------------
 Warning -- This program may not be used in any manner that
 competes with the business of Gaussian, Inc. or will provide
 assistance to any competitor of Gaussian, Inc.  The licensee
 of this program is prohibited from giving any competitor of
 Gaussian, Inc. access to this program.  By using this program,
 the user acknowledges that Gaussian, Inc. is engaged in the
 business of creating and licensing software in the field of
 computational chemistry and represents and warrants to the
 licensee that it is not a competitor of Gaussian, Inc. and that
 it will not use this program in any manner prohibited above.
 ---------------------------------------------------------------
  

 Cite this work as:
 Gaussian 16, Revision C.01,
 M. J. Frisch, G. W. Trucks, H. B. Schlegel, G. E. Scuseria, 
 M. A. Robb, J. R. Cheeseman, G. Scalmani, V. Barone, 
 G. A. Petersson, H. Nakatsuji, X. Li, M. Caricato, A. V. Marenich, 
 J. Bloino, B. G. Janesko, R. Gomperts, B. Mennucci, H. P. Hratchian, 
 J. V. Ortiz, A. F. Izmaylov, J. L. Sonnenberg, D. Williams-Young, 
 F. Ding, F. Lipparini, F. Egidi, J. Goings, B. Peng, A. Petrone, 
 T. Henderson, D. Ranasinghe, V. G. Zakrzewski, J. Gao, N. Rega, 
 G. Zheng, W. Liang, M. Hada, M. Ehara, K. Toyota, R. Fukuda, 
 J. Hasegawa, M. Ishida, T. Nakajima, Y. Honda, O. Kitao, H. Nakai, 
 T. Vreven, K. Throssell, J. A. Montgomery, Jr., J. E. Peralta, 
 F. Ogliaro, M. J. Bearpark, J. J. Heyd, E. N. Brothers, K. N. Kudin, 
 V. N. Staroverov, T. A. Keith, R. Kobayashi, J. Normand, 
 K. Raghavachari, A. P. Rendell, J. C. Burant, S. S. Iyengar, 
 J. Tomasi, M. Cossi, J. M. Millam, M. Klene, C. Adamo, R. Cammi, 
 J. W. Ochterski, R. L. Martin, K. Morokuma, O. Farkas, 
 J. B. Foresman, and D. J. Fox, Gaussian, Inc., Wallingford CT, 2019.
 
 ******************************************
 Gaussian 16:  ES64L-G16RevC.01  3-Jul-2019
                 3-Jun-2022 
 ******************************************
 %mem=8gb
 %nproc=4
 Will use up to    4 processors via shared memory.
 %chk=conf-135.chk
 ----------------------------------------------------------------------
 # B3LYP/6-31G* empiricaldispersion=gd3 guess=read geom=check nosymm in
 tegral(ultrafinegrid)
 ----------------------------------------------------------------------
 1/29=2,38=1,172=1/1;
 2/12=2,15=1,40=1/2;
 3/5=1,6=6,7=1,11=2,14=-4,25=1,30=1,74=-5,75=-5,116=-2,124=31/1,2,3;
 4/5=1/1;
 5/5=2,38=6/2;
 6/7=2,8=2,9=2,10=2,28=1/1;
 99/5=1,9=1/99;
 ------------------------------------------------------
 Candidate Structure: Conf:135 Charge calc in gas phase
 ------------------------------------------------------
 Structure from the checkpoint file:  "conf-135.chk"
 Charge =  1 Multiplicity = 1
 Redundant internal coordinates found in file.  (old form).
 N,0,-10.80943284,0.7171189099,-7.8591005988
 C,0,-9.4374134853,0.2296770102,-8.0136473301
 C,0,-9.1831876105,-1.067712502,-7.2437754993
 O,0,-9.431448159,-1.1708184277,-6.0493499745
 C,0,-8.4399442406,1.292973082,-7.5015763166
 C,0,-8.1745738235,2.3666285619,-8.5512820377
 N,0,-9.2781884535,3.0362508977,-8.956948083
 O,0,-7.0424715946,2.5777353508,-8.9907012108
 H,0,-9.2592529444,0.0644515043,-9.0824199382
 H,0,-8.8402432986,1.7337755868,-6.5815429662
 H,0,-7.4857283014,0.8330537356,-7.2511642353
 H,0,-9.1893806234,3.7151502123,-9.7007123751
 H,0,-10.1961281568,2.6982647528,-8.6769441025
 H,0,-11.4620649332,0.081740934,-8.3197465884
 H,0,-11.0461364611,0.69716971,-6.8658935286
 N,0,-8.5985567298,-2.0831002009,-7.9732675068
 C,0,-8.6515943585,-3.4653416762,-7.4903192564
 C,0,-7.237380285,-4.0452446107,-7.5772102054
 O,0,-6.9238670713,-4.8486678868,-8.4799842319
 C,0,-9.6900445844,-4.293940677,-8.2780215103
 C,0,-10.9926979396,-3.5329391186,-8.399251811
 C,0,-11.8281237863,-3.3595226781,-7.2875977302
 C,0,-11.3362520746,-2.9009939421,-9.6012039185
 C,0,-12.9763405326,-2.572703376,-7.3739531513
 C,0,-12.4875075698,-2.1140256972,-9.6955052462
 C,0,-13.30957266,-1.9453960578,-8.5783996266
 H,0,-8.6220936101,-1.967571152,-8.9797407476
 H,0,-8.9582926678,-3.3966388668,-6.4435474362
 H,0,-9.2832541245,-4.5292289479,-9.2667740953
 H,0,-9.8269997653,-5.2525202083,-7.7651077963
 H,0,-11.5723943879,-3.8351908846,-6.3439560396
 H,0,-10.7062382255,-3.0378196898,-10.4783424453
 H,0,-13.6135976452,-2.4514046788,-6.5028126247
 H,0,-12.7465396699,-1.6443620507,-10.640469219
 H,0,-14.2095735991,-1.3411262848,-8.6486065786
 N,0,-6.3152966064,-3.6224255497,-6.6939581236
 C,0,-6.3249354649,-2.5707065296,-5.6775649791
 C,0,-5.5787308209,-1.2897638305,-6.1530580442
 O,0,-4.9269365803,-0.6213517348,-5.3599456723
 C,0,-5.6080667762,-3.087104582,-4.4177833858
 C,0,-4.1352265918,-3.4011327342,-4.7047887747
 N,0,-3.3037543079,-3.3492736569,-3.6474219108
 O,0,-3.7377541848,-3.7314768441,-5.8334368014
 H,0,-5.3755654334,-4.0030678808,-6.800124305
 H,0,-7.3531399545,-2.2872778477,-5.432174211
 H,0,-6.0996244053,-4.003995044,-4.0722504787
 H,0,-5.6891870419,-2.3376014194,-3.6278564937
 H,0,-2.3227825111,-3.5490877211,-3.7925014742
 H,0,-3.5878444269,-2.9710583336,-2.7555056066
 N,0,-5.6672240469,-1.0076268484,-7.4774349609
 C,0,-5.0192404856,0.1515069117,-8.0738595267
 C,0,-5.5532420159,0.2794077926,-9.4892114375
 O,0,-6.5172994826,-0.339639457,-9.9222679395
 C,0,-3.4736396468,0.1529601082,-7.9144296989
 C,0,-2.7396761541,-1.1849798476,-8.0884081403
 C,0,-2.5852913871,-1.7008337281,-9.5241093019
 N,0,-3.8556411748,-2.0130998837,-10.196627426
 C,0,-4.6483130835,-3.0610056689,-9.9405197657
 N,0,-4.263554139,-4.0667948236,-9.1488869106
 N,0,-5.8491576668,-3.1363723655,-10.5522321203
 O,0,-4.8505622664,1.1422796219,-10.2279627854
 H,0,-5.4067281236,1.4116721582,-10.9837957831
 H,0,-6.4003891667,-1.4481464728,-8.0211744148
 H,0,-5.3742893441,1.0781923571,-7.5992847792
 H,0,-3.0635229504,0.915889122,-8.5839133374
 H,0,-3.2873717012,0.4873182466,-6.892168248
 H,0,-1.7211669902,-1.053688966,-7.7024143847
 H,0,-3.2000936178,-1.9482662924,-7.4531004375
 H,0,-2.0976473508,-0.9480443708,-10.1488887847
 H,0,-1.9437665271,-2.5901547107,-9.5518297034
 H,0,-4.1740753935,-1.3698197826,-10.9073036732
 H,0,-4.9965523335,-4.7139631749,-8.8454307511
 H,0,-3.432316953,-4.0007065373,-8.5786392632
 H,0,-6.4821291212,-3.8561275902,-10.207722354
 H,0,-6.2786768878,-2.2554565031,-10.8158978085
 Recover connectivity data from disk.
                           ----------------------------
                           !    Current Parameters    !
                           ! (Angstroms and Degrees)  !
 --------------------------                            --------------------------
 ! Name  Definition              Value                                          !
 --------------------------------------------------------------------------------
 ! R1    R(1,2)                  1.4642                                         !
 ! R2    R(1,14)                 1.0207                                         !
 ! R3    R(1,15)                 1.0212                                         !
 ! R4    R(2,3)                  1.5299                                         !
 ! R5    R(2,5)                  1.5452                                         !
 ! R6    R(2,9)                  1.096                                          !
 ! R7    R(3,4)                  1.2243                                         !
 ! R8    R(3,16)                 1.3802                                         !
 ! R9    R(5,6)                  1.5248                                         !
 ! R10   R(5,10)                 1.0959                                         !
 ! R11   R(5,11)                 1.0885                                         !
 ! R12   R(6,7)                  1.3531                                         !
 ! R13   R(6,8)                  1.2326                                         !
 ! R14   R(7,12)                 1.0109                                         !
 ! R15   R(7,13)                 1.0175                                         !
 ! R16   R(16,17)                1.4651                                         !
 ! R17   R(16,27)                1.0134                                         !
 ! R18   R(17,18)                1.531                                          !
 ! R19   R(17,20)                1.5445                                         !
 ! R20   R(17,28)                1.0929                                         !
 ! R21   R(18,19)                1.2485                                         !
 ! R22   R(18,36)                1.345                                          !
 ! R23   R(20,21)                1.5135                                         !
 ! R24   R(20,29)                1.0947                                         !
 ! R25   R(20,30)                1.0958                                         !
 ! R26   R(21,22)                1.4014                                         !
 ! R27   R(21,23)                1.4007                                         !
 ! R28   R(22,24)                1.3946                                         !
 ! R29   R(22,31)                1.0873                                         !
 ! R30   R(23,25)                1.3977                                         !
 ! R31   R(23,32)                1.0886                                         !
 ! R32   R(24,26)                1.3983                                         !
 ! R33   R(24,33)                1.0861                                         !
 ! R34   R(25,26)                1.3972                                         !
 ! R35   R(25,34)                1.0866                                         !
 ! R36   R(26,35)                1.0863                                         !
 ! R37   R(36,37)                1.4626                                         !
 ! R38   R(36,44)                1.0194                                         !
 ! R39   R(37,38)                1.5568                                         !
 ! R40   R(37,40)                1.5387                                         !
 ! R41   R(37,45)                1.0944                                         !
 ! R42   R(38,39)                1.225                                          !
 ! R43   R(38,50)                1.357                                          !
 ! R44   R(40,41)                1.5331                                         !
 ! R45   R(40,46)                1.0962                                         !
 ! R46   R(40,47)                1.0919                                         !
 ! R47   R(41,42)                1.3461                                         !
 ! R48   R(41,43)                1.2414                                         !
 ! R49   R(42,48)                1.0116                                         !
 ! R50   R(42,49)                1.0096                                         !
 ! R51   R(50,51)                1.4557                                         !
 ! R52   R(50,63)                1.0135                                         !
 ! R53   R(51,52)                1.5181                                         !
 ! R54   R(51,54)                1.5538                                         !
 ! R55   R(51,64)                1.1                                            !
 ! R56   R(52,53)                1.2248                                         !
 ! R57   R(52,61)                1.3357                                         !
 ! R58   R(54,55)                1.5359                                         !
 ! R59   R(54,65)                1.0947                                         !
 ! R60   R(54,66)                1.0916                                         !
 ! R61   R(55,56)                1.5334                                         !
 ! R62   R(55,67)                1.0971                                         !
 ! R63   R(55,68)                1.0946                                         !
 ! R64   R(56,57)                1.4709                                         !
 ! R65   R(56,69)                1.0931                                         !
 ! R66   R(56,70)                1.0969                                         !
 ! R67   R(57,58)                1.3387                                         !
 ! R68   R(57,71)                1.0101                                         !
 ! R69   R(58,59)                1.3365                                         !
 ! R70   R(58,60)                1.3498                                         !
 ! R71   R(59,72)                1.0238                                         !
 ! R72   R(59,73)                1.0102                                         !
 ! R73   R(60,74)                1.0185                                         !
 ! R74   R(60,75)                1.0149                                         !
 ! R75   R(61,62)                0.9763                                         !
 ! A1    A(2,1,14)             110.1374                                         !
 ! A2    A(2,1,15)             108.2608                                         !
 ! A3    A(14,1,15)            106.1744                                         !
 ! A4    A(1,2,3)              112.638                                          !
 ! A5    A(1,2,5)              109.9265                                         !
 ! A6    A(1,2,9)              107.7835                                         !
 ! A7    A(3,2,5)              108.0298                                         !
 ! A8    A(3,2,9)              109.6243                                         !
 ! A9    A(5,2,9)              108.7806                                         !
 ! A10   A(2,3,4)              121.9152                                         !
 ! A11   A(2,3,16)             115.3593                                         !
 ! A12   A(4,3,16)             122.6549                                         !
 ! A13   A(2,5,6)              111.6371                                         !
 ! A14   A(2,5,10)             108.6144                                         !
 ! A15   A(2,5,11)             110.5717                                         !
 ! A16   A(6,5,10)             110.9953                                         !
 ! A17   A(6,5,11)             107.6576                                         !
 ! A18   A(10,5,11)            107.2795                                         !
 ! A19   A(5,6,7)              114.387                                          !
 ! A20   A(5,6,8)              121.7261                                         !
 ! A21   A(7,6,8)              123.8812                                         !
 ! A22   A(6,7,12)             118.7677                                         !
 ! A23   A(6,7,13)             119.2704                                         !
 ! A24   A(12,7,13)            120.3182                                         !
 ! A25   A(3,16,17)            120.2981                                         !
 ! A26   A(3,16,27)            115.5462                                         !
 ! A27   A(17,16,27)           115.7281                                         !
 ! A28   A(16,17,18)           107.7704                                         !
 ! A29   A(16,17,20)           111.2452                                         !
 ! A30   A(16,17,28)           105.4594                                         !
 ! A31   A(18,17,20)           112.8879                                         !
 ! A32   A(18,17,28)           109.7178                                         !
 ! A33   A(20,17,28)           109.4822                                         !
 ! A34   A(17,18,19)           121.1144                                         !
 ! A35   A(17,18,36)           118.4846                                         !
 ! A36   A(19,18,36)           120.3292                                         !
 ! A37   A(17,20,21)           110.4745                                         !
 ! A38   A(17,20,29)           109.032                                          !
 ! A39   A(17,20,30)           108.3384                                         !
 ! A40   A(21,20,29)           110.8264                                         !
 ! A41   A(21,20,30)           111.7017                                         !
 ! A42   A(29,20,30)           106.3313                                         !
 ! A43   A(20,21,22)           120.7827                                         !
 ! A44   A(20,21,23)           120.4421                                         !
 ! A45   A(22,21,23)           118.5971                                         !
 ! A46   A(21,22,24)           120.7657                                         !
 ! A47   A(21,22,31)           119.6126                                         !
 ! A48   A(24,22,31)           119.6185                                         !
 ! A49   A(21,23,25)           120.9258                                         !
 ! A50   A(21,23,32)           119.5221                                         !
 ! A51   A(25,23,32)           119.5448                                         !
 ! A52   A(22,24,26)           120.1754                                         !
 ! A53   A(22,24,33)           119.7623                                         !
 ! A54   A(26,24,33)           120.0619                                         !
 ! A55   A(23,25,26)           119.9096                                         !
 ! A56   A(23,25,34)           119.8945                                         !
 ! A57   A(26,25,34)           120.1923                                         !
 ! A58   A(24,26,25)           119.6256                                         !
 ! A59   A(24,26,35)           120.176                                          !
 ! A60   A(25,26,35)           120.1935                                         !
 ! A61   A(18,36,37)           132.6759                                         !
 ! A62   A(18,36,44)           116.4988                                         !
 ! A63   A(37,36,44)           110.2998                                         !
 ! A64   A(36,37,38)           112.1007                                         !
 ! A65   A(36,37,40)           108.9384                                         !
 ! A66   A(36,37,45)           110.3788                                         !
 ! A67   A(38,37,40)           107.6309                                         !
 ! A68   A(38,37,45)           107.8009                                         !
 ! A69   A(40,37,45)           109.9404                                         !
 ! A70   A(37,38,39)           120.4132                                         !
 ! A71   A(37,38,50)           115.9697                                         !
 ! A72   A(39,38,50)           123.582                                          !
 ! A73   A(37,40,41)           111.2884                                         !
 ! A74   A(37,40,46)           109.2602                                         !
 ! A75   A(37,40,47)           109.1058                                         !
 ! A76   A(41,40,46)           108.571                                          !
 ! A77   A(41,40,47)           110.3288                                         !
 ! A78   A(46,40,47)           108.2264                                         !
 ! A79   A(40,41,42)           116.0065                                         !
 ! A80   A(40,41,43)           122.1639                                         !
 ! A81   A(42,41,43)           121.7792                                         !
 ! A82   A(41,42,48)           118.6023                                         !
 ! A83   A(41,42,49)           122.314                                          !
 ! A84   A(48,42,49)           118.2671                                         !
 ! A85   A(38,50,51)           122.4377                                         !
 ! A86   A(38,50,63)           118.7113                                         !
 ! A87   A(51,50,63)           116.6329                                         !
 ! A88   A(50,51,52)           107.0063                                         !
 ! A89   A(50,51,54)           113.6706                                         !
 ! A90   A(50,51,64)           110.5091                                         !
 ! A91   A(52,51,54)           116.4535                                         !
 ! A92   A(52,51,64)           102.5746                                         !
 ! A93   A(54,51,64)           106.0222                                         !
 ! A94   A(51,52,53)           124.3269                                         !
 ! A95   A(51,52,61)           112.6449                                         !
 ! A96   A(53,52,61)           123.0272                                         !
 ! A97   A(51,54,55)           117.5748                                         !
 ! A98   A(51,54,65)           108.0924                                         !
 ! A99   A(51,54,66)           105.4336                                         !
 ! A100  A(55,54,65)           111.0253                                         !
 ! A101  A(55,54,66)           106.9397                                         !
 ! A102  A(65,54,66)           107.1768                                         !
 ! A103  A(54,55,56)           116.5661                                         !
 ! A104  A(54,55,67)           107.43                                           !
 ! A105  A(54,55,68)           109.9183                                         !
 ! A106  A(56,55,67)           106.0345                                         !
 ! A107  A(56,55,68)           110.5599                                         !
 ! A108  A(67,55,68)           105.6487                                         !
 ! A109  A(55,56,57)           114.3657                                         !
 ! A110  A(55,56,69)           110.3896                                         !
 ! A111  A(55,56,70)           110.8119                                         !
 ! A112  A(57,56,69)           105.6738                                         !
 ! A113  A(57,56,70)           108.7494                                         !
 ! A114  A(69,56,70)           106.439                                          !
 ! A115  A(56,57,58)           126.1647                                         !
 ! A116  A(56,57,71)           117.3067                                         !
 ! A117  A(58,57,71)           116.517                                          !
 ! A118  A(57,58,59)           122.1363                                         !
 ! A119  A(57,58,60)           118.9342                                         !
 ! A120  A(59,58,60)           118.8503                                         !
 ! A121  A(58,59,72)           116.4322                                         !
 ! A122  A(58,59,73)           121.4661                                         !
 ! A123  A(72,59,73)           117.5908                                         !
 ! A124  A(58,60,74)           116.0437                                         !
 ! A125  A(58,60,75)           116.4739                                         !
 ! A126  A(74,60,75)           115.9916                                         !
 ! A127  A(52,61,62)           107.8636                                         !
 ! D1    D(14,1,2,3)           -67.826                                          !
 ! D2    D(14,1,2,5)           171.6508                                         !
 ! D3    D(14,1,2,9)            53.2323                                         !
 ! D4    D(15,1,2,3)            47.8592                                         !
 ! D5    D(15,1,2,5)           -72.6641                                         !
 ! D6    D(15,1,2,9)           168.9175                                         !
 ! D7    D(1,2,3,4)            -53.2787                                         !
 ! D8    D(1,2,3,16)           129.701                                          !
 ! D9    D(5,2,3,4)             68.3275                                         !
 ! D10   D(5,2,3,16)          -108.6928                                         !
 ! D11   D(9,2,3,4)           -173.2802                                         !
 ! D12   D(9,2,3,16)             9.6995                                         !
 ! D13   D(1,2,5,6)            -81.8204                                         !
 ! D14   D(1,2,5,10)            40.8861                                         !
 ! D15   D(1,2,5,11)           158.3499                                         !
 ! D16   D(3,2,5,6)            154.9114                                         !
 ! D17   D(3,2,5,10)           -82.3822                                         !
 ! D18   D(3,2,5,11)            35.0817                                         !
 ! D19   D(9,2,5,6)             35.9814                                         !
 ! D20   D(9,2,5,10)           158.6879                                         !
 ! D21   D(9,2,5,11)           -83.8483                                         !
 ! D22   D(2,3,16,17)         -162.4339                                         !
 ! D23   D(2,3,16,27)          -15.6582                                         !
 ! D24   D(4,3,16,17)           20.5702                                         !
 ! D25   D(4,3,16,27)          167.346                                          !
 ! D26   D(2,5,6,7)             58.8799                                         !
 ! D27   D(2,5,6,8)           -120.2829                                         !
 ! D28   D(10,5,6,7)           -62.4554                                         !
 ! D29   D(10,5,6,8)           118.3818                                         !
 ! D30   D(11,5,6,7)          -179.5879                                         !
 ! D31   D(11,5,6,8)             1.2492                                         !
 ! D32   D(5,6,7,12)          -175.5177                                         !
 ! D33   D(5,6,7,13)           -10.0766                                         !
 ! D34   D(8,6,7,12)             3.6246                                         !
 ! D35   D(8,6,7,13)           169.0656                                         !
 ! D36   D(3,16,17,18)        -131.6072                                         !
 ! D37   D(3,16,17,20)         104.1432                                         !
 ! D38   D(3,16,17,28)         -14.4631                                         !
 ! D39   D(27,16,17,18)         81.6743                                         !
 ! D40   D(27,16,17,20)        -42.5753                                         !
 ! D41   D(27,16,17,28)       -161.1816                                         !
 ! D42   D(16,17,18,19)       -104.3413                                         !
 ! D43   D(16,17,18,36)         72.5867                                         !
 ! D44   D(20,17,18,19)         18.9118                                         !
 ! D45   D(20,17,18,36)       -164.1603                                         !
 ! D46   D(28,17,18,19)        141.3148                                         !
 ! D47   D(28,17,18,36)        -41.7572                                         !
 ! D48   D(16,17,20,21)        -46.923                                          !
 ! D49   D(16,17,20,29)         75.0996                                         !
 ! D50   D(16,17,20,30)       -169.5785                                         !
 ! D51   D(18,17,20,21)       -168.2268                                         !
 ! D52   D(18,17,20,29)        -46.2041                                         !
 ! D53   D(18,17,20,30)         69.1178                                         !
 ! D54   D(28,17,20,21)         69.2384                                         !
 ! D55   D(28,17,20,29)       -168.739                                          !
 ! D56   D(28,17,20,30)        -53.4171                                         !
 ! D57   D(17,18,36,37)         -7.1471                                         !
 ! D58   D(17,18,36,44)       -177.8796                                         !
 ! D59   D(19,18,36,37)        169.8058                                         !
 ! D60   D(19,18,36,44)         -0.9267                                         !
 ! D61   D(17,20,21,22)        -71.967                                          !
 ! D62   D(17,20,21,23)        103.1155                                         !
 ! D63   D(29,20,21,22)        167.0724                                         !
 ! D64   D(29,20,21,23)        -17.8451                                         !
 ! D65   D(30,20,21,22)         48.7009                                         !
 ! D66   D(30,20,21,23)       -136.2167                                         !
 ! D67   D(20,21,22,24)        175.0558                                         !
 ! D68   D(20,21,22,31)         -4.2791                                         !
 ! D69   D(23,21,22,24)         -0.1157                                         !
 ! D70   D(23,21,22,31)       -179.4506                                         !
 ! D71   D(20,21,23,25)       -175.2471                                         !
 ! D72   D(20,21,23,32)          5.7438                                         !
 ! D73   D(22,21,23,25)         -0.0586                                         !
 ! D74   D(22,21,23,32)       -179.0677                                         !
 ! D75   D(21,22,24,26)          0.0673                                         !
 ! D76   D(21,22,24,33)        179.8484                                         !
 ! D77   D(31,22,24,26)        179.4022                                         !
 ! D78   D(31,22,24,33)         -0.8167                                         !
 ! D79   D(21,23,25,26)          0.2811                                         !
 ! D80   D(21,23,25,34)       -179.0257                                         !
 ! D81   D(32,23,25,26)        179.29                                           !
 ! D82   D(32,23,25,34)         -0.0168                                         !
 ! D83   D(22,24,26,25)          0.1558                                         !
 ! D84   D(22,24,26,35)        179.3476                                         !
 ! D85   D(33,24,26,25)       -179.6246                                         !
 ! D86   D(33,24,26,35)         -0.4328                                         !
 ! D87   D(23,25,26,24)         -0.3276                                         !
 ! D88   D(23,25,26,35)       -179.5192                                         !
 ! D89   D(34,25,26,24)        178.9771                                         !
 ! D90   D(34,25,26,35)         -0.2145                                         !
 ! D91   D(18,36,37,38)       -101.1424                                         !
 ! D92   D(18,36,37,40)        139.8485                                         !
 ! D93   D(18,36,37,45)         19.045                                          !
 ! D94   D(44,36,37,38)         70.0179                                         !
 ! D95   D(44,36,37,40)        -48.9911                                         !
 ! D96   D(44,36,37,45)       -169.7947                                         !
 ! D97   D(36,37,38,39)       -144.2278                                         !
 ! D98   D(36,37,38,50)         33.6949                                         !
 ! D99   D(40,37,38,39)        -24.4518                                         !
 ! D100  D(40,37,38,50)        153.4709                                         !
 ! D101  D(45,37,38,39)         94.0958                                         !
 ! D102  D(45,37,38,50)        -87.9815                                         !
 ! D103  D(36,37,40,41)         62.895                                          !
 ! D104  D(36,37,40,46)        -56.987                                          !
 ! D105  D(36,37,40,47)       -175.1295                                         !
 ! D106  D(38,37,40,41)        -58.8691                                         !
 ! D107  D(38,37,40,46)       -178.7511                                         !
 ! D108  D(38,37,40,47)         63.1064                                         !
 ! D109  D(45,37,40,41)       -176.0328                                         !
 ! D110  D(45,37,40,46)         64.0851                                         !
 ! D111  D(45,37,40,47)        -54.0574                                         !
 ! D112  D(37,38,50,51)       -179.7245                                         !
 ! D113  D(37,38,50,63)         17.7759                                         !
 ! D114  D(39,38,50,51)         -1.8748                                         !
 ! D115  D(39,38,50,63)       -164.3745                                         !
 ! D116  D(37,40,41,42)        154.966                                          !
 ! D117  D(37,40,41,43)        -27.5725                                         !
 ! D118  D(46,40,41,42)        -84.7444                                         !
 ! D119  D(46,40,41,43)         92.7171                                         !
 ! D120  D(47,40,41,42)         33.7024                                         !
 ! D121  D(47,40,41,43)       -148.836                                          !
 ! D122  D(40,41,42,48)       -179.9573                                         !
 ! D123  D(40,41,42,49)        -10.4912                                         !
 ! D124  D(43,41,42,48)          2.5705                                         !
 ! D125  D(43,41,42,49)        172.0366                                         !
 ! D126  D(38,50,51,52)       -169.4662                                         !
 ! D127  D(38,50,51,54)         60.5398                                         !
 ! D128  D(38,50,51,64)        -58.5207                                         !
 ! D129  D(63,50,51,52)         -6.6265                                         !
 ! D130  D(63,50,51,54)       -136.6204                                         !
 ! D131  D(63,50,51,64)        104.3191                                         !
 ! D132  D(50,51,52,53)         11.857                                          !
 ! D133  D(50,51,52,61)       -167.778                                          !
 ! D134  D(54,51,52,53)        140.2549                                         !
 ! D135  D(54,51,52,61)        -39.3802                                         !
 ! D136  D(64,51,52,53)       -104.4771                                         !
 ! D137  D(64,51,52,61)         75.8879                                         !
 ! D138  D(50,51,54,55)         40.1709                                         !
 ! D139  D(50,51,54,65)        166.7851                                         !
 ! D140  D(50,51,54,66)        -78.853                                          !
 ! D141  D(52,51,54,55)        -84.9151                                         !
 ! D142  D(52,51,54,65)         41.6991                                         !
 ! D143  D(52,51,54,66)        156.0611                                         !
 ! D144  D(64,51,54,55)        161.7638                                         !
 ! D145  D(64,51,54,65)        -71.622                                          !
 ! D146  D(64,51,54,66)         42.74                                           !
 ! D147  D(51,52,61,62)       -160.3538                                         !
 ! D148  D(53,52,61,62)         20.0057                                         !
 ! D149  D(51,54,55,56)         75.145                                          !
 ! D150  D(51,54,55,67)       -166.1259                                         !
 ! D151  D(51,54,55,68)        -51.6398                                         !
 ! D152  D(65,54,55,56)        -50.0292                                         !
 ! D153  D(65,54,55,67)         68.7                                            !
 ! D154  D(65,54,55,68)       -176.8139                                         !
 ! D155  D(66,54,55,56)       -166.6323                                         !
 ! D156  D(66,54,55,67)        -47.9031                                         !
 ! D157  D(66,54,55,68)         66.583                                          !
 ! D158  D(54,55,56,57)        -63.739                                          !
 ! D159  D(54,55,56,69)         55.2563                                         !
 ! D160  D(54,55,56,70)        172.9189                                         !
 ! D161  D(67,55,56,57)        176.7783                                         !
 ! D162  D(67,55,56,69)        -64.2264                                         !
 ! D163  D(67,55,56,70)         53.4362                                         !
 ! D164  D(68,55,56,57)         62.7275                                         !
 ! D165  D(68,55,56,69)       -178.2772                                         !
 ! D166  D(68,55,56,70)        -60.6145                                         !
 ! D167  D(55,56,57,58)        -72.687                                          !
 ! D168  D(55,56,57,71)        106.0301                                         !
 ! D169  D(69,56,57,58)        165.6906                                         !
 ! D170  D(69,56,57,71)        -15.5923                                         !
 ! D171  D(70,56,57,58)         51.7592                                         !
 ! D172  D(70,56,57,71)       -129.5237                                         !
 ! D173  D(56,57,58,59)         -9.8394                                         !
 ! D174  D(56,57,58,60)        173.4344                                         !
 ! D175  D(71,57,58,59)        171.4345                                         !
 ! D176  D(71,57,58,60)         -5.2916                                         !
 ! D177  D(57,58,59,72)        166.9488                                         !
 ! D178  D(57,58,59,73)         11.3583                                         !
 ! D179  D(60,58,59,72)        -16.3224                                         !
 ! D180  D(60,58,59,73)       -171.9129                                         !
 ! D181  D(57,58,60,74)       -169.6275                                         !
 ! D182  D(57,58,60,75)        -27.603                                          !
 ! D183  D(59,58,60,74)         13.5375                                         !
 ! D184  D(59,58,60,75)        155.5619                                         !
 --------------------------------------------------------------------------------
 Symmetry turned off by external request.
 Stoichiometry    C23H36N9O7(1+)
 Framework group  C1[X(C23H36N9O7)]
 Deg. of freedom   219
 Full point group                 C1      NOp   1
                          Input orientation:                          
 ---------------------------------------------------------------------
 Center     Atomic      Atomic             Coordinates (Angstroms)
 Number     Number       Type             X           Y           Z
 ---------------------------------------------------------------------
      1          7           0      -10.809433    0.717119   -7.859101
      2          6           0       -9.437413    0.229677   -8.013647
      3          6           0       -9.183188   -1.067713   -7.243775
      4          8           0       -9.431448   -1.170818   -6.049350
      5          6           0       -8.439944    1.292973   -7.501576
      6          6           0       -8.174574    2.366629   -8.551282
      7          7           0       -9.278188    3.036251   -8.956948
      8          8           0       -7.042472    2.577735   -8.990701
      9          1           0       -9.259253    0.064452   -9.082420
     10          1           0       -8.840243    1.733776   -6.581543
     11          1           0       -7.485728    0.833054   -7.251164
     12          1           0       -9.189381    3.715150   -9.700712
     13          1           0      -10.196128    2.698265   -8.676944
     14          1           0      -11.462065    0.081741   -8.319747
     15          1           0      -11.046136    0.697170   -6.865894
     16          7           0       -8.598557   -2.083100   -7.973268
     17          6           0       -8.651594   -3.465342   -7.490319
     18          6           0       -7.237380   -4.045245   -7.577210
     19          8           0       -6.923867   -4.848668   -8.479984
     20          6           0       -9.690045   -4.293941   -8.278022
     21          6           0      -10.992698   -3.532939   -8.399252
     22          6           0      -11.828124   -3.359523   -7.287598
     23          6           0      -11.336252   -2.900994   -9.601204
     24          6           0      -12.976341   -2.572703   -7.373953
     25          6           0      -12.487508   -2.114026   -9.695505
     26          6           0      -13.309573   -1.945396   -8.578400
     27          1           0       -8.622094   -1.967571   -8.979741
     28          1           0       -8.958293   -3.396639   -6.443547
     29          1           0       -9.283254   -4.529229   -9.266774
     30          1           0       -9.827000   -5.252520   -7.765108
     31          1           0      -11.572394   -3.835191   -6.343956
     32          1           0      -10.706238   -3.037820  -10.478342
     33          1           0      -13.613598   -2.451405   -6.502813
     34          1           0      -12.746540   -1.644362  -10.640469
     35          1           0      -14.209574   -1.341126   -8.648607
     36          7           0       -6.315297   -3.622426   -6.693958
     37          6           0       -6.324935   -2.570707   -5.677565
     38          6           0       -5.578731   -1.289764   -6.153058
     39          8           0       -4.926937   -0.621352   -5.359946
     40          6           0       -5.608067   -3.087105   -4.417783
     41          6           0       -4.135227   -3.401133   -4.704789
     42          7           0       -3.303754   -3.349274   -3.647422
     43          8           0       -3.737754   -3.731477   -5.833437
     44          1           0       -5.375565   -4.003068   -6.800124
     45          1           0       -7.353140   -2.287278   -5.432174
     46          1           0       -6.099624   -4.003995   -4.072250
     47          1           0       -5.689187   -2.337601   -3.627856
     48          1           0       -2.322783   -3.549088   -3.792501
     49          1           0       -3.587844   -2.971058   -2.755506
     50          7           0       -5.667224   -1.007627   -7.477435
     51          6           0       -5.019240    0.151507   -8.073860
     52          6           0       -5.553242    0.279408   -9.489211
     53          8           0       -6.517299   -0.339639   -9.922268
     54          6           0       -3.473640    0.152960   -7.914430
     55          6           0       -2.739676   -1.184980   -8.088408
     56          6           0       -2.585291   -1.700834   -9.524109
     57          7           0       -3.855641   -2.013100  -10.196627
     58          6           0       -4.648313   -3.061006   -9.940520
     59          7           0       -4.263554   -4.066795   -9.148887
     60          7           0       -5.849158   -3.136372  -10.552232
     61          8           0       -4.850562    1.142280  -10.227963
     62          1           0       -5.406728    1.411672  -10.983796
     63          1           0       -6.400389   -1.448146   -8.021174
     64          1           0       -5.374289    1.078192   -7.599285
     65          1           0       -3.063523    0.915889   -8.583913
     66          1           0       -3.287372    0.487318   -6.892168
     67          1           0       -1.721167   -1.053689   -7.702414
     68          1           0       -3.200094   -1.948266   -7.453100
     69          1           0       -2.097647   -0.948044  -10.148889
     70          1           0       -1.943767   -2.590155   -9.551830
     71          1           0       -4.174075   -1.369820  -10.907304
     72          1           0       -4.996552   -4.713963   -8.845431
     73          1           0       -3.432317   -4.000707   -8.578639
     74          1           0       -6.482129   -3.856128  -10.207722
     75          1           0       -6.278677   -2.255457  -10.815898
 ---------------------------------------------------------------------
 Rotational constants (GHZ):           0.1290304           0.0812948           0.0684801
 Standard basis: 6-31G(d) (6D, 7F)
   657 basis functions,  1236 primitive gaussians,   657 cartesian basis functions
   146 alpha electrons      146 beta electrons
       nuclear repulsion energy      5189.5814280974 Hartrees.
 NAtoms=   75 NActive=   75 NUniq=   75 SFac= 1.00D+00 NAtFMM=   60 NAOKFM=T Big=T
 Integral buffers will be    131072 words long.
 Raffenetti 2 integral format.
 Two-electron integral symmetry is turned off.
 Nuclear repulsion after empirical dispersion term =     5189.4558542302 Hartrees.
 One-electron integrals computed using PRISM.
 NBasis=   657 RedAO= T EigKep=  4.69D-04  NBF=   657
 NBsUse=   657 1.00D-06 EigRej= -1.00D+00 NBFU=   657
 Initial guess from the checkpoint file:  "conf-135.chk"
 B after Tr=     0.000000    0.000000    0.000000
         Rot=    1.000000    0.000000    0.000000    0.000000 Ang=   0.00 deg.
 Requested convergence on RMS density matrix=1.00D-08 within 128 cycles.
 Requested convergence on MAX density matrix=1.00D-06.
 Requested convergence on             energy=1.00D-06.
 No special actions if energy rises.
 SCF Done:  E(RB3LYP) =  -1917.52149086     A.U. after    2 cycles
            NFock=  2  Conv=0.91D-08     -V/T= 2.0093

 **********************************************************************

            Population analysis using the SCF Density.

 **********************************************************************

 Alpha  occ. eigenvalues --  -19.31540 -19.26718 -19.24341 -19.23148 -19.22820
 Alpha  occ. eigenvalues --  -19.22187 -19.19626 -14.51054 -14.49627 -14.49155
 Alpha  occ. eigenvalues --  -14.47601 -14.47535 -14.46697 -14.46546 -14.43036
 Alpha  occ. eigenvalues --  -14.41941 -10.46514 -10.44816 -10.41204 -10.40704
 Alpha  occ. eigenvalues --  -10.39415 -10.39297 -10.37197 -10.35262 -10.35163
 Alpha  occ. eigenvalues --  -10.34730 -10.34550 -10.32882 -10.30809 -10.29555
 Alpha  occ. eigenvalues --  -10.29276 -10.29149 -10.28906 -10.28370 -10.28105
 Alpha  occ. eigenvalues --  -10.27957 -10.27732 -10.27690 -10.27651  -1.22973
 Alpha  occ. eigenvalues --   -1.16062  -1.15125  -1.14752  -1.14598  -1.14165
 Alpha  occ. eigenvalues --   -1.13756  -1.11062  -1.05088  -1.04775  -1.03752
 Alpha  occ. eigenvalues --   -1.03014  -1.02798  -1.01532  -0.99558  -0.97669
 Alpha  occ. eigenvalues --   -0.94569  -0.91045  -0.89547  -0.88687  -0.86908
 Alpha  occ. eigenvalues --   -0.85540  -0.83477  -0.83200  -0.81192  -0.79145
 Alpha  occ. eigenvalues --   -0.77141  -0.76972  -0.75211  -0.73713  -0.72944
 Alpha  occ. eigenvalues --   -0.71776  -0.70112  -0.69945  -0.69443  -0.68849
 Alpha  occ. eigenvalues --   -0.68360  -0.67294  -0.66961  -0.66632  -0.65386
 Alpha  occ. eigenvalues --   -0.64525  -0.63679  -0.63202  -0.63067  -0.62016
 Alpha  occ. eigenvalues --   -0.61638  -0.60709  -0.60432  -0.60118  -0.59785
 Alpha  occ. eigenvalues --   -0.59467  -0.59359  -0.58579  -0.57877  -0.57504
 Alpha  occ. eigenvalues --   -0.56916  -0.55880  -0.55462  -0.54779  -0.54634
 Alpha  occ. eigenvalues --   -0.54456  -0.54256  -0.53975  -0.53893  -0.53109
 Alpha  occ. eigenvalues --   -0.52546  -0.51895  -0.51732  -0.51299  -0.50996
 Alpha  occ. eigenvalues --   -0.50666  -0.50527  -0.50079  -0.49450  -0.49338
 Alpha  occ. eigenvalues --   -0.49167  -0.48264  -0.47770  -0.47282  -0.47237
 Alpha  occ. eigenvalues --   -0.46991  -0.46811  -0.46152  -0.45360  -0.44772
 Alpha  occ. eigenvalues --   -0.44631  -0.44186  -0.43803  -0.42889  -0.42751
 Alpha  occ. eigenvalues --   -0.41410  -0.40793  -0.39694  -0.39100  -0.38775
 Alpha  occ. eigenvalues --   -0.37920  -0.37781  -0.37503  -0.36758  -0.36269
 Alpha  occ. eigenvalues --   -0.34710  -0.34610  -0.34221  -0.33837  -0.33438
 Alpha  occ. eigenvalues --   -0.33114
 Alpha virt. eigenvalues --   -0.11905  -0.11491  -0.10844  -0.09666  -0.09337
 Alpha virt. eigenvalues --   -0.08922  -0.08708  -0.08107  -0.06187  -0.05220
 Alpha virt. eigenvalues --   -0.03893  -0.03424  -0.01862  -0.01409  -0.00495
 Alpha virt. eigenvalues --   -0.00442   0.00837   0.01026   0.01591   0.01929
 Alpha virt. eigenvalues --    0.02141   0.02388   0.03118   0.03465   0.03545
 Alpha virt. eigenvalues --    0.04087   0.04760   0.04984   0.05236   0.05616
 Alpha virt. eigenvalues --    0.05864   0.06050   0.06339   0.06877   0.07165
 Alpha virt. eigenvalues --    0.07379   0.07498   0.07685   0.08212   0.08486
 Alpha virt. eigenvalues --    0.09169   0.09268   0.09543   0.09890   0.10219
 Alpha virt. eigenvalues --    0.10656   0.11048   0.11293   0.11456   0.11555
 Alpha virt. eigenvalues --    0.12089   0.12354   0.13114   0.13686   0.14277
 Alpha virt. eigenvalues --    0.15002   0.15272   0.15420   0.15878   0.16580
 Alpha virt. eigenvalues --    0.17208   0.18049   0.18429   0.18958   0.19995
 Alpha virt. eigenvalues --    0.21646   0.21942   0.22885   0.23213   0.23885
 Alpha virt. eigenvalues --    0.24311   0.25005   0.25565   0.25898   0.26285
 Alpha virt. eigenvalues --    0.26815   0.27328   0.28855   0.30140   0.31293
 Alpha virt. eigenvalues --    0.31898   0.33288   0.33999   0.34746   0.36974
 Alpha virt. eigenvalues --    0.37216   0.38426   0.39406   0.40222   0.40597
 Alpha virt. eigenvalues --    0.41383   0.41701   0.42996   0.43897   0.44006
 Alpha virt. eigenvalues --    0.44459   0.44811   0.45142   0.45245   0.45886
 Alpha virt. eigenvalues --    0.46152   0.46604   0.46932   0.47336   0.47999
 Alpha virt. eigenvalues --    0.48148   0.48647   0.48891   0.49602   0.49988
 Alpha virt. eigenvalues --    0.50322   0.50554   0.50822   0.50902   0.52097
 Alpha virt. eigenvalues --    0.52357   0.52506   0.53106   0.53263   0.53689
 Alpha virt. eigenvalues --    0.54116   0.54278   0.54590   0.55096   0.55824
 Alpha virt. eigenvalues --    0.56078   0.56353   0.56768   0.57797   0.57991
 Alpha virt. eigenvalues --    0.58170   0.58416   0.58680   0.59169   0.59442
 Alpha virt. eigenvalues --    0.59996   0.60410   0.60885   0.61540   0.62368
 Alpha virt. eigenvalues --    0.63203   0.63318   0.64188   0.64973   0.65238
 Alpha virt. eigenvalues --    0.65375   0.66050   0.66505   0.66797   0.67229
 Alpha virt. eigenvalues --    0.67597   0.68723   0.68815   0.69701   0.69982
 Alpha virt. eigenvalues --    0.70170   0.71020   0.71525   0.72030   0.72784
 Alpha virt. eigenvalues --    0.73441   0.73758   0.74435   0.74739   0.75189
 Alpha virt. eigenvalues --    0.75285   0.75740   0.76105   0.76314   0.76523
 Alpha virt. eigenvalues --    0.76980   0.77645   0.77681   0.78191   0.78719
 Alpha virt. eigenvalues --    0.79158   0.79368   0.79667   0.80110   0.80438
 Alpha virt. eigenvalues --    0.80648   0.81050   0.81684   0.81800   0.82222
 Alpha virt. eigenvalues --    0.82671   0.83241   0.83725   0.83813   0.84421
 Alpha virt. eigenvalues --    0.84728   0.85241   0.85739   0.86161   0.86638
 Alpha virt. eigenvalues --    0.87145   0.87349   0.88594   0.88952   0.89646
 Alpha virt. eigenvalues --    0.89900   0.90519   0.90868   0.91005   0.91545
 Alpha virt. eigenvalues --    0.91681   0.92734   0.93804   0.94419   0.95021
 Alpha virt. eigenvalues --    0.95469   0.96311   0.97050   0.97571   0.98285
 Alpha virt. eigenvalues --    0.99752   0.99906   1.00726   1.01619   1.02086
 Alpha virt. eigenvalues --    1.02942   1.04245   1.05020   1.05339   1.05772
 Alpha virt. eigenvalues --    1.06407   1.07051   1.07613   1.07997   1.08581
 Alpha virt. eigenvalues --    1.09058   1.10288   1.10816   1.11401   1.12034
 Alpha virt. eigenvalues --    1.13310   1.13737   1.14665   1.15028   1.15389
 Alpha virt. eigenvalues --    1.16974   1.17534   1.18395   1.19258   1.19818
 Alpha virt. eigenvalues --    1.20094   1.21016   1.22173   1.23036   1.23729
 Alpha virt. eigenvalues --    1.24253   1.24431   1.25387   1.26315   1.27397
 Alpha virt. eigenvalues --    1.28628   1.28747   1.29722   1.30820   1.31517
 Alpha virt. eigenvalues --    1.31772   1.32528   1.33501   1.34228   1.34500
 Alpha virt. eigenvalues --    1.34547   1.36266   1.36775   1.37923   1.38686
 Alpha virt. eigenvalues --    1.38937   1.39671   1.40000   1.40358   1.41000
 Alpha virt. eigenvalues --    1.41128   1.42677   1.43133   1.44659   1.45356
 Alpha virt. eigenvalues --    1.46061   1.46651   1.47764   1.48203   1.50067
 Alpha virt. eigenvalues --    1.51752   1.52758   1.53326   1.54054   1.54165
 Alpha virt. eigenvalues --    1.55991   1.56411   1.58324   1.59219   1.60366
 Alpha virt. eigenvalues --    1.60502   1.61196   1.61782   1.61940   1.62160
 Alpha virt. eigenvalues --    1.62727   1.63854   1.64411   1.65718   1.65975
 Alpha virt. eigenvalues --    1.66303   1.67121   1.67843   1.68090   1.68957
 Alpha virt. eigenvalues --    1.69397   1.70723   1.70799   1.71576   1.71646
 Alpha virt. eigenvalues --    1.72149   1.72734   1.73628   1.74208   1.74832
 Alpha virt. eigenvalues --    1.75264   1.76232   1.76319   1.76849   1.77327
 Alpha virt. eigenvalues --    1.78482   1.78962   1.79956   1.80398   1.81000
 Alpha virt. eigenvalues --    1.81103   1.81909   1.82580   1.82958   1.83416
 Alpha virt. eigenvalues --    1.84398   1.84891   1.85122   1.85748   1.86293
 Alpha virt. eigenvalues --    1.86582   1.86736   1.88048   1.88660   1.89572
 Alpha virt. eigenvalues --    1.89724   1.90507   1.91169   1.92088   1.93224
 Alpha virt. eigenvalues --    1.93480   1.93923   1.94952   1.95203   1.95686
 Alpha virt. eigenvalues --    1.96438   1.97396   1.97685   1.98248   1.99289
 Alpha virt. eigenvalues --    1.99454   2.00977   2.01740   2.01936   2.03112
 Alpha virt. eigenvalues --    2.03873   2.04571   2.04830   2.05494   2.05677
 Alpha virt. eigenvalues --    2.06639   2.07934   2.08642   2.09201   2.09739
 Alpha virt. eigenvalues --    2.10538   2.11784   2.12163   2.13129   2.14141
 Alpha virt. eigenvalues --    2.14470   2.15518   2.16488   2.17347   2.18156
 Alpha virt. eigenvalues --    2.18863   2.19663   2.20083   2.20780   2.22089
 Alpha virt. eigenvalues --    2.22480   2.23745   2.24419   2.25102   2.26445
 Alpha virt. eigenvalues --    2.27220   2.28038   2.28685   2.29470   2.29812
 Alpha virt. eigenvalues --    2.30381   2.31389   2.31634   2.32357   2.33032
 Alpha virt. eigenvalues --    2.34220   2.34577   2.34972   2.36686   2.36955
 Alpha virt. eigenvalues --    2.39609   2.39694   2.41198   2.42111   2.44186
 Alpha virt. eigenvalues --    2.44949   2.45526   2.46202   2.46800   2.48443
 Alpha virt. eigenvalues --    2.48750   2.49477   2.49745   2.50194   2.50931
 Alpha virt. eigenvalues --    2.51125   2.52292   2.53641   2.53864   2.54874
 Alpha virt. eigenvalues --    2.55415   2.55920   2.56580   2.56840   2.58200
 Alpha virt. eigenvalues --    2.59097   2.60366   2.61318   2.61986   2.62975
 Alpha virt. eigenvalues --    2.63552   2.64863   2.65559   2.66249   2.68378
 Alpha virt. eigenvalues --    2.70003   2.71798   2.73631   2.74381   2.75987
 Alpha virt. eigenvalues --    2.76688   2.78834   2.81400   2.85502   2.85866
 Alpha virt. eigenvalues --    2.86703   2.88839   2.91062   2.91589   2.92453
 Alpha virt. eigenvalues --    2.93499   2.94073   2.94926   2.96481   2.97148
 Alpha virt. eigenvalues --    2.97525   2.98874   3.00704   3.03223   3.07270
 Alpha virt. eigenvalues --    3.11009   3.31999   3.70679   3.72943   3.74845
 Alpha virt. eigenvalues --    3.77994   3.78567   3.82319   3.88802   3.92931
 Alpha virt. eigenvalues --    3.95223   3.98719   4.01049   4.03247   4.03443
 Alpha virt. eigenvalues --    4.07928   4.08970   4.09526   4.11037   4.12797
 Alpha virt. eigenvalues --    4.15182   4.17170   4.17947   4.21710   4.23413
 Alpha virt. eigenvalues --    4.26423   4.28667   4.29935   4.33988   4.36309
 Alpha virt. eigenvalues --    4.38038   4.38127   4.41354   4.46035   4.48464
 Alpha virt. eigenvalues --    4.54270   4.56709   4.57532   4.63191   4.64435
 Alpha virt. eigenvalues --    4.66919
          Condensed to atoms (all electrons):
 Mulliken charges:
               1
     1  N   -0.730856
     2  C   -0.081673
     3  C    0.616557
     4  O   -0.520105
     5  C   -0.361895
     6  C    0.584967
     7  N   -0.731249
     8  O   -0.547430
     9  H    0.156081
    10  H    0.191781
    11  H    0.173103
    12  H    0.344906
    13  H    0.377164
    14  H    0.331418
    15  H    0.328230
    16  N   -0.630668
    17  C   -0.060972
    18  C    0.610036
    19  O   -0.568554
    20  C   -0.372212
    21  C    0.167804
    22  C   -0.165214
    23  C   -0.202806
    24  C   -0.127386
    25  C   -0.141661
    26  C   -0.147528
    27  H    0.339732
    28  H    0.207864
    29  H    0.163678
    30  H    0.183575
    31  H    0.142272
    32  H    0.124499
    33  H    0.156010
    34  H    0.150938
    35  H    0.155650
    36  N   -0.603837
    37  C   -0.120346
    38  C    0.648611
    39  O   -0.521160
    40  C   -0.365701
    41  C    0.639379
    42  N   -0.728537
    43  O   -0.564193
    44  H    0.374920
    45  H    0.226223
    46  H    0.198346
    47  H    0.199242
    48  H    0.361401
    49  H    0.364474
    50  N   -0.670395
    51  C   -0.023398
    52  C    0.626537
    53  O   -0.537123
    54  C   -0.303113
    55  C   -0.296785
    56  C   -0.177617
    57  N   -0.601491
    58  C    0.786040
    59  N   -0.768786
    60  N   -0.779018
    61  O   -0.558874
    62  H    0.436283
    63  H    0.381392
    64  H    0.232940
    65  H    0.177548
    66  H    0.203094
    67  H    0.172718
    68  H    0.186853
    69  H    0.191359
    70  H    0.182712
    71  H    0.362513
    72  H    0.395703
    73  H    0.388180
    74  H    0.389440
    75  H    0.378415
 Sum of Mulliken charges =   1.00000
 Mulliken charges with hydrogens summed into heavy atoms:
               1
     1  N   -0.071208
     2  C    0.074408
     3  C    0.616557
     4  O   -0.520105
     5  C    0.002989
     6  C    0.584967
     7  N   -0.009179
     8  O   -0.547430
    16  N   -0.290936
    17  C    0.146892
    18  C    0.610036
    19  O   -0.568554
    20  C   -0.024958
    21  C    0.167804
    22  C   -0.022942
    23  C   -0.078307
    24  C    0.028624
    25  C    0.009276
    26  C    0.008122
    36  N   -0.228917
    37  C    0.105877
    38  C    0.648611
    39  O   -0.521160
    40  C    0.031887
    41  C    0.639379
    42  N   -0.002662
    43  O   -0.564193
    50  N   -0.289004
    51  C    0.209541
    52  C    0.626537
    53  O   -0.537123
    54  C    0.077528
    55  C    0.062786
    56  C    0.196453
    57  N   -0.238978
    58  C    0.786040
    59  N    0.015097
    60  N   -0.011164
    61  O   -0.122591
 Electronic spatial extent (au):  <R**2>=         137589.5248
 Charge=              1.0000 electrons
 Dipole moment (field-independent basis, Debye):
    X=            -29.9167    Y=             -9.6344    Z=            -39.6471  Tot=             50.5937
 Quadrupole moment (field-independent basis, Debye-Ang):
   XX=             33.8180   YY=           -195.4367   ZZ=            151.8113
   XY=             44.5343   XZ=            256.2301   YZ=             56.8243
 Traceless Quadrupole moment (field-independent basis, Debye-Ang):
   XX=             37.0872   YY=           -192.1675   ZZ=            155.0804
   XY=             44.5343   XZ=            256.2301   YZ=             56.8243
 Octapole moment (field-independent basis, Debye-Ang**2):
  XXX=           2199.0738  YYY=           1054.0229  ZZZ=           1527.4922  XYY=           1439.4912
  XXY=            106.2661  XXZ=           -447.9517  XZZ=           -804.6374  YZZ=            -34.1134
  YYZ=           1594.4247  XYZ=           -246.9437
 Hexadecapole moment (field-independent basis, Debye-Ang**3):
 XXXX=         -52394.3798 YYYY=          -9298.9524 ZZZZ=         -48764.2753 XXXY=          -6007.9736
 XXXZ=         -16204.6665 YYYX=          -7729.5859 YYYZ=          -8092.3408 ZZZX=         -14606.1504
 ZZZY=          -5077.2957 XXYY=         -13900.6275 XXZZ=          -7912.9164 YYZZ=         -14857.9375
 XXYZ=          -1458.5182 YYXZ=         -11753.5247 ZZXY=          -1074.4705
 N-N= 5.189455854230D+03 E-N=-1.481869783580D+04  KE= 1.899806421404D+03
 Unable to Open any file for archive entry.
 1\1\GINC-AMR-058\SP\RB3LYP\6-31G(d)\C23H36N9O7(1+)\KENGMITH\03-Jun-202
 2\0\\# B3LYP/6-31G* empiricaldispersion=gd3 guess=read geom=check nosy
 mm integral(ultrafinegrid)\\Candidate Structure: Conf:135 Charge calc 
 in gas phase\\1,1\N,0,-10.80943284,0.7171189099,-7.8591005988\C,0,-9.4
 374134853,0.2296770102,-8.0136473301\C,0,-9.1831876105,-1.067712502,-7
 .2437754993\O,0,-9.431448159,-1.1708184277,-6.0493499745\C,0,-8.439944
 2406,1.292973082,-7.5015763166\C,0,-8.1745738235,2.3666285619,-8.55128
 20377\N,0,-9.2781884535,3.0362508977,-8.956948083\O,0,-7.0424715946,2.
 5777353508,-8.9907012108\H,0,-9.2592529444,0.0644515043,-9.0824199382\
 H,0,-8.8402432986,1.7337755868,-6.5815429662\H,0,-7.4857283014,0.83305
 37356,-7.2511642353\H,0,-9.1893806234,3.7151502123,-9.7007123751\H,0,-
 10.1961281568,2.6982647528,-8.6769441025\H,0,-11.4620649332,0.08174093
 4,-8.3197465884\H,0,-11.0461364611,0.69716971,-6.8658935286\N,0,-8.598
 5567298,-2.0831002009,-7.9732675068\C,0,-8.6515943585,-3.4653416762,-7
 .4903192564\C,0,-7.237380285,-4.0452446107,-7.5772102054\O,0,-6.923867
 0713,-4.8486678868,-8.4799842319\C,0,-9.6900445844,-4.293940677,-8.278
 0215103\C,0,-10.9926979396,-3.5329391186,-8.399251811\C,0,-11.82812378
 63,-3.3595226781,-7.2875977302\C,0,-11.3362520746,-2.9009939421,-9.601
 2039185\C,0,-12.9763405326,-2.572703376,-7.3739531513\C,0,-12.48750756
 98,-2.1140256972,-9.6955052462\C,0,-13.30957266,-1.9453960578,-8.57839
 96266\H,0,-8.6220936101,-1.967571152,-8.9797407476\H,0,-8.9582926678,-
 3.3966388668,-6.4435474362\H,0,-9.2832541245,-4.5292289479,-9.26677409
 53\H,0,-9.8269997653,-5.2525202083,-7.7651077963\H,0,-11.5723943879,-3
 .8351908846,-6.3439560396\H,0,-10.7062382255,-3.0378196898,-10.4783424
 453\H,0,-13.6135976452,-2.4514046788,-6.5028126247\H,0,-12.7465396699,
 -1.6443620507,-10.640469219\H,0,-14.2095735991,-1.3411262848,-8.648606
 5786\N,0,-6.3152966064,-3.6224255497,-6.6939581236\C,0,-6.3249354649,-
 2.5707065296,-5.6775649791\C,0,-5.5787308209,-1.2897638305,-6.15305804
 42\O,0,-4.9269365803,-0.6213517348,-5.3599456723\C,0,-5.6080667762,-3.
 087104582,-4.4177833858\C,0,-4.1352265918,-3.4011327342,-4.7047887747\
 N,0,-3.3037543079,-3.3492736569,-3.6474219108\O,0,-3.7377541848,-3.731
 4768441,-5.8334368014\H,0,-5.3755654334,-4.0030678808,-6.800124305\H,0
 ,-7.3531399545,-2.2872778477,-5.432174211\H,0,-6.0996244053,-4.0039950
 44,-4.0722504787\H,0,-5.6891870419,-2.3376014194,-3.6278564937\H,0,-2.
 3227825111,-3.5490877211,-3.7925014742\H,0,-3.5878444269,-2.9710583336
 ,-2.7555056066\N,0,-5.6672240469,-1.0076268484,-7.4774349609\C,0,-5.01
 92404856,0.1515069117,-8.0738595267\C,0,-5.5532420159,0.2794077926,-9.
 4892114375\O,0,-6.5172994826,-0.339639457,-9.9222679395\C,0,-3.4736396
 468,0.1529601082,-7.9144296989\C,0,-2.7396761541,-1.1849798476,-8.0884
 081403\C,0,-2.5852913871,-1.7008337281,-9.5241093019\N,0,-3.8556411748
 ,-2.0130998837,-10.196627426\C,0,-4.6483130835,-3.0610056689,-9.940519
 7657\N,0,-4.263554139,-4.0667948236,-9.1488869106\N,0,-5.8491576668,-3
 .1363723655,-10.5522321203\O,0,-4.8505622664,1.1422796219,-10.22796278
 54\H,0,-5.4067281236,1.4116721582,-10.9837957831\H,0,-6.4003891667,-1.
 4481464728,-8.0211744148\H,0,-5.3742893441,1.0781923571,-7.5992847792\
 H,0,-3.0635229504,0.915889122,-8.5839133374\H,0,-3.2873717012,0.487318
 2466,-6.892168248\H,0,-1.7211669902,-1.053688966,-7.7024143847\H,0,-3.
 2000936178,-1.9482662924,-7.4531004375\H,0,-2.0976473508,-0.9480443708
 ,-10.1488887847\H,0,-1.9437665271,-2.5901547107,-9.5518297034\H,0,-4.1
 740753935,-1.3698197826,-10.9073036732\H,0,-4.9965523335,-4.7139631749
 ,-8.8454307511\H,0,-3.432316953,-4.0007065373,-8.5786392632\H,0,-6.482
 1291212,-3.8561275902,-10.207722354\H,0,-6.2786768878,-2.2554565031,-1
 0.8158978085\\Version=ES64L-G16RevC.01\HF=-1917.5214909\RMSD=9.090e-09
 \Dipole=1.6759456,-0.7694347,-0.7112968\Quadrupole=27.573389,-142.8718
 624,115.2984733,33.1101312,190.5008313,42.2474768\PG=C01 [X(C23H36N9O7
 )]\\@
 The archive entry for this job was punched.


 10 WHATSOEVER THY HAND FINDETH TO DO, DO IT WITH THY  
 MIGHT. FOR THERE IS NO WORK, NOR DEVICE, NOR KNOWLEDGE, NOR  
 WISDOM, IN THE GRAVE, WHITHER THOU GOEST.                    
 11 I RETURNED AND SAW UNDER THE SUN, THAT THE RACE IS NOT TO 
 THE SWIFT, NOR THE BATTLE TO THE STRONG, NEITHER YET BREAD TO
 THE WISE, NOR YET RICHES TO MEN OF UNDERSTANDING, NOR YET    
 FAVOR TO MEN OF SKILL. BUT TIME AND CHANCE HAPPEN TO THEM ALL.
 12 FOR MAN ALSO KNOWETH NOT HIS TIME. AS THE FISHES   
 THAT ARE TAKEN IN AN EVIL NET, AND AS THE BIRDS THAT ARE     
 CAUGHT IN THE SNARE. SO ARE THE SONS OF MEN SNARED IN AN EVIL
 TIME, WHEN IT FALLETH SUDDENLY UPON THEM.
                                         ECCLESIASTES 9
 Job cpu time:       0 days  0 hours  3 minutes 11.3 seconds.
 Elapsed time:       0 days  0 hours  0 minutes 48.6 seconds.
 File lengths (MBytes):  RWF=    344 Int=      0 D2E=      0 Chk=     48 Scr=     16
 Normal termination of Gaussian 16 at Fri Jun  3 06:16:35 2022.
