 Entering Gaussian System, Link 0=/opt/software/Gaussian/g16-AVX2-C.01/g16/g16
 Input=charge-conf-961.com
 Output=charge-conf-961.log
 Initial command:
 /opt/software/Gaussian/g16-AVX2-C.01/g16/l1.exe "/mnt/gs18/scratch/users/kengmith/Gau-116236.inp" -scrdir="/mnt/gs18/scratch/users/kengmith/"
 Entering Link 1 = /opt/software/Gaussian/g16-AVX2-C.01/g16/l1.exe PID=    116246.
  
 Copyright (c) 1988-2019, Gaussian, Inc.  All Rights Reserved.
  
 This is part of the Gaussian(R) 16 program.  It is based on
 the Gaussian(R) 09 system (copyright 2009, Gaussian, Inc.),
 the Gaussian(R) 03 system (copyright 2003, Gaussian, Inc.),
 the Gaussian(R) 98 system (copyright 1998, Gaussian, Inc.),
 the Gaussian(R) 94 system (copyright 1995, Gaussian, Inc.),
 the Gaussian 92(TM) system (copyright 1992, Gaussian, Inc.),
 the Gaussian 90(TM) system (copyright 1990, Gaussian, Inc.),
 the Gaussian 88(TM) system (copyright 1988, Gaussian, Inc.),
 the Gaussian 86(TM) system (copyright 1986, Carnegie Mellon
 University), and the Gaussian 82(TM) system (copyright 1983,
 Carnegie Mellon University). Gaussian is a federally registered
 trademark of Gaussian, Inc.
  
 This software contains proprietary and confidential information,
 including trade secrets, belonging to Gaussian, Inc.
  
 This software is provided under written license and may be
 used, copied, transmitted, or stored only in accord with that
 written license.
  
 The following legend is applicable only to US Government
 contracts under FAR:
  
                    RESTRICTED RIGHTS LEGEND
  
 Use, reproduction and disclosure by the US Government is
 subject to restrictions as set forth in subparagraphs (a)
 and (c) of the Commercial Computer Software - Restricted
 Rights clause in FAR 52.227-19.
  
 Gaussian, Inc.
 340 Quinnipiac St., Bldg. 40, Wallingford CT 06492
  
  
 ---------------------------------------------------------------
 Warning -- This program may not be used in any manner that
 competes with the business of Gaussian, Inc. or will provide
 assistance to any competitor of Gaussian, Inc.  The licensee
 of this program is prohibited from giving any competitor of
 Gaussian, Inc. access to this program.  By using this program,
 the user acknowledges that Gaussian, Inc. is engaged in the
 business of creating and licensing software in the field of
 computational chemistry and represents and warrants to the
 licensee that it is not a competitor of Gaussian, Inc. and that
 it will not use this program in any manner prohibited above.
 ---------------------------------------------------------------
  

 Cite this work as:
 Gaussian 16, Revision C.01,
 M. J. Frisch, G. W. Trucks, H. B. Schlegel, G. E. Scuseria, 
 M. A. Robb, J. R. Cheeseman, G. Scalmani, V. Barone, 
 G. A. Petersson, H. Nakatsuji, X. Li, M. Caricato, A. V. Marenich, 
 J. Bloino, B. G. Janesko, R. Gomperts, B. Mennucci, H. P. Hratchian, 
 J. V. Ortiz, A. F. Izmaylov, J. L. Sonnenberg, D. Williams-Young, 
 F. Ding, F. Lipparini, F. Egidi, J. Goings, B. Peng, A. Petrone, 
 T. Henderson, D. Ranasinghe, V. G. Zakrzewski, J. Gao, N. Rega, 
 G. Zheng, W. Liang, M. Hada, M. Ehara, K. Toyota, R. Fukuda, 
 J. Hasegawa, M. Ishida, T. Nakajima, Y. Honda, O. Kitao, H. Nakai, 
 T. Vreven, K. Throssell, J. A. Montgomery, Jr., J. E. Peralta, 
 F. Ogliaro, M. J. Bearpark, J. J. Heyd, E. N. Brothers, K. N. Kudin, 
 V. N. Staroverov, T. A. Keith, R. Kobayashi, J. Normand, 
 K. Raghavachari, A. P. Rendell, J. C. Burant, S. S. Iyengar, 
 J. Tomasi, M. Cossi, J. M. Millam, M. Klene, C. Adamo, R. Cammi, 
 J. W. Ochterski, R. L. Martin, K. Morokuma, O. Farkas, 
 J. B. Foresman, and D. J. Fox, Gaussian, Inc., Wallingford CT, 2019.
 
 ******************************************
 Gaussian 16:  ES64L-G16RevC.01  3-Jul-2019
                 3-Jun-2022 
 ******************************************
 %mem=8gb
 %nproc=4
 Will use up to    4 processors via shared memory.
 %chk=conf-961.chk
 ----------------------------------------------------------------------
 # B3LYP/6-31G* empiricaldispersion=gd3 guess=read geom=check nosymm in
 tegral(ultrafinegrid)
 ----------------------------------------------------------------------
 1/29=2,38=1,172=1/1;
 2/12=2,15=1,40=1/2;
 3/5=1,6=6,7=1,11=2,14=-4,25=1,30=1,74=-5,75=-5,116=-2,124=31/1,2,3;
 4/5=1/1;
 5/5=2,38=6/2;
 6/7=2,8=2,9=2,10=2,28=1/1;
 99/5=1,9=1/99;
 ------------------------------------------------------
 Candidate Structure: Conf:961 Charge calc in gas phase
 ------------------------------------------------------
 Structure from the checkpoint file:  "conf-961.chk"
 Charge =  1 Multiplicity = 1
 Redundant internal coordinates found in file.  (old form).
 N,0,-7.7020891977,1.3304401513,-9.0092815497
 C,0,-6.3671892366,1.509610806,-8.3390097785
 C,0,-5.5316334419,0.2181388134,-8.2556003455
 O,0,-4.4084606345,0.194707267,-8.7445243206
 C,0,-6.5867825731,2.1127717014,-6.9496763228
 C,0,-7.2194988591,3.4982048533,-7.0261161942
 N,0,-7.0429083708,4.2675682181,-5.9313897186
 O,0,-7.8647362521,3.8670713163,-8.0126182302
 H,0,-5.7919235982,2.1896001262,-8.9687953261
 H,0,-7.2478406701,1.4659290589,-6.3614789116
 H,0,-5.631733027,2.1421519674,-6.4175440983
 H,0,-7.4810969535,5.1783354378,-5.8958123096
 H,0,-6.5162698955,3.9402930814,-5.1329867692
 H,0,-8.1024024983,2.2825500039,-9.0844947331
 H,0,-7.6092812311,0.8367930663,-9.9122432614
 N,0,-6.0884779699,-0.8296899449,-7.5870114695
 C,0,-5.2580134825,-1.9060430417,-7.0460880649
 C,0,-5.5916425488,-3.3045014306,-7.6128745302
 O,0,-5.7717047605,-4.2562612508,-6.8508599382
 C,0,-5.3831552848,-1.9310318145,-5.5060528081
 C,0,-5.2517876944,-0.561883301,-4.8730320388
 C,0,-4.0614919857,0.1759502646,-4.961170509
 C,0,-6.3372362962,-0.0008440252,-4.1874560098
 C,0,-3.954662296,1.433974452,-4.366322078
 C,0,-6.2332824116,1.25455301,-3.5810521889
 C,0,-5.0397571064,1.9754072286,-3.6664373849
 H,0,-6.9752895518,-0.6715952187,-7.1129983113
 H,0,-4.2316565678,-1.6735637314,-7.3506417974
 H,0,-6.3578867204,-2.3591374506,-5.2569304033
 H,0,-4.6289375648,-2.6206375713,-5.1141409394
 H,0,-3.2096138768,-0.2379234744,-5.4953396764
 H,0,-7.2734507122,-0.5515093516,-4.1357971334
 H,0,-3.0210724629,1.9854195046,-4.43497191
 H,0,-7.0810386129,1.66123368,-3.0358326804
 H,0,-4.9424125213,2.939163473,-3.1718509451
 N,0,-5.6164414043,-3.5090445661,-8.9651193758
 C,0,-5.8126057561,-2.5467402287,-10.0446748566
 C,0,-7.2279873447,-1.9203698091,-10.0622598588
 O,0,-7.4121114449,-0.8363576224,-10.6279738029
 C,0,-5.5002573967,-3.1925259404,-11.4074864542
 C,0,-6.3995142224,-4.388783379,-11.7304329451
 N,0,-6.5893757277,-4.6386898226,-13.0462611269
 O,0,-6.9000501516,-5.0933536154,-10.8499213366
 H,0,-5.8716790987,-4.4626475292,-9.2156512757
 H,0,-5.1276396076,-1.7054698726,-9.918898164
 H,0,-4.4595222557,-3.5395780866,-11.4055720325
 H,0,-5.586846131,-2.4183986848,-12.1766339678
 H,0,-7.1171130333,-5.4596290557,-13.3114433003
 H,0,-6.1818953797,-4.0720967176,-13.7753873992
 N,0,-8.1909178317,-2.6361123056,-9.4449762925
 C,0,-9.4320786607,-2.0974035501,-8.88202487
 C,0,-9.0335726618,-1.5806696856,-7.4660663159
 O,0,-8.697257404,-2.4399435601,-6.6040474282
 C,0,-10.4988092068,-3.212315875,-8.9039323109
 C,0,-11.6660846445,-3.0513563926,-7.8982962326
 C,0,-11.7917194558,-4.2541449664,-6.9418570996
 N,0,-10.5328812094,-4.4431562419,-6.1969555651
 C,0,-9.6808695509,-5.4626158016,-6.3878779604
 N,0,-10.1508256242,-6.7054768213,-6.6310202553
 N,0,-8.3719019461,-5.2242396772,-6.3504120384
 O,0,-8.9403514354,-0.3327135749,-7.3028409564
 H,0,-8.3414117409,0.7283039904,-8.4192101016
 H,0,-7.8864636403,-3.5101262323,-9.0356163519
 H,0,-9.737457446,-1.2464691284,-9.4933147539
 H,0,-10.8780981445,-3.2911046372,-9.9273742345
 H,0,-9.9877636652,-4.1628072781,-8.7116677582
 H,0,-11.5471682059,-2.1389894781,-7.3004376046
 H,0,-12.6218096898,-2.9413030641,-8.4214491687
 H,0,-12.6101361654,-4.0972532214,-6.2325840884
 H,0,-12.0077171548,-5.1644941051,-7.5097253953
 H,0,-10.0290059477,-3.5649323511,-6.0258929444
 H,0,-9.5101847361,-7.4640538249,-6.8151812375
 H,0,-11.0760430318,-6.9578468148,-6.3149895671
 H,0,-7.6681025271,-5.9466852961,-6.3016317879
 H,0,-8.0421182519,-4.2597481111,-6.4203665682
 Recover connectivity data from disk.
                           ----------------------------
                           !    Current Parameters    !
                           ! (Angstroms and Degrees)  !
 --------------------------                            --------------------------
 ! Name  Definition              Value                                          !
 --------------------------------------------------------------------------------
 ! R1    R(1,2)                  1.5044                                         !
 ! R2    R(1,14)                 1.0356                                         !
 ! R3    R(1,15)                 1.0333                                         !
 ! R4    R(2,3)                  1.5405                                         !
 ! R5    R(2,5)                  1.5304                                         !
 ! R6    R(2,9)                  1.0908                                         !
 ! R7    R(3,4)                  1.2252                                         !
 ! R8    R(3,16)                 1.362                                          !
 ! R9    R(5,6)                  1.525                                          !
 ! R10   R(5,10)                 1.0961                                         !
 ! R11   R(5,11)                 1.0937                                         !
 ! R12   R(6,7)                  1.3496                                         !
 ! R13   R(6,8)                  1.2351                                         !
 ! R14   R(7,12)                 1.0113                                         !
 ! R15   R(7,13)                 1.0109                                         !
 ! R16   R(16,17)                1.4631                                         !
 ! R17   R(16,27)                1.0179                                         !
 ! R18   R(17,18)                1.5454                                         !
 ! R19   R(17,20)                1.5453                                         !
 ! R20   R(17,28)                1.0955                                         !
 ! R21   R(18,19)                1.2325                                         !
 ! R22   R(18,36)                1.3679                                         !
 ! R23   R(20,21)                1.5141                                         !
 ! R24   R(20,29)                1.0934                                         !
 ! R25   R(20,30)                1.0945                                         !
 ! R26   R(21,22)                1.4032                                         !
 ! R27   R(21,23)                1.4011                                         !
 ! R28   R(22,24)                1.3957                                         !
 ! R29   R(22,31)                1.0873                                         !
 ! R30   R(23,25)                1.3981                                         !
 ! R31   R(23,32)                1.0874                                         !
 ! R32   R(24,26)                1.4001                                         !
 ! R33   R(24,33)                1.0865                                         !
 ! R34   R(25,26)                1.3969                                         !
 ! R35   R(25,34)                1.0869                                         !
 ! R36   R(26,35)                1.0876                                         !
 ! R37   R(36,37)                1.4594                                         !
 ! R38   R(36,44)                1.0185                                         !
 ! R39   R(37,38)                1.5479                                         !
 ! R40   R(37,40)                1.5401                                         !
 ! R41   R(37,45)                1.0921                                         !
 ! R42   R(38,39)                1.2365                                         !
 ! R43   R(38,50)                1.3493                                         !
 ! R44   R(40,41)                1.531                                          !
 ! R45   R(40,46)                1.0971                                         !
 ! R46   R(40,47)                1.0947                                         !
 ! R47   R(41,42)                1.3527                                         !
 ! R48   R(41,43)                1.2338                                         !
 ! R49   R(42,48)                1.0113                                         !
 ! R50   R(42,49)                1.0093                                         !
 ! R51   R(50,51)                1.4655                                         !
 ! R52   R(50,63)                1.012                                          !
 ! R53   R(51,52)                1.5591                                         !
 ! R54   R(51,54)                1.5432                                         !
 ! R55   R(51,64)                1.0913                                         !
 ! R56   R(52,53)                1.2627                                         !
 ! R57   R(52,61)                1.262                                          !
 ! R58   R(54,55)                1.5491                                         !
 ! R59   R(54,65)                1.0943                                         !
 ! R60   R(54,66)                1.0962                                         !
 ! R61   R(55,56)                1.5418                                         !
 ! R62   R(55,67)                1.0973                                         !
 ! R63   R(55,68)                1.0951                                         !
 ! R64   R(56,57)                1.4749                                         !
 ! R65   R(56,69)                1.0943                                         !
 ! R66   R(56,70)                1.0945                                         !
 ! R67   R(57,58)                1.3423                                         !
 ! R68   R(57,71)                1.0269                                         !
 ! R69   R(58,59)                1.3508                                         !
 ! R70   R(58,60)                1.331                                          !
 ! R71   R(59,72)                1.0098                                         !
 ! R72   R(59,73)                1.0097                                         !
 ! R73   R(60,74)                1.0098                                         !
 ! R74   R(60,75)                1.0217                                         !
 ! R75   R(61,62)                1.6525                                         !
 ! A1    A(2,1,14)             105.4182                                         !
 ! A2    A(2,1,15)             111.5027                                         !
 ! A3    A(14,1,15)            114.2361                                         !
 ! A4    A(1,2,3)              113.9263                                         !
 ! A5    A(1,2,5)              108.9094                                         !
 ! A6    A(1,2,9)              106.5557                                         !
 ! A7    A(3,2,5)              111.0437                                         !
 ! A8    A(3,2,9)              105.5348                                         !
 ! A9    A(5,2,9)              110.7383                                         !
 ! A10   A(2,3,4)              119.4501                                         !
 ! A11   A(2,3,16)             116.7311                                         !
 ! A12   A(4,3,16)             123.7781                                         !
 ! A13   A(2,5,6)              111.8433                                         !
 ! A14   A(2,5,10)             109.9448                                         !
 ! A15   A(2,5,11)             109.0855                                         !
 ! A16   A(6,5,10)             108.2284                                         !
 ! A17   A(6,5,11)             111.2408                                         !
 ! A18   A(10,5,11)            106.3447                                         !
 ! A19   A(5,6,7)              115.0203                                         !
 ! A20   A(5,6,8)              121.8764                                         !
 ! A21   A(7,6,8)              123.0897                                         !
 ! A22   A(6,7,12)             119.0265                                         !
 ! A23   A(6,7,13)             121.6169                                         !
 ! A24   A(12,7,13)            119.3076                                         !
 ! A25   A(3,16,17)            121.0228                                         !
 ! A26   A(3,16,27)            117.7297                                         !
 ! A27   A(17,16,27)           115.8864                                         !
 ! A28   A(16,17,18)           114.0525                                         !
 ! A29   A(16,17,20)           109.5341                                         !
 ! A30   A(16,17,28)           105.8347                                         !
 ! A31   A(18,17,20)           109.4747                                         !
 ! A32   A(18,17,28)           106.9972                                         !
 ! A33   A(20,17,28)           110.8758                                         !
 ! A34   A(17,18,19)           120.2386                                         !
 ! A35   A(17,18,36)           120.1196                                         !
 ! A36   A(19,18,36)           119.5452                                         !
 ! A37   A(17,20,21)           113.2662                                         !
 ! A38   A(17,20,29)           107.7942                                         !
 ! A39   A(17,20,30)           108.1332                                         !
 ! A40   A(21,20,29)           109.6425                                         !
 ! A41   A(21,20,30)           111.1149                                         !
 ! A42   A(29,20,30)           106.6207                                         !
 ! A43   A(20,21,22)           121.5213                                         !
 ! A44   A(20,21,23)           119.9642                                         !
 ! A45   A(22,21,23)           118.5131                                         !
 ! A46   A(21,22,24)           120.8054                                         !
 ! A47   A(21,22,31)           119.6889                                         !
 ! A48   A(24,22,31)           119.5051                                         !
 ! A49   A(21,23,25)           120.9451                                         !
 ! A50   A(21,23,32)           119.1756                                         !
 ! A51   A(25,23,32)           119.8779                                         !
 ! A52   A(22,24,26)           120.1515                                         !
 ! A53   A(22,24,33)           119.7587                                         !
 ! A54   A(26,24,33)           120.083                                          !
 ! A55   A(23,25,26)           120.0257                                         !
 ! A56   A(23,25,34)           119.7075                                         !
 ! A57   A(26,25,34)           120.2641                                         !
 ! A58   A(24,26,25)           119.5476                                         !
 ! A59   A(24,26,35)           120.0399                                         !
 ! A60   A(25,26,35)           120.3933                                         !
 ! A61   A(18,36,37)           129.4278                                         !
 ! A62   A(18,36,44)           112.8139                                         !
 ! A63   A(37,36,44)           113.6864                                         !
 ! A64   A(36,37,38)           113.4613                                         !
 ! A65   A(36,37,40)           110.5374                                         !
 ! A66   A(36,37,45)           109.7809                                         !
 ! A67   A(38,37,40)           110.1867                                         !
 ! A68   A(38,37,45)           105.2536                                         !
 ! A69   A(40,37,45)           107.3203                                         !
 ! A70   A(37,38,39)           119.7425                                         !
 ! A71   A(37,38,50)           115.6399                                         !
 ! A72   A(39,38,50)           124.6155                                         !
 ! A73   A(37,40,41)           113.2765                                         !
 ! A74   A(37,40,46)           108.8748                                         !
 ! A75   A(37,40,47)           108.0092                                         !
 ! A76   A(41,40,46)           108.0828                                         !
 ! A77   A(41,40,47)           110.9698                                         !
 ! A78   A(46,40,47)           107.4557                                         !
 ! A79   A(40,41,42)           115.5925                                         !
 ! A80   A(40,41,43)           122.2724                                         !
 ! A81   A(42,41,43)           122.1237                                         !
 ! A82   A(41,42,48)           118.572                                          !
 ! A83   A(41,42,49)           122.8418                                         !
 ! A84   A(48,42,49)           118.4859                                         !
 ! A85   A(38,50,51)           125.815                                          !
 ! A86   A(38,50,63)           115.3715                                         !
 ! A87   A(51,50,63)           114.6379                                         !
 ! A88   A(50,51,52)           104.7282                                         !
 ! A89   A(50,51,54)           108.3253                                         !
 ! A90   A(50,51,64)           107.9655                                         !
 ! A91   A(52,51,54)           115.406                                          !
 ! A92   A(52,51,64)           108.7721                                         !
 ! A93   A(54,51,64)           111.2198                                         !
 ! A94   A(51,52,53)           117.5502                                         !
 ! A95   A(51,52,61)           117.6506                                         !
 ! A96   A(53,52,61)           124.397                                          !
 ! A97   A(51,54,55)           115.8861                                         !
 ! A98   A(51,54,65)           107.7512                                         !
 ! A99   A(51,54,66)           107.5599                                         !
 ! A100  A(55,54,65)           110.6981                                         !
 ! A101  A(55,54,66)           109.119                                          !
 ! A102  A(65,54,66)           105.2601                                         !
 ! A103  A(54,55,56)           112.5221                                         !
 ! A104  A(54,55,67)           111.0045                                         !
 ! A105  A(54,55,68)           110.9736                                         !
 ! A106  A(56,55,67)           108.6319                                         !
 ! A107  A(56,55,68)           107.6758                                         !
 ! A108  A(67,55,68)           105.7426                                         !
 ! A109  A(55,56,57)           110.104                                          !
 ! A110  A(55,56,69)           110.5584                                         !
 ! A111  A(55,56,70)           110.0653                                         !
 ! A112  A(57,56,69)           109.2298                                         !
 ! A113  A(57,56,70)           108.899                                          !
 ! A114  A(69,56,70)           107.9357                                         !
 ! A115  A(56,57,58)           124.5601                                         !
 ! A116  A(56,57,71)           113.1633                                         !
 ! A117  A(58,57,71)           111.2105                                         !
 ! A118  A(57,58,59)           120.2371                                         !
 ! A119  A(57,58,60)           118.9609                                         !
 ! A120  A(59,58,60)           120.7965                                         !
 ! A121  A(58,59,72)           120.2166                                         !
 ! A122  A(58,59,73)           119.4989                                         !
 ! A123  A(72,59,73)           116.7835                                         !
 ! A124  A(58,60,74)           123.9636                                         !
 ! A125  A(58,60,75)           118.9838                                         !
 ! A126  A(74,60,75)           116.9827                                         !
 ! A127  A(52,61,62)           125.0509                                         !
 ! D1    D(14,1,2,3)          -174.1476                                         !
 ! D2    D(14,1,2,5)            61.2945                                         !
 ! D3    D(14,1,2,9)           -58.1987                                         !
 ! D4    D(15,1,2,3)           -49.6532                                         !
 ! D5    D(15,1,2,5)          -174.211                                          !
 ! D6    D(15,1,2,9)            66.2957                                         !
 ! D7    D(1,2,3,4)            123.0379                                         !
 ! D8    D(1,2,3,16)           -59.1925                                         !
 ! D9    D(5,2,3,4)           -113.5553                                         !
 ! D10   D(5,2,3,16)            64.2143                                         !
 ! D11   D(9,2,3,4)              6.4935                                         !
 ! D12   D(9,2,3,16)          -175.7369                                         !
 ! D13   D(1,2,5,6)            -62.6918                                         !
 ! D14   D(1,2,5,10)            57.5707                                         !
 ! D15   D(1,2,5,11)           173.824                                          !
 ! D16   D(3,2,5,6)            171.071                                          !
 ! D17   D(3,2,5,10)           -68.6664                                         !
 ! D18   D(3,2,5,11)            47.5869                                         !
 ! D19   D(9,2,5,6)             54.1657                                         !
 ! D20   D(9,2,5,10)           174.4283                                         !
 ! D21   D(9,2,5,11)           -69.3184                                         !
 ! D22   D(2,3,16,17)         -158.6395                                         !
 ! D23   D(2,3,16,27)           -5.5515                                         !
 ! D24   D(4,3,16,17)           19.0238                                         !
 ! D25   D(4,3,16,27)          172.1118                                         !
 ! D26   D(2,5,6,7)           -158.9288                                         !
 ! D27   D(2,5,6,8)             22.3739                                         !
 ! D28   D(10,5,6,7)            79.8108                                         !
 ! D29   D(10,5,6,8)           -98.8865                                         !
 ! D30   D(11,5,6,7)           -36.6693                                         !
 ! D31   D(11,5,6,8)           144.6333                                         !
 ! D32   D(5,6,7,12)          -176.5993                                         !
 ! D33   D(5,6,7,13)             0.837                                          !
 ! D34   D(8,6,7,12)             2.0803                                         !
 ! D35   D(8,6,7,13)           179.5166                                         !
 ! D36   D(3,16,17,18)        -120.2607                                         !
 ! D37   D(3,16,17,20)         116.6642                                         !
 ! D38   D(3,16,17,28)          -2.9164                                         !
 ! D39   D(27,16,17,18)         86.1833                                         !
 ! D40   D(27,16,17,20)        -36.8918                                         !
 ! D41   D(27,16,17,28)       -156.4724                                         !
 ! D42   D(16,17,18,19)       -130.132                                          !
 ! D43   D(16,17,18,36)         53.4593                                         !
 ! D44   D(20,17,18,19)         -7.0246                                         !
 ! D45   D(20,17,18,36)        176.5666                                         !
 ! D46   D(28,17,18,19)        113.1956                                         !
 ! D47   D(28,17,18,36)        -63.2131                                         !
 ! D48   D(16,17,20,21)        -46.7279                                         !
 ! D49   D(16,17,20,29)         74.7581                                         !
 ! D50   D(16,17,20,30)       -170.3306                                         !
 ! D51   D(18,17,20,21)       -172.4721                                         !
 ! D52   D(18,17,20,29)        -50.9861                                         !
 ! D53   D(18,17,20,30)         63.9252                                         !
 ! D54   D(28,17,20,21)         69.7068                                         !
 ! D55   D(28,17,20,29)       -168.8072                                         !
 ! D56   D(28,17,20,30)        -53.8959                                         !
 ! D57   D(17,18,36,37)        -22.9903                                         !
 ! D58   D(17,18,36,44)       -178.5087                                         !
 ! D59   D(19,18,36,37)        160.576                                          !
 ! D60   D(19,18,36,44)          5.0577                                         !
 ! D61   D(17,20,21,22)        -63.7547                                         !
 ! D62   D(17,20,21,23)        115.8188                                         !
 ! D63   D(29,20,21,22)        175.8031                                         !
 ! D64   D(29,20,21,23)         -4.6233                                         !
 ! D65   D(30,20,21,22)         58.1966                                         !
 ! D66   D(30,20,21,23)       -122.2299                                         !
 ! D67   D(20,21,22,24)       -179.681                                          !
 ! D68   D(20,21,22,31)          0.0481                                         !
 ! D69   D(23,21,22,24)          0.7394                                         !
 ! D70   D(23,21,22,31)       -179.5315                                         !
 ! D71   D(20,21,23,25)        179.1968                                         !
 ! D72   D(20,21,23,32)         -1.2395                                         !
 ! D73   D(22,21,23,25)         -1.2169                                         !
 ! D74   D(22,21,23,32)        178.3468                                         !
 ! D75   D(21,22,24,26)          0.2204                                         !
 ! D76   D(21,22,24,33)        179.269                                          !
 ! D77   D(31,22,24,26)       -179.5092                                         !
 ! D78   D(31,22,24,33)         -0.4606                                         !
 ! D79   D(21,23,25,26)          0.7335                                         !
 ! D80   D(21,23,25,34)       -178.668                                          !
 ! D81   D(32,23,25,26)       -178.8271                                         !
 ! D82   D(32,23,25,34)          1.7713                                         !
 ! D83   D(22,24,26,25)         -0.7195                                         !
 ! D84   D(22,24,26,35)        177.6952                                         !
 ! D85   D(33,24,26,25)       -179.7649                                         !
 ! D86   D(33,24,26,35)         -1.3503                                         !
 ! D87   D(23,25,26,24)          0.2479                                         !
 ! D88   D(23,25,26,35)       -178.161                                          !
 ! D89   D(34,25,26,24)        179.6461                                         !
 ! D90   D(34,25,26,35)          1.2372                                         !
 ! D91   D(18,36,37,38)        -66.2338                                         !
 ! D92   D(18,36,37,40)        169.4123                                         !
 ! D93   D(18,36,37,45)         51.2099                                         !
 ! D94   D(44,36,37,38)         89.1132                                         !
 ! D95   D(44,36,37,40)        -35.2407                                         !
 ! D96   D(44,36,37,45)       -153.4431                                         !
 ! D97   D(36,37,38,39)        158.09                                           !
 ! D98   D(36,37,38,50)        -22.4126                                         !
 ! D99   D(40,37,38,39)        -77.3664                                         !
 ! D100  D(40,37,38,50)        102.131                                          !
 ! D101  D(45,37,38,39)         38.0404                                         !
 ! D102  D(45,37,38,50)       -142.4622                                         !
 ! D103  D(36,37,40,41)         60.8624                                         !
 ! D104  D(36,37,40,46)        -59.4136                                         !
 ! D105  D(36,37,40,47)       -175.8044                                         !
 ! D106  D(38,37,40,41)        -65.3452                                         !
 ! D107  D(38,37,40,46)        174.3788                                         !
 ! D108  D(38,37,40,47)         57.988                                          !
 ! D109  D(45,37,40,41)       -179.4422                                         !
 ! D110  D(45,37,40,46)         60.2818                                         !
 ! D111  D(45,37,40,47)        -56.1091                                         !
 ! D112  D(37,38,50,51)        155.5714                                         !
 ! D113  D(37,38,50,63)         -0.0974                                         !
 ! D114  D(39,38,50,51)        -24.9589                                         !
 ! D115  D(39,38,50,63)        179.3724                                         !
 ! D116  D(37,40,41,42)        153.1321                                         !
 ! D117  D(37,40,41,43)        -28.0708                                         !
 ! D118  D(46,40,41,42)        -86.1426                                         !
 ! D119  D(46,40,41,43)         92.6546                                         !
 ! D120  D(47,40,41,42)         31.4432                                         !
 ! D121  D(47,40,41,43)       -149.7597                                         !
 ! D122  D(40,41,42,48)        175.3813                                         !
 ! D123  D(40,41,42,49)         -0.9199                                         !
 ! D124  D(43,41,42,48)         -3.4178                                         !
 ! D125  D(43,41,42,49)       -179.719                                          !
 ! D126  D(38,50,51,52)        -83.2997                                         !
 ! D127  D(38,50,51,54)        153.033                                          !
 ! D128  D(38,50,51,64)         32.4876                                         !
 ! D129  D(63,50,51,52)         72.5233                                         !
 ! D130  D(63,50,51,54)        -51.144                                          !
 ! D131  D(63,50,51,64)       -171.6895                                         !
 ! D132  D(50,51,52,53)        -67.2882                                         !
 ! D133  D(50,51,52,61)        105.7569                                         !
 ! D134  D(54,51,52,53)         51.7081                                         !
 ! D135  D(54,51,52,61)       -135.2468                                         !
 ! D136  D(64,51,52,53)        177.4859                                         !
 ! D137  D(64,51,52,61)         -9.469                                          !
 ! D138  D(50,51,54,55)        157.4042                                         !
 ! D139  D(50,51,54,65)        -77.9953                                         !
 ! D140  D(50,51,54,66)         35.0319                                         !
 ! D141  D(52,51,54,55)         40.4164                                         !
 ! D142  D(52,51,54,65)        165.0169                                         !
 ! D143  D(52,51,54,66)        -81.9559                                         !
 ! D144  D(64,51,54,55)        -84.0961                                         !
 ! D145  D(64,51,54,65)         40.5044                                         !
 ! D146  D(64,51,54,66)        153.5316                                         !
 ! D147  D(51,52,61,62)        -37.5879                                         !
 ! D148  D(53,52,61,62)        134.9363                                         !
 ! D149  D(51,54,55,56)       -122.2854                                         !
 ! D150  D(51,54,55,67)         -0.3005                                         !
 ! D151  D(51,54,55,68)        116.9856                                         !
 ! D152  D(65,54,55,56)        114.6475                                         !
 ! D153  D(65,54,55,67)       -123.3676                                         !
 ! D154  D(65,54,55,68)         -6.0815                                         !
 ! D155  D(66,54,55,56)         -0.7416                                         !
 ! D156  D(66,54,55,67)        121.2433                                         !
 ! D157  D(66,54,55,68)       -121.4706                                         !
 ! D158  D(54,55,56,57)         57.9559                                         !
 ! D159  D(54,55,56,69)        178.7437                                         !
 ! D160  D(54,55,56,70)        -62.1037                                         !
 ! D161  D(67,55,56,57)        -65.3635                                         !
 ! D162  D(67,55,56,69)         55.4243                                         !
 ! D163  D(67,55,56,70)        174.5769                                         !
 ! D164  D(68,55,56,57)       -179.4398                                         !
 ! D165  D(68,55,56,69)        -58.6521                                         !
 ! D166  D(68,55,56,70)         60.5006                                         !
 ! D167  D(55,56,57,58)       -109.4528                                         !
 ! D168  D(55,56,57,71)         31.1307                                         !
 ! D169  D(69,56,57,58)        128.965                                          !
 ! D170  D(69,56,57,71)        -90.4515                                         !
 ! D171  D(70,56,57,58)         11.3097                                         !
 ! D172  D(70,56,57,71)        151.8932                                         !
 ! D173  D(56,57,58,59)        -38.6561                                         !
 ! D174  D(56,57,58,60)        140.4958                                         !
 ! D175  D(71,57,58,59)       -179.8867                                         !
 ! D176  D(71,57,58,60)         -0.7348                                         !
 ! D177  D(57,58,59,72)        177.2822                                         !
 ! D178  D(57,58,59,73)        -24.4946                                         !
 ! D179  D(60,58,59,72)         -1.854                                          !
 ! D180  D(60,58,59,73)        156.3692                                         !
 ! D181  D(57,58,60,74)        167.4818                                         !
 ! D182  D(57,58,60,75)        -15.6539                                         !
 ! D183  D(59,58,60,74)        -13.3712                                         !
 ! D184  D(59,58,60,75)        163.4931                                         !
 --------------------------------------------------------------------------------
 Symmetry turned off by external request.
 Stoichiometry    C23H36N9O7(1+)
 Framework group  C1[X(C23H36N9O7)]
 Deg. of freedom   219
 Full point group                 C1      NOp   1
                          Input orientation:                          
 ---------------------------------------------------------------------
 Center     Atomic      Atomic             Coordinates (Angstroms)
 Number     Number       Type             X           Y           Z
 ---------------------------------------------------------------------
      1          7           0       -7.702089    1.330440   -9.009282
      2          6           0       -6.367189    1.509611   -8.339010
      3          6           0       -5.531633    0.218139   -8.255600
      4          8           0       -4.408461    0.194707   -8.744524
      5          6           0       -6.586783    2.112772   -6.949676
      6          6           0       -7.219499    3.498205   -7.026116
      7          7           0       -7.042908    4.267568   -5.931390
      8          8           0       -7.864736    3.867071   -8.012618
      9          1           0       -5.791924    2.189600   -8.968795
     10          1           0       -7.247841    1.465929   -6.361479
     11          1           0       -5.631733    2.142152   -6.417544
     12          1           0       -7.481097    5.178335   -5.895812
     13          1           0       -6.516270    3.940293   -5.132987
     14          1           0       -8.102402    2.282550   -9.084495
     15          1           0       -7.609281    0.836793   -9.912243
     16          7           0       -6.088478   -0.829690   -7.587011
     17          6           0       -5.258013   -1.906043   -7.046088
     18          6           0       -5.591643   -3.304501   -7.612875
     19          8           0       -5.771705   -4.256261   -6.850860
     20          6           0       -5.383155   -1.931032   -5.506053
     21          6           0       -5.251788   -0.561883   -4.873032
     22          6           0       -4.061492    0.175950   -4.961171
     23          6           0       -6.337236   -0.000844   -4.187456
     24          6           0       -3.954662    1.433974   -4.366322
     25          6           0       -6.233282    1.254553   -3.581052
     26          6           0       -5.039757    1.975407   -3.666437
     27          1           0       -6.975290   -0.671595   -7.112998
     28          1           0       -4.231657   -1.673564   -7.350642
     29          1           0       -6.357887   -2.359137   -5.256930
     30          1           0       -4.628938   -2.620638   -5.114141
     31          1           0       -3.209614   -0.237923   -5.495340
     32          1           0       -7.273451   -0.551509   -4.135797
     33          1           0       -3.021072    1.985420   -4.434972
     34          1           0       -7.081039    1.661234   -3.035833
     35          1           0       -4.942413    2.939163   -3.171851
     36          7           0       -5.616441   -3.509045   -8.965119
     37          6           0       -5.812606   -2.546740  -10.044675
     38          6           0       -7.227987   -1.920370  -10.062260
     39          8           0       -7.412111   -0.836358  -10.627974
     40          6           0       -5.500257   -3.192526  -11.407486
     41          6           0       -6.399514   -4.388783  -11.730433
     42          7           0       -6.589376   -4.638690  -13.046261
     43          8           0       -6.900050   -5.093354  -10.849921
     44          1           0       -5.871679   -4.462648   -9.215651
     45          1           0       -5.127640   -1.705470   -9.918898
     46          1           0       -4.459522   -3.539578  -11.405572
     47          1           0       -5.586846   -2.418399  -12.176634
     48          1           0       -7.117113   -5.459629  -13.311443
     49          1           0       -6.181895   -4.072097  -13.775387
     50          7           0       -8.190918   -2.636112   -9.444976
     51          6           0       -9.432079   -2.097404   -8.882025
     52          6           0       -9.033573   -1.580670   -7.466066
     53          8           0       -8.697257   -2.439944   -6.604047
     54          6           0      -10.498809   -3.212316   -8.903932
     55          6           0      -11.666085   -3.051356   -7.898296
     56          6           0      -11.791719   -4.254145   -6.941857
     57          7           0      -10.532881   -4.443156   -6.196956
     58          6           0       -9.680870   -5.462616   -6.387878
     59          7           0      -10.150826   -6.705477   -6.631020
     60          7           0       -8.371902   -5.224240   -6.350412
     61          8           0       -8.940351   -0.332714   -7.302841
     62          1           0       -8.341412    0.728304   -8.419210
     63          1           0       -7.886464   -3.510126   -9.035616
     64          1           0       -9.737457   -1.246469   -9.493315
     65          1           0      -10.878098   -3.291105   -9.927374
     66          1           0       -9.987764   -4.162807   -8.711668
     67          1           0      -11.547168   -2.138989   -7.300438
     68          1           0      -12.621810   -2.941303   -8.421449
     69          1           0      -12.610136   -4.097253   -6.232584
     70          1           0      -12.007717   -5.164494   -7.509725
     71          1           0      -10.029006   -3.564932   -6.025893
     72          1           0       -9.510185   -7.464054   -6.815181
     73          1           0      -11.076043   -6.957847   -6.314990
     74          1           0       -7.668103   -5.946685   -6.301632
     75          1           0       -8.042118   -4.259748   -6.420367
 ---------------------------------------------------------------------
 Rotational constants (GHZ):           0.1274389           0.0735795           0.0663038
 Standard basis: 6-31G(d) (6D, 7F)
   657 basis functions,  1236 primitive gaussians,   657 cartesian basis functions
   146 alpha electrons      146 beta electrons
       nuclear repulsion energy      5128.4247835092 Hartrees.
 NAtoms=   75 NActive=   75 NUniq=   75 SFac= 1.00D+00 NAtFMM=   60 NAOKFM=T Big=T
 Integral buffers will be    131072 words long.
 Raffenetti 2 integral format.
 Two-electron integral symmetry is turned off.
 Nuclear repulsion after empirical dispersion term =     5128.3019887703 Hartrees.
 One-electron integrals computed using PRISM.
 NBasis=   657 RedAO= T EigKep=  4.67D-04  NBF=   657
 NBsUse=   657 1.00D-06 EigRej= -1.00D+00 NBFU=   657
 Initial guess from the checkpoint file:  "conf-961.chk"
 B after Tr=     0.000000    0.000000    0.000000
         Rot=    1.000000    0.000000    0.000000    0.000000 Ang=   0.00 deg.
 Requested convergence on RMS density matrix=1.00D-08 within 128 cycles.
 Requested convergence on MAX density matrix=1.00D-06.
 Requested convergence on             energy=1.00D-06.
 No special actions if energy rises.
 SCF Done:  E(RB3LYP) =  -1917.52752126     A.U. after    2 cycles
            NFock=  2  Conv=0.86D-08     -V/T= 2.0093

 **********************************************************************

            Population analysis using the SCF Density.

 **********************************************************************

 Alpha  occ. eigenvalues --  -19.22217 -19.21808 -19.21680 -19.21675 -19.21178
 Alpha  occ. eigenvalues --  -19.21083 -19.20775 -14.50917 -14.50098 -14.48125
 Alpha  occ. eigenvalues --  -14.47872 -14.46184 -14.45757 -14.45494 -14.45331
 Alpha  occ. eigenvalues --  -14.44838 -10.45351 -10.39447 -10.39237 -10.39174
 Alpha  occ. eigenvalues --  -10.39038 -10.38669 -10.38535 -10.35152 -10.34039
 Alpha  occ. eigenvalues --  -10.33511 -10.32798 -10.32686 -10.30246 -10.29869
 Alpha  occ. eigenvalues --  -10.29681 -10.29364 -10.28029 -10.27440 -10.27392
 Alpha  occ. eigenvalues --  -10.27354 -10.27174 -10.27105 -10.26972  -1.14782
 Alpha  occ. eigenvalues --   -1.14018  -1.13749  -1.13660  -1.13252  -1.13243
 Alpha  occ. eigenvalues --   -1.12850  -1.07084  -1.05147  -1.03508  -1.03176
 Alpha  occ. eigenvalues --   -1.02360  -1.01979  -1.00956  -1.00461  -1.00280
 Alpha  occ. eigenvalues --   -0.93793  -0.90161  -0.89178  -0.87939  -0.86772
 Alpha  occ. eigenvalues --   -0.84717  -0.82601  -0.82394  -0.78978  -0.78030
 Alpha  occ. eigenvalues --   -0.76931  -0.75523  -0.74652  -0.71742  -0.70464
 Alpha  occ. eigenvalues --   -0.69981  -0.69696  -0.68934  -0.68646  -0.68097
 Alpha  occ. eigenvalues --   -0.67575  -0.67363  -0.67224  -0.65732  -0.65492
 Alpha  occ. eigenvalues --   -0.64550  -0.63402  -0.62827  -0.62797  -0.62521
 Alpha  occ. eigenvalues --   -0.61694  -0.61192  -0.60064  -0.59196  -0.58608
 Alpha  occ. eigenvalues --   -0.57957  -0.57535  -0.57160  -0.56610  -0.56318
 Alpha  occ. eigenvalues --   -0.55648  -0.55414  -0.55035  -0.54172  -0.53976
 Alpha  occ. eigenvalues --   -0.53504  -0.53081  -0.52809  -0.52475  -0.52183
 Alpha  occ. eigenvalues --   -0.51456  -0.51376  -0.50872  -0.50392  -0.50050
 Alpha  occ. eigenvalues --   -0.49999  -0.49812  -0.49675  -0.49008  -0.48664
 Alpha  occ. eigenvalues --   -0.48378  -0.47954  -0.47091  -0.46944  -0.46736
 Alpha  occ. eigenvalues --   -0.46125  -0.45537  -0.45424  -0.45036  -0.44675
 Alpha  occ. eigenvalues --   -0.44357  -0.43434  -0.42013  -0.41821  -0.40830
 Alpha  occ. eigenvalues --   -0.38581  -0.38355  -0.38236  -0.37041  -0.36873
 Alpha  occ. eigenvalues --   -0.36750  -0.36578  -0.36129  -0.35785  -0.35032
 Alpha  occ. eigenvalues --   -0.34830  -0.33969  -0.33579  -0.33351  -0.33289
 Alpha  occ. eigenvalues --   -0.32722
 Alpha virt. eigenvalues --   -0.10404  -0.09820  -0.09456  -0.08969  -0.08517
 Alpha virt. eigenvalues --   -0.08319  -0.07422  -0.06622  -0.06153  -0.05421
 Alpha virt. eigenvalues --   -0.01726  -0.01360  -0.00955  -0.00319   0.00370
 Alpha virt. eigenvalues --    0.00878   0.01115   0.01552   0.02212   0.02296
 Alpha virt. eigenvalues --    0.02475   0.03420   0.03564   0.03798   0.04399
 Alpha virt. eigenvalues --    0.04946   0.05169   0.05472   0.05888   0.06144
 Alpha virt. eigenvalues --    0.06279   0.06382   0.06707   0.07270   0.07546
 Alpha virt. eigenvalues --    0.07842   0.08050   0.08326   0.08593   0.09369
 Alpha virt. eigenvalues --    0.09598   0.09760   0.10141   0.10316   0.10876
 Alpha virt. eigenvalues --    0.11321   0.11784   0.11861   0.12295   0.13265
 Alpha virt. eigenvalues --    0.13625   0.14258   0.14621   0.14789   0.15142
 Alpha virt. eigenvalues --    0.15627   0.16151   0.16439   0.16844   0.17405
 Alpha virt. eigenvalues --    0.17676   0.18338   0.18945   0.19607   0.19997
 Alpha virt. eigenvalues --    0.22357   0.23071   0.23455   0.24554   0.24796
 Alpha virt. eigenvalues --    0.24998   0.26018   0.26099   0.27072   0.27803
 Alpha virt. eigenvalues --    0.27970   0.28251   0.30007   0.30719   0.32167
 Alpha virt. eigenvalues --    0.33295   0.33989   0.34144   0.37659   0.38182
 Alpha virt. eigenvalues --    0.39275   0.39611   0.40516   0.40959   0.41629
 Alpha virt. eigenvalues --    0.42119   0.42382   0.42813   0.43982   0.44340
 Alpha virt. eigenvalues --    0.44876   0.45496   0.45831   0.46191   0.46743
 Alpha virt. eigenvalues --    0.47287   0.47518   0.47882   0.48449   0.48654
 Alpha virt. eigenvalues --    0.48869   0.49217   0.49537   0.49922   0.50351
 Alpha virt. eigenvalues --    0.50729   0.51461   0.52100   0.52367   0.52966
 Alpha virt. eigenvalues --    0.53300   0.53372   0.53708   0.54008   0.54491
 Alpha virt. eigenvalues --    0.54576   0.55057   0.55495   0.55961   0.56114
 Alpha virt. eigenvalues --    0.56406   0.56677   0.56817   0.57197   0.57418
 Alpha virt. eigenvalues --    0.58240   0.58357   0.58799   0.59183   0.59466
 Alpha virt. eigenvalues --    0.60159   0.60671   0.61702   0.62226   0.63059
 Alpha virt. eigenvalues --    0.63429   0.64236   0.64465   0.65108   0.65386
 Alpha virt. eigenvalues --    0.65519   0.65923   0.66994   0.67304   0.68043
 Alpha virt. eigenvalues --    0.68628   0.69428   0.70377   0.70888   0.71438
 Alpha virt. eigenvalues --    0.71852   0.71927   0.72780   0.73179   0.73897
 Alpha virt. eigenvalues --    0.74154   0.74660   0.74906   0.75162   0.75396
 Alpha virt. eigenvalues --    0.75588   0.75875   0.76645   0.77011   0.77092
 Alpha virt. eigenvalues --    0.77234   0.77743   0.78166   0.78584   0.78800
 Alpha virt. eigenvalues --    0.79066   0.79646   0.79786   0.79978   0.80237
 Alpha virt. eigenvalues --    0.80715   0.80822   0.81440   0.82078   0.82280
 Alpha virt. eigenvalues --    0.82585   0.83293   0.83802   0.84392   0.84835
 Alpha virt. eigenvalues --    0.85271   0.85374   0.86029   0.86240   0.86862
 Alpha virt. eigenvalues --    0.87374   0.87504   0.87951   0.88952   0.89649
 Alpha virt. eigenvalues --    0.90930   0.91646   0.91943   0.92252   0.93286
 Alpha virt. eigenvalues --    0.93364   0.94261   0.95810   0.96004   0.96379
 Alpha virt. eigenvalues --    0.97200   0.97993   0.99304   0.99421   0.99921
 Alpha virt. eigenvalues --    1.01238   1.01804   1.02454   1.02948   1.03357
 Alpha virt. eigenvalues --    1.04183   1.05340   1.05496   1.06458   1.07051
 Alpha virt. eigenvalues --    1.07446   1.08940   1.09556   1.10209   1.10637
 Alpha virt. eigenvalues --    1.11335   1.11981   1.12333   1.12947   1.13178
 Alpha virt. eigenvalues --    1.14043   1.15036   1.15767   1.16892   1.17696
 Alpha virt. eigenvalues --    1.18380   1.18653   1.19801   1.20594   1.21099
 Alpha virt. eigenvalues --    1.21429   1.22372   1.23474   1.24405   1.25565
 Alpha virt. eigenvalues --    1.26120   1.27333   1.27835   1.28532   1.29077
 Alpha virt. eigenvalues --    1.29830   1.30116   1.31179   1.32595   1.33187
 Alpha virt. eigenvalues --    1.33493   1.34190   1.35077   1.35802   1.36356
 Alpha virt. eigenvalues --    1.37250   1.37586   1.38987   1.39382   1.39767
 Alpha virt. eigenvalues --    1.40026   1.40157   1.41146   1.42304   1.42802
 Alpha virt. eigenvalues --    1.43839   1.44149   1.44787   1.46230   1.47160
 Alpha virt. eigenvalues --    1.48119   1.49372   1.50490   1.51772   1.52021
 Alpha virt. eigenvalues --    1.52593   1.53674   1.54775   1.55370   1.56108
 Alpha virt. eigenvalues --    1.56233   1.57515   1.57981   1.58259   1.59412
 Alpha virt. eigenvalues --    1.60138   1.61695   1.62337   1.62607   1.63485
 Alpha virt. eigenvalues --    1.63754   1.64687   1.65424   1.65788   1.67037
 Alpha virt. eigenvalues --    1.67958   1.68213   1.68647   1.70155   1.70480
 Alpha virt. eigenvalues --    1.70958   1.71696   1.72028   1.72856   1.73081
 Alpha virt. eigenvalues --    1.73425   1.74111   1.74994   1.75608   1.75666
 Alpha virt. eigenvalues --    1.75888   1.76279   1.76840   1.77243   1.77726
 Alpha virt. eigenvalues --    1.79369   1.80041   1.80296   1.80636   1.81548
 Alpha virt. eigenvalues --    1.81720   1.83085   1.83383   1.83491   1.84238
 Alpha virt. eigenvalues --    1.84622   1.85108   1.85797   1.86241   1.86504
 Alpha virt. eigenvalues --    1.86802   1.87134   1.88434   1.88955   1.89899
 Alpha virt. eigenvalues --    1.90602   1.90809   1.91022   1.92016   1.92628
 Alpha virt. eigenvalues --    1.93413   1.94039   1.94422   1.95078   1.95678
 Alpha virt. eigenvalues --    1.97252   1.97406   1.98170   1.98415   1.99637
 Alpha virt. eigenvalues --    2.00134   2.00853   2.01539   2.02232   2.02661
 Alpha virt. eigenvalues --    2.03545   2.03844   2.05006   2.05319   2.06442
 Alpha virt. eigenvalues --    2.06848   2.07431   2.07739   2.08316   2.09297
 Alpha virt. eigenvalues --    2.10273   2.10485   2.11849   2.12948   2.13581
 Alpha virt. eigenvalues --    2.14803   2.15589   2.15802   2.16548   2.17626
 Alpha virt. eigenvalues --    2.18600   2.19418   2.19589   2.20222   2.22054
 Alpha virt. eigenvalues --    2.22469   2.23450   2.24565   2.25434   2.26267
 Alpha virt. eigenvalues --    2.26741   2.27378   2.27949   2.29679   2.30163
 Alpha virt. eigenvalues --    2.31638   2.31969   2.32292   2.33046   2.33551
 Alpha virt. eigenvalues --    2.35491   2.35775   2.38574   2.39256   2.39853
 Alpha virt. eigenvalues --    2.40555   2.41060   2.42481   2.43320   2.44974
 Alpha virt. eigenvalues --    2.46139   2.46233   2.47177   2.48782   2.49405
 Alpha virt. eigenvalues --    2.49659   2.50155   2.51222   2.52131   2.52361
 Alpha virt. eigenvalues --    2.53050   2.53402   2.53894   2.55270   2.55700
 Alpha virt. eigenvalues --    2.56140   2.57349   2.57466   2.57969   2.59758
 Alpha virt. eigenvalues --    2.60646   2.60956   2.62907   2.63676   2.64398
 Alpha virt. eigenvalues --    2.64411   2.65521   2.66813   2.67552   2.67843
 Alpha virt. eigenvalues --    2.69300   2.71114   2.74687   2.74853   2.76351
 Alpha virt. eigenvalues --    2.78155   2.81351   2.83953   2.87124   2.89742
 Alpha virt. eigenvalues --    2.90889   2.91006   2.91339   2.91959   2.92511
 Alpha virt. eigenvalues --    2.94474   2.94845   2.96001   2.96680   2.98133
 Alpha virt. eigenvalues --    2.99583   3.00909   3.03707   3.05579   3.06280
 Alpha virt. eigenvalues --    3.09274   3.32514   3.68533   3.71216   3.74595
 Alpha virt. eigenvalues --    3.81891   3.84210   3.87042   3.90659   3.96320
 Alpha virt. eigenvalues --    3.98084   3.99065   4.00994   4.04175   4.05585
 Alpha virt. eigenvalues --    4.07198   4.07690   4.09742   4.10451   4.13346
 Alpha virt. eigenvalues --    4.17318   4.18968   4.19908   4.22723   4.25027
 Alpha virt. eigenvalues --    4.26205   4.28748   4.31351   4.33524   4.34625
 Alpha virt. eigenvalues --    4.38215   4.41185   4.41543   4.43310   4.51445
 Alpha virt. eigenvalues --    4.56350   4.57120   4.60656   4.64526   4.65969
 Alpha virt. eigenvalues --    4.68768
          Condensed to atoms (all electrons):
 Mulliken charges:
               1
     1  N   -0.802295
     2  C   -0.112289
     3  C    0.624375
     4  O   -0.509625
     5  C   -0.420200
     6  C    0.634216
     7  N   -0.743875
     8  O   -0.535385
     9  H    0.215984
    10  H    0.223261
    11  H    0.209639
    12  H    0.363026
    13  H    0.357485
    14  H    0.415974
    15  H    0.432318
    16  N   -0.650274
    17  C   -0.067608
    18  C    0.618622
    19  O   -0.544832
    20  C   -0.378717
    21  C    0.165836
    22  C   -0.179819
    23  C   -0.201226
    24  C   -0.137824
    25  C   -0.134919
    26  C   -0.162330
    27  H    0.393285
    28  H    0.208573
    29  H    0.180727
    30  H    0.184667
    31  H    0.147791
    32  H    0.153801
    33  H    0.153931
    34  H    0.146908
    35  H    0.144544
    36  N   -0.625756
    37  C   -0.065819
    38  C    0.642467
    39  O   -0.589648
    40  C   -0.394892
    41  C    0.612720
    42  N   -0.734400
    43  O   -0.536690
    44  H    0.361998
    45  H    0.218087
    46  H    0.209532
    47  H    0.190450
    48  H    0.359584
    49  H    0.358214
    50  N   -0.581821
    51  C   -0.050366
    52  C    0.618671
    53  O   -0.614063
    54  C   -0.290638
    55  C   -0.304046
    56  C   -0.170587
    57  N   -0.585116
    58  C    0.756404
    59  N   -0.744618
    60  N   -0.782938
    61  O   -0.598269
    62  H    0.430354
    63  H    0.351992
    64  H    0.170384
    65  H    0.178475
    66  H    0.144384
    67  H    0.177485
    68  H    0.175782
    69  H    0.187620
    70  H    0.169969
    71  H    0.395497
    72  H    0.373690
    73  H    0.378251
    74  H    0.372606
    75  H    0.441307
 Sum of Mulliken charges =   1.00000
 Mulliken charges with hydrogens summed into heavy atoms:
               1
     1  N    0.476351
     2  C    0.103695
     3  C    0.624375
     4  O   -0.509625
     5  C    0.012700
     6  C    0.634216
     7  N   -0.023364
     8  O   -0.535385
    16  N   -0.256989
    17  C    0.140965
    18  C    0.618622
    19  O   -0.544832
    20  C   -0.013324
    21  C    0.165836
    22  C   -0.032027
    23  C   -0.047425
    24  C    0.016108
    25  C    0.011990
    26  C   -0.017786
    36  N   -0.263758
    37  C    0.152268
    38  C    0.642467
    39  O   -0.589648
    40  C    0.005090
    41  C    0.612720
    42  N   -0.016603
    43  O   -0.536690
    50  N   -0.229829
    51  C    0.120018
    52  C    0.618671
    53  O   -0.614063
    54  C    0.032221
    55  C    0.049221
    56  C    0.187002
    57  N   -0.189619
    58  C    0.756404
    59  N    0.007322
    60  N    0.030975
    61  O   -0.598269
 Electronic spatial extent (au):  <R**2>=         137169.0853
 Charge=              1.0000 electrons
 Dipole moment (field-independent basis, Debye):
    X=            -40.5813    Y=            -13.7295    Z=            -38.2211  Tot=             57.4125
 Quadrupole moment (field-independent basis, Debye-Ang):
   XX=            151.0226   YY=            -96.0532   ZZ=            132.0877
   XY=            147.6888   XZ=            313.7808   YZ=            134.3502
 Traceless Quadrupole moment (field-independent basis, Debye-Ang):
   XX=             88.6703   YY=           -158.4056   ZZ=             69.7353
   XY=            147.6888   XZ=            313.7808   YZ=            134.3502
 Octapole moment (field-independent basis, Debye-Ang**2):
  XXX=           1116.0098  YYY=            366.7108  ZZZ=           1275.2821  XYY=            424.2585
  XXY=          -1273.7442  XXZ=          -1101.3004  XZZ=          -1143.9020  YZZ=          -1058.1068
  YYZ=            798.0915  XYZ=          -1247.4795
 Hexadecapole moment (field-independent basis, Debye-Ang**3):
 XXXX=         -36576.8633 YYYY=          -8040.3144 ZZZZ=         -38667.4187 XXXY=           8966.9833
 XXXZ=          -9942.3280 YYYX=          -2100.4625 YYYZ=          -4211.0440 ZZZX=          -9421.7145
 ZZZY=           6778.5753 XXYY=          -3277.3451 XXZZ=          -3595.7802 YYZZ=          -8875.0623
 XXYZ=           9373.4793 YYXZ=          -4197.2801 ZZXY=           8464.3226
 N-N= 5.128301988770D+03 E-N=-1.469910433535D+04  KE= 1.899814433341D+03
 Unable to Open any file for archive entry.
 1\1\GINC-AMR-007\SP\RB3LYP\6-31G(d)\C23H36N9O7(1+)\KENGMITH\03-Jun-202
 2\0\\# B3LYP/6-31G* empiricaldispersion=gd3 guess=read geom=check nosy
 mm integral(ultrafinegrid)\\Candidate Structure: Conf:961 Charge calc 
 in gas phase\\1,1\N,0,-7.7020891977,1.3304401513,-9.0092815497\C,0,-6.
 3671892366,1.509610806,-8.3390097785\C,0,-5.5316334419,0.2181388134,-8
 .2556003455\O,0,-4.4084606345,0.194707267,-8.7445243206\C,0,-6.5867825
 731,2.1127717014,-6.9496763228\C,0,-7.2194988591,3.4982048533,-7.02611
 61942\N,0,-7.0429083708,4.2675682181,-5.9313897186\O,0,-7.8647362521,3
 .8670713163,-8.0126182302\H,0,-5.7919235982,2.1896001262,-8.9687953261
 \H,0,-7.2478406701,1.4659290589,-6.3614789116\H,0,-5.631733027,2.14215
 19674,-6.4175440983\H,0,-7.4810969535,5.1783354378,-5.8958123096\H,0,-
 6.5162698955,3.9402930814,-5.1329867692\H,0,-8.1024024983,2.2825500039
 ,-9.0844947331\H,0,-7.6092812311,0.8367930663,-9.9122432614\N,0,-6.088
 4779699,-0.8296899449,-7.5870114695\C,0,-5.2580134825,-1.9060430417,-7
 .0460880649\C,0,-5.5916425488,-3.3045014306,-7.6128745302\O,0,-5.77170
 47605,-4.2562612508,-6.8508599382\C,0,-5.3831552848,-1.9310318145,-5.5
 060528081\C,0,-5.2517876944,-0.561883301,-4.8730320388\C,0,-4.06149198
 57,0.1759502646,-4.961170509\C,0,-6.3372362962,-0.0008440252,-4.187456
 0098\C,0,-3.954662296,1.433974452,-4.366322078\C,0,-6.2332824116,1.254
 55301,-3.5810521889\C,0,-5.0397571064,1.9754072286,-3.6664373849\H,0,-
 6.9752895518,-0.6715952187,-7.1129983113\H,0,-4.2316565678,-1.67356373
 14,-7.3506417974\H,0,-6.3578867204,-2.3591374506,-5.2569304033\H,0,-4.
 6289375648,-2.6206375713,-5.1141409394\H,0,-3.2096138768,-0.2379234744
 ,-5.4953396764\H,0,-7.2734507122,-0.5515093516,-4.1357971334\H,0,-3.02
 10724629,1.9854195046,-4.43497191\H,0,-7.0810386129,1.66123368,-3.0358
 326804\H,0,-4.9424125213,2.939163473,-3.1718509451\N,0,-5.6164414043,-
 3.5090445661,-8.9651193758\C,0,-5.8126057561,-2.5467402287,-10.0446748
 566\C,0,-7.2279873447,-1.9203698091,-10.0622598588\O,0,-7.4121114449,-
 0.8363576224,-10.6279738029\C,0,-5.5002573967,-3.1925259404,-11.407486
 4542\C,0,-6.3995142224,-4.388783379,-11.7304329451\N,0,-6.5893757277,-
 4.6386898226,-13.0462611269\O,0,-6.9000501516,-5.0933536154,-10.849921
 3366\H,0,-5.8716790987,-4.4626475292,-9.2156512757\H,0,-5.1276396076,-
 1.7054698726,-9.918898164\H,0,-4.4595222557,-3.5395780866,-11.40557203
 25\H,0,-5.586846131,-2.4183986848,-12.1766339678\H,0,-7.1171130333,-5.
 4596290557,-13.3114433003\H,0,-6.1818953797,-4.0720967176,-13.77538739
 92\N,0,-8.1909178317,-2.6361123056,-9.4449762925\C,0,-9.4320786607,-2.
 0974035501,-8.88202487\C,0,-9.0335726618,-1.5806696856,-7.4660663159\O
 ,0,-8.697257404,-2.4399435601,-6.6040474282\C,0,-10.4988092068,-3.2123
 15875,-8.9039323109\C,0,-11.6660846445,-3.0513563926,-7.8982962326\C,0
 ,-11.7917194558,-4.2541449664,-6.9418570996\N,0,-10.5328812094,-4.4431
 562419,-6.1969555651\C,0,-9.6808695509,-5.4626158016,-6.3878779604\N,0
 ,-10.1508256242,-6.7054768213,-6.6310202553\N,0,-8.3719019461,-5.22423
 96772,-6.3504120384\O,0,-8.9403514354,-0.3327135749,-7.3028409564\H,0,
 -8.3414117409,0.7283039904,-8.4192101016\H,0,-7.8864636403,-3.51012623
 23,-9.0356163519\H,0,-9.737457446,-1.2464691284,-9.4933147539\H,0,-10.
 8780981445,-3.2911046372,-9.9273742345\H,0,-9.9877636652,-4.1628072781
 ,-8.7116677582\H,0,-11.5471682059,-2.1389894781,-7.3004376046\H,0,-12.
 6218096898,-2.9413030641,-8.4214491687\H,0,-12.6101361654,-4.097253221
 4,-6.2325840884\H,0,-12.0077171548,-5.1644941051,-7.5097253953\H,0,-10
 .0290059477,-3.5649323511,-6.0258929444\H,0,-9.5101847361,-7.464053824
 9,-6.8151812375\H,0,-11.0760430318,-6.9578468148,-6.3149895671\H,0,-7.
 6681025271,-5.9466852961,-6.3016317879\H,0,-8.0421182519,-4.2597481111
 ,-6.4203665682\\Version=ES64L-G16RevC.01\HF=-1917.5275213\RMSD=8.561e-
 09\Dipole=-2.2702015,-2.4963274,-0.4982542\Quadrupole=65.9241647,-117.
 7706584,51.8464936,109.8030255,233.2883092,99.8860723\PG=C01 [X(C23H36
 N9O7)]\\@
 The archive entry for this job was punched.


 IF AT FIRST YOU DON'T SUCCEED, TRY, TRY AGAIN.
 THEN GIVE UP;
 THERE'S NO USE BEING A DAMN FOOL ABOUT IT.

                                 -- W. C. FIELDS
 Job cpu time:       0 days  0 hours  3 minutes 14.9 seconds.
 Elapsed time:       0 days  0 hours  0 minutes 49.6 seconds.
 File lengths (MBytes):  RWF=    344 Int=      0 D2E=      0 Chk=     48 Scr=     16
 Normal termination of Gaussian 16 at Fri Jun  3 06:26:30 2022.
