 Entering Gaussian System, Link 0=/opt/software/Gaussian/g16-AVX2-C.01/g16/g16
 Input=charge-conf-950.com
 Output=charge-conf-950.log
 Initial command:
 /opt/software/Gaussian/g16-AVX2-C.01/g16/l1.exe "/mnt/gs18/scratch/users/kengmith/Gau-3125.inp" -scrdir="/mnt/gs18/scratch/users/kengmith/"
 Entering Link 1 = /opt/software/Gaussian/g16-AVX2-C.01/g16/l1.exe PID=      3135.
  
 Copyright (c) 1988-2019, Gaussian, Inc.  All Rights Reserved.
  
 This is part of the Gaussian(R) 16 program.  It is based on
 the Gaussian(R) 09 system (copyright 2009, Gaussian, Inc.),
 the Gaussian(R) 03 system (copyright 2003, Gaussian, Inc.),
 the Gaussian(R) 98 system (copyright 1998, Gaussian, Inc.),
 the Gaussian(R) 94 system (copyright 1995, Gaussian, Inc.),
 the Gaussian 92(TM) system (copyright 1992, Gaussian, Inc.),
 the Gaussian 90(TM) system (copyright 1990, Gaussian, Inc.),
 the Gaussian 88(TM) system (copyright 1988, Gaussian, Inc.),
 the Gaussian 86(TM) system (copyright 1986, Carnegie Mellon
 University), and the Gaussian 82(TM) system (copyright 1983,
 Carnegie Mellon University). Gaussian is a federally registered
 trademark of Gaussian, Inc.
  
 This software contains proprietary and confidential information,
 including trade secrets, belonging to Gaussian, Inc.
  
 This software is provided under written license and may be
 used, copied, transmitted, or stored only in accord with that
 written license.
  
 The following legend is applicable only to US Government
 contracts under FAR:
  
                    RESTRICTED RIGHTS LEGEND
  
 Use, reproduction and disclosure by the US Government is
 subject to restrictions as set forth in subparagraphs (a)
 and (c) of the Commercial Computer Software - Restricted
 Rights clause in FAR 52.227-19.
  
 Gaussian, Inc.
 340 Quinnipiac St., Bldg. 40, Wallingford CT 06492
  
  
 ---------------------------------------------------------------
 Warning -- This program may not be used in any manner that
 competes with the business of Gaussian, Inc. or will provide
 assistance to any competitor of Gaussian, Inc.  The licensee
 of this program is prohibited from giving any competitor of
 Gaussian, Inc. access to this program.  By using this program,
 the user acknowledges that Gaussian, Inc. is engaged in the
 business of creating and licensing software in the field of
 computational chemistry and represents and warrants to the
 licensee that it is not a competitor of Gaussian, Inc. and that
 it will not use this program in any manner prohibited above.
 ---------------------------------------------------------------
  

 Cite this work as:
 Gaussian 16, Revision C.01,
 M. J. Frisch, G. W. Trucks, H. B. Schlegel, G. E. Scuseria, 
 M. A. Robb, J. R. Cheeseman, G. Scalmani, V. Barone, 
 G. A. Petersson, H. Nakatsuji, X. Li, M. Caricato, A. V. Marenich, 
 J. Bloino, B. G. Janesko, R. Gomperts, B. Mennucci, H. P. Hratchian, 
 J. V. Ortiz, A. F. Izmaylov, J. L. Sonnenberg, D. Williams-Young, 
 F. Ding, F. Lipparini, F. Egidi, J. Goings, B. Peng, A. Petrone, 
 T. Henderson, D. Ranasinghe, V. G. Zakrzewski, J. Gao, N. Rega, 
 G. Zheng, W. Liang, M. Hada, M. Ehara, K. Toyota, R. Fukuda, 
 J. Hasegawa, M. Ishida, T. Nakajima, Y. Honda, O. Kitao, H. Nakai, 
 T. Vreven, K. Throssell, J. A. Montgomery, Jr., J. E. Peralta, 
 F. Ogliaro, M. J. Bearpark, J. J. Heyd, E. N. Brothers, K. N. Kudin, 
 V. N. Staroverov, T. A. Keith, R. Kobayashi, J. Normand, 
 K. Raghavachari, A. P. Rendell, J. C. Burant, S. S. Iyengar, 
 J. Tomasi, M. Cossi, J. M. Millam, M. Klene, C. Adamo, R. Cammi, 
 J. W. Ochterski, R. L. Martin, K. Morokuma, O. Farkas, 
 J. B. Foresman, and D. J. Fox, Gaussian, Inc., Wallingford CT, 2019.
 
 ******************************************
 Gaussian 16:  ES64L-G16RevC.01  3-Jul-2019
                 3-Jun-2022 
 ******************************************
 %mem=8gb
 %nproc=4
 Will use up to    4 processors via shared memory.
 %chk=conf-950.chk
 ----------------------------------------------------------------------
 # B3LYP/6-31G* empiricaldispersion=gd3 guess=read geom=check nosymm in
 tegral(ultrafinegrid)
 ----------------------------------------------------------------------
 1/29=2,38=1,172=1/1;
 2/12=2,15=1,40=1/2;
 3/5=1,6=6,7=1,11=2,14=-4,25=1,30=1,74=-5,75=-5,116=-2,124=31/1,2,3;
 4/5=1/1;
 5/5=2,38=6/2;
 6/7=2,8=2,9=2,10=2,28=1/1;
 99/5=1,9=1/99;
 ------------------------------------------------------
 Candidate Structure: Conf:950 Charge calc in gas phase
 ------------------------------------------------------
 Structure from the checkpoint file:  "conf-950.chk"
 Charge =  1 Multiplicity = 1
 Redundant internal coordinates found in file.  (old form).
 N,0,-9.1651231556,0.1318549149,-8.3107443913
 C,0,-8.1029510286,1.0699008341,-8.8072278039
 C,0,-6.8820796191,0.3586256354,-9.4126460398
 O,0,-6.5048681116,0.6701401429,-10.5365712983
 C,0,-7.663622427,1.9884138459,-7.6638116836
 C,0,-8.8053424833,2.8620340372,-7.1578860795
 N,0,-8.4212810844,3.9994015268,-6.5396990516
 O,0,-9.9887914503,2.5314523888,-7.2850684207
 H,0,-8.5444701426,1.6479729949,-9.6201453468
 H,0,-7.2872521335,1.3900226129,-6.8256773904
 H,0,-6.8228948915,2.5969862809,-8.0073417072
 H,0,-9.1275572867,4.6114825315,-6.1534487433
 H,0,-7.447343696,4.2609125023,-6.4683667024
 H,0,-9.9450247711,0.7333252329,-7.9932955066
 H,0,-9.4251668061,-0.5556395565,-9.040252927
 N,0,-6.2392662582,-0.5389397512,-8.617646565
 C,0,-4.8617574411,-0.9342065627,-8.9104466321
 C,0,-4.6723877906,-2.4648559419,-8.9948083934
 O,0,-3.8296848164,-3.0314818251,-8.3137446206
 C,0,-3.8958704426,-0.3400453352,-7.8617817683
 C,0,-4.1398211074,1.1292364008,-7.582519299
 C,0,-4.0687238883,2.0917372451,-8.6022112858
 C,0,-4.446079753,1.5594232888,-6.284920481
 C,0,-4.2890714474,3.4424912258,-8.3294630764
 C,0,-4.6612269884,2.9118154252,-6.0030125292
 C,0,-4.5825272162,3.8599563963,-7.0257917684
 H,0,-6.5962413933,-0.7240480777,-7.6800239273
 H,0,-4.6475327799,-0.521323255,-9.9008952824
 H,0,-3.9876390355,-0.9204145118,-6.938572438
 H,0,-2.8723891166,-0.506535887,-8.2152422067
 H,0,-3.8467813597,1.7837677152,-9.6202548062
 H,0,-4.5073332245,0.8273346896,-5.483159085
 H,0,-4.2211128182,4.1711846558,-9.1324217128
 H,0,-4.8748030565,3.2223659905,-4.9833623676
 H,0,-4.7219862545,4.9165454814,-6.8095947761
 N,0,-5.4286473521,-3.1741571341,-9.9008743816
 C,0,-6.6723568013,-2.7772629731,-10.5426981787
 C,0,-7.8855025868,-2.7205878706,-9.5881601159
 O,0,-8.8872764482,-2.0669060653,-9.9154699771
 C,0,-6.9885198659,-3.6798617481,-11.7473891755
 C,0,-7.1767996726,-5.150809089,-11.3676946346
 N,0,-7.7068645182,-5.9347266193,-12.3375972065
 O,0,-6.8604135825,-5.5939371234,-10.2630292041
 H,0,-5.2687922329,-4.1761339616,-9.8478808514
 H,0,-6.5756359224,-1.7589426571,-10.9281535244
 H,0,-6.1688528615,-3.6048589248,-12.4725759563
 H,0,-7.8921277734,-3.2975680502,-12.2348134401
 H,0,-7.7827835156,-6.9284354613,-12.1670074472
 H,0,-7.9386715991,-5.5846562646,-13.2555643836
 N,0,-7.7605104019,-3.3830935869,-8.4232901894
 C,0,-8.7004901252,-3.3172804046,-7.3113398625
 C,0,-7.9849403226,-2.4916681382,-6.1924243041
 O,0,-7.4166000761,-3.1205730583,-5.2641699888
 C,0,-9.1494186086,-4.7284265413,-6.9061348177
 C,0,-10.2632934621,-4.7432127195,-5.823424332
 C,0,-9.9185547299,-5.5812544806,-4.5800738554
 N,0,-8.7451416445,-5.001437747,-3.9097813678
 C,0,-8.7369455964,-4.4057873429,-2.7174849251
 N,0,-9.5249165392,-4.8455057447,-1.7139141613
 N,0,-7.9366018222,-3.3473986716,-2.5319087452
 O,0,-7.9524732212,-1.2344639028,-6.3449369729
 H,0,-8.8024440243,-0.4379253997,-7.4885007222
 H,0,-6.9414613915,-3.9673225211,-8.3098258397
 H,0,-9.5624781871,-2.7471469627,-7.6678734562
 H,0,-9.4968054373,-5.2356342153,-7.8113749261
 H,0,-8.2667767978,-5.2886453197,-6.5724609958
 H,0,-10.4872884969,-3.7211746275,-5.4903013817
 H,0,-11.1921224262,-5.1389526072,-6.2479196196
 H,0,-10.7646333265,-5.5975079325,-3.886438444
 H,0,-9.6932639765,-6.6155930046,-4.8620029379
 H,0,-8.0796872038,-4.5540363571,-4.5638884862
 H,0,-9.5918502011,-4.3341791579,-0.8463287574
 H,0,-9.8799805602,-5.7901591191,-1.7245456522
 H,0,-7.6266665621,-3.0753161964,-1.6105042664
 H,0,-7.5029837709,-2.9280873902,-3.3634121018
 Recover connectivity data from disk.
                           ----------------------------
                           !    Current Parameters    !
                           ! (Angstroms and Degrees)  !
 --------------------------                            --------------------------
 ! Name  Definition              Value                                          !
 --------------------------------------------------------------------------------
 ! R1    R(1,2)                  1.5015                                         !
 ! R2    R(1,14)                 1.0348                                         !
 ! R3    R(1,15)                 1.0356                                         !
 ! R4    R(2,3)                  1.5372                                         !
 ! R5    R(2,5)                  1.531                                          !
 ! R6    R(2,9)                  1.0908                                         !
 ! R7    R(3,4)                  1.2258                                         !
 ! R8    R(3,16)                 1.3605                                         !
 ! R9    R(5,6)                  1.524                                          !
 ! R10   R(5,10)                 1.0964                                         !
 ! R11   R(5,11)                 1.0933                                         !
 ! R12   R(6,7)                  1.3503                                         !
 ! R13   R(6,8)                  1.2353                                         !
 ! R14   R(7,12)                 1.0113                                         !
 ! R15   R(7,13)                 1.011                                          !
 ! R16   R(16,17)                1.4627                                         !
 ! R17   R(16,27)                1.0202                                         !
 ! R18   R(17,18)                1.5446                                         !
 ! R19   R(17,20)                1.5446                                         !
 ! R20   R(17,28)                1.0942                                         !
 ! R21   R(18,19)                1.2227                                         !
 ! R22   R(18,36)                1.377                                          !
 ! R23   R(20,21)                1.5154                                         !
 ! R24   R(20,29)                1.0943                                         !
 ! R25   R(20,30)                1.0955                                         !
 ! R26   R(21,22)                1.404                                          !
 ! R27   R(21,23)                1.4009                                         !
 ! R28   R(22,24)                1.3955                                         !
 ! R29   R(22,31)                1.0865                                         !
 ! R30   R(23,25)                1.3981                                         !
 ! R31   R(23,32)                1.0874                                         !
 ! R32   R(24,26)                1.4                                            !
 ! R33   R(24,33)                1.0864                                         !
 ! R34   R(25,26)                1.3969                                         !
 ! R35   R(25,34)                1.0871                                         !
 ! R36   R(26,35)                1.0875                                         !
 ! R37   R(36,37)                1.4547                                         !
 ! R38   R(36,44)                1.016                                          !
 ! R39   R(37,38)                1.5447                                         !
 ! R40   R(37,40)                1.5382                                         !
 ! R41   R(37,45)                1.0931                                         !
 ! R42   R(38,39)                1.2402                                         !
 ! R43   R(38,50)                1.3459                                         !
 ! R44   R(40,41)                1.5308                                         !
 ! R45   R(40,46)                1.097                                          !
 ! R46   R(40,47)                1.0956                                         !
 ! R47   R(41,42)                1.3551                                         !
 ! R48   R(41,43)                1.2316                                         !
 ! R49   R(42,48)                1.0111                                         !
 ! R50   R(42,49)                1.0094                                         !
 ! R51   R(50,51)                1.4575                                         !
 ! R52   R(50,63)                1.0124                                         !
 ! R53   R(51,52)                1.5638                                         !
 ! R54   R(51,54)                1.5353                                         !
 ! R55   R(51,64)                1.0932                                         !
 ! R56   R(52,53)                1.2571                                         !
 ! R57   R(52,61)                1.2668                                         !
 ! R58   R(54,55)                1.5534                                         !
 ! R59   R(54,65)                1.0943                                         !
 ! R60   R(54,66)                1.0974                                         !
 ! R61   R(55,56)                1.5385                                         !
 ! R62   R(55,67)                1.098                                          !
 ! R63   R(55,68)                1.0952                                         !
 ! R64   R(56,57)                1.4705                                         !
 ! R65   R(56,69)                1.0942                                         !
 ! R66   R(56,70)                1.0955                                         !
 ! R67   R(57,58)                1.3328                                         !
 ! R68   R(57,71)                1.0348                                         !
 ! R69   R(58,59)                1.3496                                         !
 ! R70   R(58,60)                1.3398                                         !
 ! R71   R(59,72)                1.0093                                         !
 ! R72   R(59,73)                1.0092                                         !
 ! R73   R(60,74)                1.0095                                         !
 ! R74   R(60,75)                1.0273                                         !
 ! R75   R(61,62)                1.6324                                         !
 ! A1    A(2,1,14)             105.7512                                         !
 ! A2    A(2,1,15)             111.0657                                         !
 ! A3    A(14,1,15)            114.3759                                         !
 ! A4    A(1,2,3)              113.7646                                         !
 ! A5    A(1,2,5)              109.3194                                         !
 ! A6    A(1,2,9)              106.9268                                         !
 ! A7    A(3,2,5)              110.1102                                         !
 ! A8    A(3,2,9)              105.8526                                         !
 ! A9    A(5,2,9)              110.7793                                         !
 ! A10   A(2,3,4)              119.205                                          !
 ! A11   A(2,3,16)             116.7688                                         !
 ! A12   A(4,3,16)             123.9222                                         !
 ! A13   A(2,5,6)              112.1386                                         !
 ! A14   A(2,5,10)             109.9966                                         !
 ! A15   A(2,5,11)             108.6601                                         !
 ! A16   A(6,5,10)             108.4356                                         !
 ! A17   A(6,5,11)             111.1813                                         !
 ! A18   A(10,5,11)            106.2617                                         !
 ! A19   A(5,6,7)              114.9445                                         !
 ! A20   A(5,6,8)              122.0127                                         !
 ! A21   A(7,6,8)              123.027                                          !
 ! A22   A(6,7,12)             119.0805                                         !
 ! A23   A(6,7,13)             121.6149                                         !
 ! A24   A(12,7,13)            119.2957                                         !
 ! A25   A(3,16,17)            120.4167                                         !
 ! A26   A(3,16,27)            119.4348                                         !
 ! A27   A(17,16,27)           117.6756                                         !
 ! A28   A(16,17,18)           113.2147                                         !
 ! A29   A(16,17,20)           110.4301                                         !
 ! A30   A(16,17,28)           105.2837                                         !
 ! A31   A(18,17,20)           109.9752                                         !
 ! A32   A(18,17,28)           107.4861                                         !
 ! A33   A(20,17,28)           110.3019                                         !
 ! A34   A(17,18,19)           120.8834                                         !
 ! A35   A(17,18,36)           118.6246                                         !
 ! A36   A(19,18,36)           120.42                                           !
 ! A37   A(17,20,21)           113.4179                                         !
 ! A38   A(17,20,29)           108.4406                                         !
 ! A39   A(17,20,30)           107.8611                                         !
 ! A40   A(21,20,29)           110.1968                                         !
 ! A41   A(21,20,30)           110.9291                                         !
 ! A42   A(29,20,30)           105.6604                                         !
 ! A43   A(20,21,22)           121.5136                                         !
 ! A44   A(20,21,23)           120.2401                                         !
 ! A45   A(22,21,23)           118.2463                                         !
 ! A46   A(21,22,24)           120.9042                                         !
 ! A47   A(21,22,31)           119.7709                                         !
 ! A48   A(24,22,31)           119.3232                                         !
 ! A49   A(21,23,25)           121.1601                                         !
 ! A50   A(21,23,32)           119.2417                                         !
 ! A51   A(25,23,32)           119.5955                                         !
 ! A52   A(22,24,26)           120.2467                                         !
 ! A53   A(22,24,33)           119.6615                                         !
 ! A54   A(26,24,33)           120.0885                                         !
 ! A55   A(23,25,26)           120.0171                                         !
 ! A56   A(23,25,34)           119.7154                                         !
 ! A57   A(26,25,34)           120.2611                                         !
 ! A58   A(24,26,25)           119.4215                                         !
 ! A59   A(24,26,35)           120.1153                                         !
 ! A60   A(25,26,35)           120.4443                                         !
 ! A61   A(18,36,37)           128.2672                                         !
 ! A62   A(18,36,44)           112.7845                                         !
 ! A63   A(37,36,44)           115.2504                                         !
 ! A64   A(36,37,38)           114.1301                                         !
 ! A65   A(36,37,40)           111.1725                                         !
 ! A66   A(36,37,45)           109.517                                          !
 ! A67   A(38,37,40)           110.1256                                         !
 ! A68   A(38,37,45)           104.6676                                         !
 ! A69   A(40,37,45)           106.7781                                         !
 ! A70   A(37,38,39)           119.3832                                         !
 ! A71   A(37,38,50)           116.3486                                         !
 ! A72   A(39,38,50)           124.2567                                         !
 ! A73   A(37,40,41)           113.2587                                         !
 ! A74   A(37,40,46)           108.908                                          !
 ! A75   A(37,40,47)           108.2537                                         !
 ! A76   A(41,40,46)           108.7581                                         !
 ! A77   A(41,40,47)           110.1341                                         !
 ! A78   A(46,40,47)           107.3561                                         !
 ! A79   A(40,41,42)           115.2438                                         !
 ! A80   A(40,41,43)           122.4544                                         !
 ! A81   A(42,41,43)           122.2997                                         !
 ! A82   A(41,42,48)           118.5006                                         !
 ! A83   A(41,42,49)           122.6911                                         !
 ! A84   A(48,42,49)           118.4911                                         !
 ! A85   A(38,50,51)           125.3223                                         !
 ! A86   A(38,50,63)           117.1403                                         !
 ! A87   A(51,50,63)           117.5349                                         !
 ! A88   A(50,51,52)           105.9385                                         !
 ! A89   A(50,51,54)           110.3915                                         !
 ! A90   A(50,51,64)           106.4539                                         !
 ! A91   A(52,51,54)           115.4808                                         !
 ! A92   A(52,51,64)           108.5894                                         !
 ! A93   A(54,51,64)           109.564                                          !
 ! A94   A(51,52,53)           118.1049                                         !
 ! A95   A(51,52,61)           116.7124                                         !
 ! A96   A(53,52,61)           125.0162                                         !
 ! A97   A(51,54,55)           113.7263                                         !
 ! A98   A(51,54,65)           107.4896                                         !
 ! A99   A(51,54,66)           108.3182                                         !
 ! A100  A(55,54,65)           110.1535                                         !
 ! A101  A(55,54,66)           111.0965                                         !
 ! A102  A(65,54,66)           105.6794                                         !
 ! A103  A(54,55,56)           114.0649                                         !
 ! A104  A(54,55,67)           110.4174                                         !
 ! A105  A(54,55,68)           109.962                                          !
 ! A106  A(56,55,67)           107.9107                                         !
 ! A107  A(56,55,68)           107.8444                                         !
 ! A108  A(67,55,68)           106.3141                                         !
 ! A109  A(55,56,57)           109.4143                                         !
 ! A110  A(55,56,69)           110.312                                          !
 ! A111  A(55,56,70)           110.6341                                         !
 ! A112  A(57,56,69)           109.5071                                         !
 ! A113  A(57,56,70)           108.9954                                         !
 ! A114  A(69,56,70)           107.9472                                         !
 ! A115  A(56,57,58)           126.0779                                         !
 ! A116  A(56,57,71)           113.2966                                         !
 ! A117  A(58,57,71)           111.6093                                         !
 ! A118  A(57,58,59)           121.0646                                         !
 ! A119  A(57,58,60)           118.7248                                         !
 ! A120  A(59,58,60)           120.2081                                         !
 ! A121  A(58,59,72)           120.8551                                         !
 ! A122  A(58,59,73)           120.1684                                         !
 ! A123  A(72,59,73)           117.3827                                         !
 ! A124  A(58,60,74)           121.5151                                         !
 ! A125  A(58,60,75)           117.547                                          !
 ! A126  A(74,60,75)           119.947                                          !
 ! A127  A(52,61,62)           123.7276                                         !
 ! D1    D(14,1,2,3)          -176.2624                                         !
 ! D2    D(14,1,2,5)            60.2015                                         !
 ! D3    D(14,1,2,9)           -59.7757                                         !
 ! D4    D(15,1,2,3)           -51.6392                                         !
 ! D5    D(15,1,2,5)          -175.1753                                         !
 ! D6    D(15,1,2,9)            64.8475                                         !
 ! D7    D(1,2,3,4)            127.2                                            !
 ! D8    D(1,2,3,16)           -56.3623                                         !
 ! D9    D(5,2,3,4)           -109.6949                                         !
 ! D10   D(5,2,3,16)            66.7428                                         !
 ! D11   D(9,2,3,4)             10.0878                                         !
 ! D12   D(9,2,3,16)          -173.4745                                         !
 ! D13   D(1,2,5,6)            -62.3046                                         !
 ! D14   D(1,2,5,10)            58.45                                           !
 ! D15   D(1,2,5,11)           174.3892                                         !
 ! D16   D(3,2,5,6)            172.0255                                         !
 ! D17   D(3,2,5,10)           -67.2199                                         !
 ! D18   D(3,2,5,11)            48.7192                                         !
 ! D19   D(9,2,5,6)             55.2771                                         !
 ! D20   D(9,2,5,10)           176.0318                                         !
 ! D21   D(9,2,5,11)           -68.0291                                         !
 ! D22   D(2,3,16,17)         -160.065                                          !
 ! D23   D(2,3,16,27)            1.6849                                         !
 ! D24   D(4,3,16,17)           16.1875                                         !
 ! D25   D(4,3,16,27)          177.9374                                         !
 ! D26   D(2,5,6,7)           -156.4515                                         !
 ! D27   D(2,5,6,8)             24.9523                                         !
 ! D28   D(10,5,6,7)            81.8955                                         !
 ! D29   D(10,5,6,8)           -96.7007                                         !
 ! D30   D(11,5,6,7)           -34.5746                                         !
 ! D31   D(11,5,6,8)           146.8292                                         !
 ! D32   D(5,6,7,12)          -178.08                                           !
 ! D33   D(5,6,7,13)             3.0111                                         !
 ! D34   D(8,6,7,12)             0.5003                                         !
 ! D35   D(8,6,7,13)          -178.4086                                         !
 ! D36   D(3,16,17,18)        -127.2959                                         !
 ! D37   D(3,16,17,20)         108.8953                                         !
 ! D38   D(3,16,17,28)         -10.1579                                         !
 ! D39   D(27,16,17,18)         70.6414                                         !
 ! D40   D(27,16,17,20)        -53.1675                                         !
 ! D41   D(27,16,17,28)       -172.2206                                         !
 ! D42   D(16,17,18,19)       -125.7181                                         !
 ! D43   D(16,17,18,36)         57.356                                          !
 ! D44   D(20,17,18,19)         -1.6605                                         !
 ! D45   D(20,17,18,36)       -178.5864                                         !
 ! D46   D(28,17,18,19)        118.4434                                         !
 ! D47   D(28,17,18,36)        -58.4824                                         !
 ! D48   D(16,17,20,21)        -46.7455                                         !
 ! D49   D(16,17,20,29)         76.0075                                         !
 ! D50   D(16,17,20,30)       -170.0134                                         !
 ! D51   D(18,17,20,21)       -172.4042                                         !
 ! D52   D(18,17,20,29)        -49.6512                                         !
 ! D53   D(18,17,20,30)         64.3279                                         !
 ! D54   D(28,17,20,21)         69.2135                                         !
 ! D55   D(28,17,20,29)       -168.0335                                         !
 ! D56   D(28,17,20,30)        -54.0544                                         !
 ! D57   D(17,18,36,37)        -19.9587                                         !
 ! D58   D(17,18,36,44)       -176.9787                                         !
 ! D59   D(19,18,36,37)        163.1007                                         !
 ! D60   D(19,18,36,44)          6.0807                                         !
 ! D61   D(17,20,21,22)        -58.7824                                         !
 ! D62   D(17,20,21,23)        121.1534                                         !
 ! D63   D(29,20,21,22)        179.4399                                         !
 ! D64   D(29,20,21,23)         -0.6244                                         !
 ! D65   D(30,20,21,22)         62.7844                                         !
 ! D66   D(30,20,21,23)       -117.2798                                         !
 ! D67   D(20,21,22,24)       -179.6738                                         !
 ! D68   D(20,21,22,31)          0.7941                                         !
 ! D69   D(23,21,22,24)          0.3892                                         !
 ! D70   D(23,21,22,31)       -179.1429                                         !
 ! D71   D(20,21,23,25)        179.3377                                         !
 ! D72   D(20,21,23,32)         -0.0631                                         !
 ! D73   D(22,21,23,25)         -0.7245                                         !
 ! D74   D(22,21,23,32)        179.8747                                         !
 ! D75   D(21,22,24,26)          0.1736                                         !
 ! D76   D(21,22,24,33)        179.5078                                         !
 ! D77   D(31,22,24,26)        179.7078                                         !
 ! D78   D(31,22,24,33)         -0.9579                                         !
 ! D79   D(21,23,25,26)          0.4961                                         !
 ! D80   D(21,23,25,34)       -178.59                                           !
 ! D81   D(32,23,25,26)        179.8949                                         !
 ! D82   D(32,23,25,34)          0.8087                                         !
 ! D83   D(22,24,26,25)         -0.412                                          !
 ! D84   D(22,24,26,35)        178.0126                                         !
 ! D85   D(33,24,26,25)       -179.7434                                         !
 ! D86   D(33,24,26,35)         -1.3188                                         !
 ! D87   D(23,25,26,24)          0.0818                                         !
 ! D88   D(23,25,26,35)       -178.3375                                         !
 ! D89   D(34,25,26,24)        179.1629                                         !
 ! D90   D(34,25,26,35)          0.7436                                         !
 ! D91   D(18,36,37,38)        -69.804                                          !
 ! D92   D(18,36,37,40)        164.8987                                         !
 ! D93   D(18,36,37,45)         47.1418                                         !
 ! D94   D(44,36,37,38)         86.7447                                         !
 ! D95   D(44,36,37,40)        -38.5526                                         !
 ! D96   D(44,36,37,45)       -156.3096                                         !
 ! D97   D(36,37,38,39)        160.6435                                         !
 ! D98   D(36,37,38,50)        -18.1794                                         !
 ! D99   D(40,37,38,39)        -73.5076                                         !
 ! D100  D(40,37,38,50)        107.6695                                         !
 ! D101  D(45,37,38,39)         40.9306                                         !
 ! D102  D(45,37,38,50)       -137.8923                                         !
 ! D103  D(36,37,40,41)         61.4789                                         !
 ! D104  D(36,37,40,46)        -59.6663                                         !
 ! D105  D(36,37,40,47)       -176.0902                                         !
 ! D106  D(38,37,40,41)        -66.0275                                         !
 ! D107  D(38,37,40,46)        172.8273                                         !
 ! D108  D(38,37,40,47)         56.4034                                         !
 ! D109  D(45,37,40,41)       -179.1161                                         !
 ! D110  D(45,37,40,46)         59.7387                                         !
 ! D111  D(45,37,40,47)        -56.6852                                         !
 ! D112  D(37,38,50,51)        171.4291                                         !
 ! D113  D(37,38,50,63)         -7.9755                                         !
 ! D114  D(39,38,50,51)         -7.33                                           !
 ! D115  D(39,38,50,63)        173.2654                                         !
 ! D116  D(37,40,41,42)        167.7447                                         !
 ! D117  D(37,40,41,43)        -12.7666                                         !
 ! D118  D(46,40,41,42)        -71.0256                                         !
 ! D119  D(46,40,41,43)        108.4631                                         !
 ! D120  D(47,40,41,42)         46.3653                                         !
 ! D121  D(47,40,41,43)       -134.1459                                         !
 ! D122  D(40,41,42,48)        175.089                                          !
 ! D123  D(40,41,42,49)          1.6593                                         !
 ! D124  D(43,41,42,48)         -4.4006                                         !
 ! D125  D(43,41,42,49)       -177.8303                                         !
 ! D126  D(38,50,51,52)       -108.051                                          !
 ! D127  D(38,50,51,54)        126.2534                                         !
 ! D128  D(38,50,51,64)          7.4184                                         !
 ! D129  D(63,50,51,52)         71.3514                                         !
 ! D130  D(63,50,51,54)        -54.3442                                         !
 ! D131  D(63,50,51,64)       -173.1791                                         !
 ! D132  D(50,51,52,53)        -98.1216                                         !
 ! D133  D(50,51,52,61)         77.4253                                         !
 ! D134  D(54,51,52,53)         24.3926                                         !
 ! D135  D(54,51,52,61)       -160.0606                                         !
 ! D136  D(64,51,52,53)        147.8724                                         !
 ! D137  D(64,51,52,61)        -36.5808                                         !
 ! D138  D(50,51,54,55)       -174.0807                                         !
 ! D139  D(50,51,54,65)        -51.867                                          !
 ! D140  D(50,51,54,66)         61.8863                                         !
 ! D141  D(52,51,54,55)         65.8078                                         !
 ! D142  D(52,51,54,65)       -171.9784                                         !
 ! D143  D(52,51,54,66)        -58.2252                                         !
 ! D144  D(64,51,54,55)        -57.1574                                         !
 ! D145  D(64,51,54,65)         65.0564                                         !
 ! D146  D(64,51,54,66)        178.8096                                         !
 ! D147  D(51,52,61,62)         10.0788                                         !
 ! D148  D(53,52,61,62)       -174.7183                                         !
 ! D149  D(51,54,55,56)       -125.4114                                         !
 ! D150  D(51,54,55,67)         -3.7011                                         !
 ! D151  D(51,54,55,68)        113.3058                                         !
 ! D152  D(65,54,55,56)        113.8584                                         !
 ! D153  D(65,54,55,67)       -124.4313                                         !
 ! D154  D(65,54,55,68)         -7.4244                                         !
 ! D155  D(66,54,55,56)         -2.8951                                         !
 ! D156  D(66,54,55,67)        118.8152                                         !
 ! D157  D(66,54,55,68)       -124.1779                                         !
 ! D158  D(54,55,56,57)         62.7903                                         !
 ! D159  D(54,55,56,69)       -176.6799                                         !
 ! D160  D(54,55,56,70)        -57.308                                          !
 ! D161  D(67,55,56,57)        -60.2931                                         !
 ! D162  D(67,55,56,69)         60.2367                                         !
 ! D163  D(67,55,56,70)        179.6086                                         !
 ! D164  D(68,55,56,57)       -174.7603                                         !
 ! D165  D(68,55,56,69)        -54.2305                                         !
 ! D166  D(68,55,56,70)         65.1414                                         !
 ! D167  D(55,56,57,58)        111.9664                                         !
 ! D168  D(55,56,57,71)        -32.1153                                         !
 ! D169  D(69,56,57,58)         -9.0529                                         !
 ! D170  D(69,56,57,71)       -153.1346                                         !
 ! D171  D(70,56,57,58)       -126.9368                                         !
 ! D172  D(70,56,57,71)         88.9815                                         !
 ! D173  D(56,57,58,59)         36.114                                          !
 ! D174  D(56,57,58,60)       -143.2975                                         !
 ! D175  D(71,57,58,59)       -179.3038                                         !
 ! D176  D(71,57,58,60)          1.2848                                         !
 ! D177  D(57,58,59,72)       -173.3059                                         !
 ! D178  D(57,58,59,73)         21.4627                                         !
 ! D179  D(60,58,59,72)          6.0968                                         !
 ! D180  D(60,58,59,73)       -159.1345                                         !
 ! D181  D(57,58,60,74)       -156.8936                                         !
 ! D182  D(57,58,60,75)         11.7073                                         !
 ! D183  D(59,58,60,74)         23.6898                                         !
 ! D184  D(59,58,60,75)       -167.7093                                         !
 --------------------------------------------------------------------------------
 Symmetry turned off by external request.
 Stoichiometry    C23H36N9O7(1+)
 Framework group  C1[X(C23H36N9O7)]
 Deg. of freedom   219
 Full point group                 C1      NOp   1
                          Input orientation:                          
 ---------------------------------------------------------------------
 Center     Atomic      Atomic             Coordinates (Angstroms)
 Number     Number       Type             X           Y           Z
 ---------------------------------------------------------------------
      1          7           0       -9.165123    0.131855   -8.310744
      2          6           0       -8.102951    1.069901   -8.807228
      3          6           0       -6.882080    0.358626   -9.412646
      4          8           0       -6.504868    0.670140  -10.536571
      5          6           0       -7.663622    1.988414   -7.663812
      6          6           0       -8.805342    2.862034   -7.157886
      7          7           0       -8.421281    3.999402   -6.539699
      8          8           0       -9.988791    2.531452   -7.285068
      9          1           0       -8.544470    1.647973   -9.620145
     10          1           0       -7.287252    1.390023   -6.825677
     11          1           0       -6.822895    2.596986   -8.007342
     12          1           0       -9.127557    4.611483   -6.153449
     13          1           0       -7.447344    4.260913   -6.468367
     14          1           0       -9.945025    0.733325   -7.993296
     15          1           0       -9.425167   -0.555640   -9.040253
     16          7           0       -6.239266   -0.538940   -8.617647
     17          6           0       -4.861757   -0.934207   -8.910447
     18          6           0       -4.672388   -2.464856   -8.994808
     19          8           0       -3.829685   -3.031482   -8.313745
     20          6           0       -3.895870   -0.340045   -7.861782
     21          6           0       -4.139821    1.129236   -7.582519
     22          6           0       -4.068724    2.091737   -8.602211
     23          6           0       -4.446080    1.559423   -6.284920
     24          6           0       -4.289071    3.442491   -8.329463
     25          6           0       -4.661227    2.911815   -6.003013
     26          6           0       -4.582527    3.859956   -7.025792
     27          1           0       -6.596241   -0.724048   -7.680024
     28          1           0       -4.647533   -0.521323   -9.900895
     29          1           0       -3.987639   -0.920415   -6.938572
     30          1           0       -2.872389   -0.506536   -8.215242
     31          1           0       -3.846781    1.783768   -9.620255
     32          1           0       -4.507333    0.827335   -5.483159
     33          1           0       -4.221113    4.171185   -9.132422
     34          1           0       -4.874803    3.222366   -4.983362
     35          1           0       -4.721986    4.916545   -6.809595
     36          7           0       -5.428647   -3.174157   -9.900874
     37          6           0       -6.672357   -2.777263  -10.542698
     38          6           0       -7.885503   -2.720588   -9.588160
     39          8           0       -8.887276   -2.066906   -9.915470
     40          6           0       -6.988520   -3.679862  -11.747389
     41          6           0       -7.176800   -5.150809  -11.367695
     42          7           0       -7.706865   -5.934727  -12.337597
     43          8           0       -6.860414   -5.593937  -10.263029
     44          1           0       -5.268792   -4.176134   -9.847881
     45          1           0       -6.575636   -1.758943  -10.928154
     46          1           0       -6.168853   -3.604859  -12.472576
     47          1           0       -7.892128   -3.297568  -12.234813
     48          1           0       -7.782784   -6.928435  -12.167007
     49          1           0       -7.938672   -5.584656  -13.255564
     50          7           0       -7.760510   -3.383094   -8.423290
     51          6           0       -8.700490   -3.317280   -7.311340
     52          6           0       -7.984940   -2.491668   -6.192424
     53          8           0       -7.416600   -3.120573   -5.264170
     54          6           0       -9.149419   -4.728427   -6.906135
     55          6           0      -10.263293   -4.743213   -5.823424
     56          6           0       -9.918555   -5.581254   -4.580074
     57          7           0       -8.745142   -5.001438   -3.909781
     58          6           0       -8.736946   -4.405787   -2.717485
     59          7           0       -9.524917   -4.845506   -1.713914
     60          7           0       -7.936602   -3.347399   -2.531909
     61          8           0       -7.952473   -1.234464   -6.344937
     62          1           0       -8.802444   -0.437925   -7.488501
     63          1           0       -6.941461   -3.967323   -8.309826
     64          1           0       -9.562478   -2.747147   -7.667873
     65          1           0       -9.496805   -5.235634   -7.811375
     66          1           0       -8.266777   -5.288645   -6.572461
     67          1           0      -10.487288   -3.721175   -5.490301
     68          1           0      -11.192122   -5.138953   -6.247920
     69          1           0      -10.764633   -5.597508   -3.886438
     70          1           0       -9.693264   -6.615593   -4.862003
     71          1           0       -8.079687   -4.554036   -4.563888
     72          1           0       -9.591850   -4.334179   -0.846329
     73          1           0       -9.879981   -5.790159   -1.724546
     74          1           0       -7.626667   -3.075316   -1.610504
     75          1           0       -7.502984   -2.928087   -3.363412
 ---------------------------------------------------------------------
 Rotational constants (GHZ):           0.1016663           0.0744302           0.0561419
 Standard basis: 6-31G(d) (6D, 7F)
   657 basis functions,  1236 primitive gaussians,   657 cartesian basis functions
   146 alpha electrons      146 beta electrons
       nuclear repulsion energy      4963.6095676204 Hartrees.
 NAtoms=   75 NActive=   75 NUniq=   75 SFac= 1.00D+00 NAtFMM=   60 NAOKFM=T Big=T
 Integral buffers will be    131072 words long.
 Raffenetti 2 integral format.
 Two-electron integral symmetry is turned off.
 Nuclear repulsion after empirical dispersion term =     4963.4951196947 Hartrees.
 One-electron integrals computed using PRISM.
 NBasis=   657 RedAO= T EigKep=  4.64D-04  NBF=   657
 NBsUse=   657 1.00D-06 EigRej= -1.00D+00 NBFU=   657
 Initial guess from the checkpoint file:  "conf-950.chk"
 B after Tr=     0.000000    0.000000    0.000000
         Rot=    1.000000    0.000000    0.000000    0.000000 Ang=   0.00 deg.
 Requested convergence on RMS density matrix=1.00D-08 within 128 cycles.
 Requested convergence on MAX density matrix=1.00D-06.
 Requested convergence on             energy=1.00D-06.
 No special actions if energy rises.
 SCF Done:  E(RB3LYP) =  -1917.52215849     A.U. after    3 cycles
            NFock=  3  Conv=0.74D-09     -V/T= 2.0093

 **********************************************************************

            Population analysis using the SCF Density.

 **********************************************************************

 Alpha  occ. eigenvalues --  -19.21661 -19.21590 -19.21226 -19.20985 -19.20971
 Alpha  occ. eigenvalues --  -19.20687 -19.19269 -14.50419 -14.50354 -14.48678
 Alpha  occ. eigenvalues --  -14.47865 -14.45828 -14.45360 -14.44831 -14.44702
 Alpha  occ. eigenvalues --  -14.43464 -10.45638 -10.39202 -10.38846 -10.38525
 Alpha  occ. eigenvalues --  -10.38420 -10.38339 -10.36710 -10.34738 -10.34191
 Alpha  occ. eigenvalues --  -10.32646 -10.32626 -10.31611 -10.29811 -10.29716
 Alpha  occ. eigenvalues --  -10.29288 -10.28855 -10.27570 -10.27072 -10.26984
 Alpha  occ. eigenvalues --  -10.26858 -10.26668 -10.26525 -10.26519  -1.14639
 Alpha  occ. eigenvalues --   -1.13972  -1.13403  -1.13192  -1.12865  -1.12334
 Alpha  occ. eigenvalues --   -1.11257  -1.06803  -1.05311  -1.03385  -1.02761
 Alpha  occ. eigenvalues --   -1.02269  -1.01550  -1.00275  -0.99872  -0.99461
 Alpha  occ. eigenvalues --   -0.93328  -0.90151  -0.88764  -0.87003  -0.86191
 Alpha  occ. eigenvalues --   -0.84666  -0.82157  -0.81752  -0.78769  -0.77683
 Alpha  occ. eigenvalues --   -0.76593  -0.75542  -0.73930  -0.71230  -0.71059
 Alpha  occ. eigenvalues --   -0.69446  -0.69164  -0.68509  -0.68149  -0.67643
 Alpha  occ. eigenvalues --   -0.67282  -0.67040  -0.66689  -0.65321  -0.65103
 Alpha  occ. eigenvalues --   -0.64310  -0.63200  -0.63022  -0.62755  -0.62266
 Alpha  occ. eigenvalues --   -0.61137  -0.60688  -0.59618  -0.59276  -0.58368
 Alpha  occ. eigenvalues --   -0.58098  -0.57176  -0.56620  -0.56431  -0.55643
 Alpha  occ. eigenvalues --   -0.54819  -0.54739  -0.54076  -0.53797  -0.52953
 Alpha  occ. eigenvalues --   -0.52934  -0.52524  -0.52457  -0.52137  -0.51905
 Alpha  occ. eigenvalues --   -0.51467  -0.50798  -0.50435  -0.50021  -0.49587
 Alpha  occ. eigenvalues --   -0.49509  -0.49080  -0.48942  -0.48676  -0.48279
 Alpha  occ. eigenvalues --   -0.47972  -0.47098  -0.46671  -0.46234  -0.45952
 Alpha  occ. eigenvalues --   -0.45771  -0.45272  -0.44917  -0.44580  -0.44332
 Alpha  occ. eigenvalues --   -0.43828  -0.43009  -0.41487  -0.41277  -0.41031
 Alpha  occ. eigenvalues --   -0.38384  -0.37971  -0.37248  -0.36693  -0.36601
 Alpha  occ. eigenvalues --   -0.36067  -0.35908  -0.35587  -0.35144  -0.34786
 Alpha  occ. eigenvalues --   -0.34463  -0.33567  -0.32940  -0.32682  -0.32307
 Alpha  occ. eigenvalues --   -0.31759
 Alpha virt. eigenvalues --   -0.10517  -0.09221  -0.08632  -0.08375  -0.07985
 Alpha virt. eigenvalues --   -0.06773  -0.06495  -0.06274  -0.05901  -0.05123
 Alpha virt. eigenvalues --   -0.02093  -0.00930  -0.00650   0.00113   0.00341
 Alpha virt. eigenvalues --    0.00840   0.00995   0.01891   0.02636   0.02702
 Alpha virt. eigenvalues --    0.02735   0.03615   0.03875   0.04086   0.04147
 Alpha virt. eigenvalues --    0.04665   0.05248   0.05795   0.06198   0.06397
 Alpha virt. eigenvalues --    0.06553   0.06748   0.07494   0.07538   0.07873
 Alpha virt. eigenvalues --    0.08143   0.08355   0.08680   0.08882   0.09316
 Alpha virt. eigenvalues --    0.09691   0.10093   0.10393   0.11170   0.11210
 Alpha virt. eigenvalues --    0.11446   0.11823   0.12133   0.12569   0.13156
 Alpha virt. eigenvalues --    0.13662   0.14089   0.14614   0.15060   0.15363
 Alpha virt. eigenvalues --    0.16170   0.16244   0.17025   0.17102   0.17765
 Alpha virt. eigenvalues --    0.18316   0.18838   0.19539   0.19758   0.20533
 Alpha virt. eigenvalues --    0.22767   0.23449   0.24200   0.24969   0.25243
 Alpha virt. eigenvalues --    0.25487   0.25743   0.26264   0.27007   0.27259
 Alpha virt. eigenvalues --    0.27613   0.28822   0.30364   0.31332   0.31986
 Alpha virt. eigenvalues --    0.32664   0.33786   0.36003   0.38775   0.38945
 Alpha virt. eigenvalues --    0.39390   0.39624   0.40565   0.40823   0.41591
 Alpha virt. eigenvalues --    0.42030   0.42538   0.43130   0.43555   0.44241
 Alpha virt. eigenvalues --    0.44936   0.45582   0.46287   0.46680   0.46903
 Alpha virt. eigenvalues --    0.47677   0.47885   0.48084   0.48485   0.49115
 Alpha virt. eigenvalues --    0.49307   0.49920   0.50143   0.50454   0.50764
 Alpha virt. eigenvalues --    0.51101   0.51568   0.51927   0.52608   0.52769
 Alpha virt. eigenvalues --    0.53125   0.53575   0.53891   0.54118   0.54488
 Alpha virt. eigenvalues --    0.54906   0.55086   0.55702   0.56077   0.56368
 Alpha virt. eigenvalues --    0.56705   0.56936   0.57230   0.57658   0.58242
 Alpha virt. eigenvalues --    0.58931   0.59067   0.59496   0.59550   0.60036
 Alpha virt. eigenvalues --    0.60479   0.60926   0.61463   0.62082   0.62903
 Alpha virt. eigenvalues --    0.63504   0.63672   0.63927   0.65122   0.65195
 Alpha virt. eigenvalues --    0.65561   0.65910   0.66270   0.67404   0.67672
 Alpha virt. eigenvalues --    0.68428   0.68746   0.70553   0.70767   0.71655
 Alpha virt. eigenvalues --    0.71819   0.72975   0.73217   0.73544   0.73726
 Alpha virt. eigenvalues --    0.74123   0.74915   0.75160   0.75294   0.75602
 Alpha virt. eigenvalues --    0.75730   0.76158   0.76420   0.76645   0.77138
 Alpha virt. eigenvalues --    0.77595   0.77930   0.78288   0.78405   0.78850
 Alpha virt. eigenvalues --    0.78964   0.79183   0.79327   0.79718   0.80078
 Alpha virt. eigenvalues --    0.80644   0.81010   0.81474   0.82363   0.82621
 Alpha virt. eigenvalues --    0.83535   0.83824   0.84054   0.84636   0.84953
 Alpha virt. eigenvalues --    0.85229   0.85339   0.85781   0.86331   0.86868
 Alpha virt. eigenvalues --    0.86934   0.87386   0.88174   0.88434   0.88771
 Alpha virt. eigenvalues --    0.89277   0.89972   0.90539   0.91273   0.92666
 Alpha virt. eigenvalues --    0.93182   0.93486   0.94972   0.95200   0.95914
 Alpha virt. eigenvalues --    0.97048   0.97171   0.98762   0.99321   1.00577
 Alpha virt. eigenvalues --    1.00926   1.01194   1.01503   1.03111   1.03383
 Alpha virt. eigenvalues --    1.03964   1.05461   1.05486   1.06733   1.06961
 Alpha virt. eigenvalues --    1.07356   1.08293   1.09148   1.09722   1.10044
 Alpha virt. eigenvalues --    1.10766   1.12287   1.12769   1.12828   1.13468
 Alpha virt. eigenvalues --    1.13537   1.15030   1.15117   1.16780   1.16868
 Alpha virt. eigenvalues --    1.17594   1.18684   1.19003   1.19753   1.20930
 Alpha virt. eigenvalues --    1.21369   1.22111   1.22742   1.24056   1.24763
 Alpha virt. eigenvalues --    1.25319   1.27333   1.27836   1.28362   1.29135
 Alpha virt. eigenvalues --    1.29439   1.30123   1.30956   1.32077   1.32815
 Alpha virt. eigenvalues --    1.33253   1.34640   1.35935   1.36259   1.36679
 Alpha virt. eigenvalues --    1.37139   1.37611   1.38416   1.38914   1.39654
 Alpha virt. eigenvalues --    1.40342   1.40468   1.41506   1.41710   1.42731
 Alpha virt. eigenvalues --    1.43092   1.43965   1.44427   1.45554   1.46408
 Alpha virt. eigenvalues --    1.46588   1.49332   1.51070   1.51203   1.51985
 Alpha virt. eigenvalues --    1.52211   1.54887   1.55712   1.55749   1.56479
 Alpha virt. eigenvalues --    1.56895   1.57148   1.57530   1.57969   1.58696
 Alpha virt. eigenvalues --    1.59920   1.61029   1.62522   1.63290   1.63495
 Alpha virt. eigenvalues --    1.65111   1.65411   1.66490   1.66948   1.67548
 Alpha virt. eigenvalues --    1.68593   1.69588   1.70517   1.70863   1.71318
 Alpha virt. eigenvalues --    1.71564   1.72053   1.72619   1.73001   1.73424
 Alpha virt. eigenvalues --    1.73615   1.74254   1.74440   1.74722   1.75206
 Alpha virt. eigenvalues --    1.75941   1.76366   1.77610   1.77896   1.78545
 Alpha virt. eigenvalues --    1.78752   1.79452   1.79870   1.80207   1.80837
 Alpha virt. eigenvalues --    1.81630   1.82220   1.82316   1.83655   1.84110
 Alpha virt. eigenvalues --    1.84618   1.84848   1.85473   1.86516   1.86868
 Alpha virt. eigenvalues --    1.87625   1.88014   1.88188   1.88907   1.89666
 Alpha virt. eigenvalues --    1.89900   1.90790   1.91250   1.91526   1.92403
 Alpha virt. eigenvalues --    1.93338   1.93777   1.94408   1.95450   1.95716
 Alpha virt. eigenvalues --    1.95909   1.97061   1.97596   1.98354   1.98407
 Alpha virt. eigenvalues --    2.00558   2.00786   2.01116   2.01681   2.02190
 Alpha virt. eigenvalues --    2.02736   2.04270   2.05206   2.06228   2.06547
 Alpha virt. eigenvalues --    2.07434   2.07780   2.08215   2.08812   2.09513
 Alpha virt. eigenvalues --    2.09639   2.10948   2.11598   2.12792   2.13320
 Alpha virt. eigenvalues --    2.15173   2.15869   2.16525   2.17097   2.17590
 Alpha virt. eigenvalues --    2.17932   2.18067   2.20392   2.20973   2.21859
 Alpha virt. eigenvalues --    2.22439   2.23620   2.23976   2.25039   2.25809
 Alpha virt. eigenvalues --    2.27856   2.27970   2.29227   2.29671   2.30470
 Alpha virt. eigenvalues --    2.32012   2.32344   2.33475   2.33841   2.34309
 Alpha virt. eigenvalues --    2.35948   2.36128   2.37745   2.39052   2.40217
 Alpha virt. eigenvalues --    2.40647   2.41708   2.42120   2.43239   2.44359
 Alpha virt. eigenvalues --    2.45046   2.46415   2.47321   2.48088   2.49479
 Alpha virt. eigenvalues --    2.49788   2.50476   2.51651   2.52264   2.52561
 Alpha virt. eigenvalues --    2.53338   2.53999   2.54798   2.55307   2.56025
 Alpha virt. eigenvalues --    2.56074   2.57999   2.58176   2.58591   2.59438
 Alpha virt. eigenvalues --    2.60741   2.61657   2.62915   2.63772   2.64047
 Alpha virt. eigenvalues --    2.64800   2.67075   2.67383   2.68118   2.68880
 Alpha virt. eigenvalues --    2.69971   2.71577   2.73421   2.76228   2.77878
 Alpha virt. eigenvalues --    2.79752   2.82400   2.85097   2.87528   2.89190
 Alpha virt. eigenvalues --    2.90195   2.91181   2.91615   2.92268   2.92791
 Alpha virt. eigenvalues --    2.93759   2.95613   2.96438   2.96787   2.99218
 Alpha virt. eigenvalues --    2.99509   3.01327   3.04712   3.06589   3.07667
 Alpha virt. eigenvalues --    3.10394   3.32920   3.67087   3.72281   3.74107
 Alpha virt. eigenvalues --    3.75211   3.82815   3.88109   3.90750   3.95976
 Alpha virt. eigenvalues --    3.99252   4.00110   4.00787   4.03473   4.03967
 Alpha virt. eigenvalues --    4.06654   4.08310   4.09822   4.11430   4.13913
 Alpha virt. eigenvalues --    4.15384   4.15968   4.18672   4.21618   4.24374
 Alpha virt. eigenvalues --    4.28039   4.30744   4.31979   4.33523   4.35244
 Alpha virt. eigenvalues --    4.39798   4.41385   4.42881   4.43820   4.47687
 Alpha virt. eigenvalues --    4.52189   4.55106   4.60351   4.64890   4.65701
 Alpha virt. eigenvalues --    4.68833
          Condensed to atoms (all electrons):
 Mulliken charges:
               1
     1  N   -0.814036
     2  C   -0.109680
     3  C    0.634051
     4  O   -0.519493
     5  C   -0.414613
     6  C    0.632836
     7  N   -0.743387
     8  O   -0.537156
     9  H    0.213748
    10  H    0.215638
    11  H    0.213371
    12  H    0.361313
    13  H    0.357427
    14  H    0.411775
    15  H    0.430786
    16  N   -0.644528
    17  C   -0.081931
    18  C    0.602352
    19  O   -0.491740
    20  C   -0.364023
    21  C    0.172199
    22  C   -0.178210
    23  C   -0.197660
    24  C   -0.139047
    25  C   -0.135870
    26  C   -0.162011
    27  H    0.381637
    28  H    0.208682
    29  H    0.173308
    30  H    0.189069
    31  H    0.153610
    32  H    0.139581
    33  H    0.153183
    34  H    0.141133
    35  H    0.142571
    36  N   -0.631441
    37  C   -0.053019
    38  C    0.642278
    39  O   -0.595526
    40  C   -0.397138
    41  C    0.605837
    42  N   -0.738860
    43  O   -0.530319
    44  H    0.359214
    45  H    0.210547
    46  H    0.202975
    47  H    0.198153
    48  H    0.358574
    49  H    0.355023
    50  N   -0.581718
    51  C   -0.060214
    52  C    0.619418
    53  O   -0.580495
    54  C   -0.293250
    55  C   -0.282922
    56  C   -0.172649
    57  N   -0.602570
    58  C    0.767875
    59  N   -0.748372
    60  N   -0.771543
    61  O   -0.596002
    62  H    0.427582
    63  H    0.366496
    64  H    0.159380
    65  H    0.179202
    66  H    0.161460
    67  H    0.156931
    68  H    0.174421
    69  H    0.165410
    70  H    0.187861
    71  H    0.413218
    72  H    0.373505
    73  H    0.379299
    74  H    0.361991
    75  H    0.414500
 Sum of Mulliken charges =   1.00000
 Mulliken charges with hydrogens summed into heavy atoms:
               1
     1  N    0.456107
     2  C    0.104068
     3  C    0.634051
     4  O   -0.519493
     5  C    0.014396
     6  C    0.632836
     7  N   -0.024647
     8  O   -0.537156
    16  N   -0.262892
    17  C    0.126751
    18  C    0.602352
    19  O   -0.491740
    20  C   -0.001645
    21  C    0.172199
    22  C   -0.024600
    23  C   -0.058079
    24  C    0.014137
    25  C    0.005263
    26  C   -0.019440
    36  N   -0.272226
    37  C    0.157527
    38  C    0.642278
    39  O   -0.595526
    40  C    0.003990
    41  C    0.605837
    42  N   -0.025263
    43  O   -0.530319
    50  N   -0.215222
    51  C    0.099166
    52  C    0.619418
    53  O   -0.580495
    54  C    0.047412
    55  C    0.048430
    56  C    0.180622
    57  N   -0.189352
    58  C    0.767875
    59  N    0.004432
    60  N    0.004948
    61  O   -0.596002
 Electronic spatial extent (au):  <R**2>=         137564.1941
 Charge=              1.0000 electrons
 Dipole moment (field-independent basis, Debye):
    X=            -42.7982    Y=            -12.0302    Z=            -27.0905  Tot=             52.0606
 Quadrupole moment (field-independent basis, Debye-Ang):
   XX=            151.8814   YY=           -107.3784   ZZ=             35.5984
   XY=            136.8371   XZ=            229.2912   YZ=             67.6631
 Traceless Quadrupole moment (field-independent basis, Debye-Ang):
   XX=            125.1810   YY=           -134.0789   ZZ=              8.8979
   XY=            136.8371   XZ=            229.2912   YZ=             67.6631
 Octapole moment (field-independent basis, Debye-Ang**2):
  XXX=           1463.1912  YYY=            585.6315  ZZZ=           2201.3343  XYY=            505.6013
  XXY=          -1087.9128  XXZ=           -187.6333  XZZ=           -493.9220  YZZ=           -607.9226
  YYZ=            985.3635  XYZ=           -736.6212
 Hexadecapole moment (field-independent basis, Debye-Ang**3):
 XXXX=         -43804.2163 YYYY=         -11474.0880 ZZZZ=         -51255.0740 XXXY=           5632.9641
 XXXZ=         -19795.7187 YYYX=          -4281.1382 YYYZ=          -4530.3670 ZZZX=         -12673.2087
 ZZZY=           6396.5793 XXYY=          -4762.6096 XXZZ=         -10138.6467 YYZZ=          -9580.8669
 XXYZ=           4753.5592 YYXZ=          -5464.9397 ZZXY=           5759.6950
 N-N= 4.963495119695D+03 E-N=-1.437073540890D+04  KE= 1.899771359428D+03
 Unable to Open any file for archive entry.
 1\1\GINC-NVL-004\SP\RB3LYP\6-31G(d)\C23H36N9O7(1+)\KENGMITH\03-Jun-202
 2\0\\# B3LYP/6-31G* empiricaldispersion=gd3 guess=read geom=check nosy
 mm integral(ultrafinegrid)\\Candidate Structure: Conf:950 Charge calc 
 in gas phase\\1,1\N,0,-9.1651231556,0.1318549149,-8.3107443913\C,0,-8.
 1029510286,1.0699008341,-8.8072278039\C,0,-6.8820796191,0.3586256354,-
 9.4126460398\O,0,-6.5048681116,0.6701401429,-10.5365712983\C,0,-7.6636
 22427,1.9884138459,-7.6638116836\C,0,-8.8053424833,2.8620340372,-7.157
 8860795\N,0,-8.4212810844,3.9994015268,-6.5396990516\O,0,-9.9887914503
 ,2.5314523888,-7.2850684207\H,0,-8.5444701426,1.6479729949,-9.62014534
 68\H,0,-7.2872521335,1.3900226129,-6.8256773904\H,0,-6.8228948915,2.59
 69862809,-8.0073417072\H,0,-9.1275572867,4.6114825315,-6.1534487433\H,
 0,-7.447343696,4.2609125023,-6.4683667024\H,0,-9.9450247711,0.73332523
 29,-7.9932955066\H,0,-9.4251668061,-0.5556395565,-9.040252927\N,0,-6.2
 392662582,-0.5389397512,-8.617646565\C,0,-4.8617574411,-0.9342065627,-
 8.9104466321\C,0,-4.6723877906,-2.4648559419,-8.9948083934\O,0,-3.8296
 848164,-3.0314818251,-8.3137446206\C,0,-3.8958704426,-0.3400453352,-7.
 8617817683\C,0,-4.1398211074,1.1292364008,-7.582519299\C,0,-4.06872388
 83,2.0917372451,-8.6022112858\C,0,-4.446079753,1.5594232888,-6.2849204
 81\C,0,-4.2890714474,3.4424912258,-8.3294630764\C,0,-4.6612269884,2.91
 18154252,-6.0030125292\C,0,-4.5825272162,3.8599563963,-7.0257917684\H,
 0,-6.5962413933,-0.7240480777,-7.6800239273\H,0,-4.6475327799,-0.52132
 3255,-9.9008952824\H,0,-3.9876390355,-0.9204145118,-6.938572438\H,0,-2
 .8723891166,-0.506535887,-8.2152422067\H,0,-3.8467813597,1.7837677152,
 -9.6202548062\H,0,-4.5073332245,0.8273346896,-5.483159085\H,0,-4.22111
 28182,4.1711846558,-9.1324217128\H,0,-4.8748030565,3.2223659905,-4.983
 3623676\H,0,-4.7219862545,4.9165454814,-6.8095947761\N,0,-5.4286473521
 ,-3.1741571341,-9.9008743816\C,0,-6.6723568013,-2.7772629731,-10.54269
 81787\C,0,-7.8855025868,-2.7205878706,-9.5881601159\O,0,-8.8872764482,
 -2.0669060653,-9.9154699771\C,0,-6.9885198659,-3.6798617481,-11.747389
 1755\C,0,-7.1767996726,-5.150809089,-11.3676946346\N,0,-7.7068645182,-
 5.9347266193,-12.3375972065\O,0,-6.8604135825,-5.5939371234,-10.263029
 2041\H,0,-5.2687922329,-4.1761339616,-9.8478808514\H,0,-6.5756359224,-
 1.7589426571,-10.9281535244\H,0,-6.1688528615,-3.6048589248,-12.472575
 9563\H,0,-7.8921277734,-3.2975680502,-12.2348134401\H,0,-7.7827835156,
 -6.9284354613,-12.1670074472\H,0,-7.9386715991,-5.5846562646,-13.25556
 43836\N,0,-7.7605104019,-3.3830935869,-8.4232901894\C,0,-8.7004901252,
 -3.3172804046,-7.3113398625\C,0,-7.9849403226,-2.4916681382,-6.1924243
 041\O,0,-7.4166000761,-3.1205730583,-5.2641699888\C,0,-9.1494186086,-4
 .7284265413,-6.9061348177\C,0,-10.2632934621,-4.7432127195,-5.82342433
 2\C,0,-9.9185547299,-5.5812544806,-4.5800738554\N,0,-8.7451416445,-5.0
 01437747,-3.9097813678\C,0,-8.7369455964,-4.4057873429,-2.7174849251\N
 ,0,-9.5249165392,-4.8455057447,-1.7139141613\N,0,-7.9366018222,-3.3473
 986716,-2.5319087452\O,0,-7.9524732212,-1.2344639028,-6.3449369729\H,0
 ,-8.8024440243,-0.4379253997,-7.4885007222\H,0,-6.9414613915,-3.967322
 5211,-8.3098258397\H,0,-9.5624781871,-2.7471469627,-7.6678734562\H,0,-
 9.4968054373,-5.2356342153,-7.8113749261\H,0,-8.2667767978,-5.28864531
 97,-6.5724609958\H,0,-10.4872884969,-3.7211746275,-5.4903013817\H,0,-1
 1.1921224262,-5.1389526072,-6.2479196196\H,0,-10.7646333265,-5.5975079
 325,-3.886438444\H,0,-9.6932639765,-6.6155930046,-4.8620029379\H,0,-8.
 0796872038,-4.5540363571,-4.5638884862\H,0,-9.5918502011,-4.3341791579
 ,-0.8463287574\H,0,-9.8799805602,-5.7901591191,-1.7245456522\H,0,-7.62
 66665621,-3.0753161964,-1.6105042664\H,0,-7.5029837709,-2.9280873902,-
 3.3634121018\\Version=ES64L-G16RevC.01\HF=-1917.5221585\RMSD=7.403e-10
 \Dipole=-3.2701138,-1.8975574,3.7893872\Quadrupole=93.0689709,-99.6843
 523,6.6153814,101.7350145,170.4723686,50.3058569\PG=C01 [X(C23H36N9O7)
 ]\\@
 The archive entry for this job was punched.


 WAR ES EIN GOTT DER DIESE ZEICHEN SCHRIEB?
          - LUDWIG BOLTZMANN, QUOTING GOETHE, ABOUT MAXWELL'S EQUATIONS.
 Job cpu time:       0 days  0 hours  4 minutes 30.7 seconds.
 Elapsed time:       0 days  0 hours  1 minutes  8.9 seconds.
 File lengths (MBytes):  RWF=    344 Int=      0 D2E=      0 Chk=     48 Scr=     16
 Normal termination of Gaussian 16 at Fri Jun  3 06:26:50 2022.
