 Entering Gaussian System, Link 0=/opt/software/Gaussian/g16-AVX2-C.01/g16/g16
 Input=charge-conf-669.com
 Output=charge-conf-669.log
 Initial command:
 /opt/software/Gaussian/g16-AVX2-C.01/g16/l1.exe "/mnt/gs18/scratch/users/kengmith/Gau-16824.inp" -scrdir="/mnt/gs18/scratch/users/kengmith/"
 Entering Link 1 = /opt/software/Gaussian/g16-AVX2-C.01/g16/l1.exe PID=     16834.
  
 Copyright (c) 1988-2019, Gaussian, Inc.  All Rights Reserved.
  
 This is part of the Gaussian(R) 16 program.  It is based on
 the Gaussian(R) 09 system (copyright 2009, Gaussian, Inc.),
 the Gaussian(R) 03 system (copyright 2003, Gaussian, Inc.),
 the Gaussian(R) 98 system (copyright 1998, Gaussian, Inc.),
 the Gaussian(R) 94 system (copyright 1995, Gaussian, Inc.),
 the Gaussian 92(TM) system (copyright 1992, Gaussian, Inc.),
 the Gaussian 90(TM) system (copyright 1990, Gaussian, Inc.),
 the Gaussian 88(TM) system (copyright 1988, Gaussian, Inc.),
 the Gaussian 86(TM) system (copyright 1986, Carnegie Mellon
 University), and the Gaussian 82(TM) system (copyright 1983,
 Carnegie Mellon University). Gaussian is a federally registered
 trademark of Gaussian, Inc.
  
 This software contains proprietary and confidential information,
 including trade secrets, belonging to Gaussian, Inc.
  
 This software is provided under written license and may be
 used, copied, transmitted, or stored only in accord with that
 written license.
  
 The following legend is applicable only to US Government
 contracts under FAR:
  
                    RESTRICTED RIGHTS LEGEND
  
 Use, reproduction and disclosure by the US Government is
 subject to restrictions as set forth in subparagraphs (a)
 and (c) of the Commercial Computer Software - Restricted
 Rights clause in FAR 52.227-19.
  
 Gaussian, Inc.
 340 Quinnipiac St., Bldg. 40, Wallingford CT 06492
  
  
 ---------------------------------------------------------------
 Warning -- This program may not be used in any manner that
 competes with the business of Gaussian, Inc. or will provide
 assistance to any competitor of Gaussian, Inc.  The licensee
 of this program is prohibited from giving any competitor of
 Gaussian, Inc. access to this program.  By using this program,
 the user acknowledges that Gaussian, Inc. is engaged in the
 business of creating and licensing software in the field of
 computational chemistry and represents and warrants to the
 licensee that it is not a competitor of Gaussian, Inc. and that
 it will not use this program in any manner prohibited above.
 ---------------------------------------------------------------
  

 Cite this work as:
 Gaussian 16, Revision C.01,
 M. J. Frisch, G. W. Trucks, H. B. Schlegel, G. E. Scuseria, 
 M. A. Robb, J. R. Cheeseman, G. Scalmani, V. Barone, 
 G. A. Petersson, H. Nakatsuji, X. Li, M. Caricato, A. V. Marenich, 
 J. Bloino, B. G. Janesko, R. Gomperts, B. Mennucci, H. P. Hratchian, 
 J. V. Ortiz, A. F. Izmaylov, J. L. Sonnenberg, D. Williams-Young, 
 F. Ding, F. Lipparini, F. Egidi, J. Goings, B. Peng, A. Petrone, 
 T. Henderson, D. Ranasinghe, V. G. Zakrzewski, J. Gao, N. Rega, 
 G. Zheng, W. Liang, M. Hada, M. Ehara, K. Toyota, R. Fukuda, 
 J. Hasegawa, M. Ishida, T. Nakajima, Y. Honda, O. Kitao, H. Nakai, 
 T. Vreven, K. Throssell, J. A. Montgomery, Jr., J. E. Peralta, 
 F. Ogliaro, M. J. Bearpark, J. J. Heyd, E. N. Brothers, K. N. Kudin, 
 V. N. Staroverov, T. A. Keith, R. Kobayashi, J. Normand, 
 K. Raghavachari, A. P. Rendell, J. C. Burant, S. S. Iyengar, 
 J. Tomasi, M. Cossi, J. M. Millam, M. Klene, C. Adamo, R. Cammi, 
 J. W. Ochterski, R. L. Martin, K. Morokuma, O. Farkas, 
 J. B. Foresman, and D. J. Fox, Gaussian, Inc., Wallingford CT, 2019.
 
 ******************************************
 Gaussian 16:  ES64L-G16RevC.01  3-Jul-2019
                31-May-2022 
 ******************************************
 %mem=8gb
 %nproc=4
 Will use up to    4 processors via shared memory.
 %chk=conf-669.chk
 ----------------------------------------------------------------------
 # B3LYP/6-31G* empiricaldispersion=gd3 guess=read geom=check nosymm in
 tegral(ultrafinegrid)
 ----------------------------------------------------------------------
 1/29=2,38=1,172=1/1;
 2/12=2,15=1,40=1/2;
 3/5=1,6=6,7=1,11=2,14=-4,25=1,30=1,74=-5,75=-5,116=-2,124=31/1,2,3;
 4/5=1/1;
 5/5=2,38=6/2;
 6/7=2,8=2,9=2,10=2,28=1/1;
 99/5=1,9=1/99;
 ------------------------------------------------------
 Candidate Structure: Conf:669 Charge calc in gas phase
 ------------------------------------------------------
 Structure from the checkpoint file:  "conf-669.chk"
 Charge =  1 Multiplicity = 1
 Redundant internal coordinates found in file.  (old form).
 N,0,30.2430215676,-30.7689151935,43.0614327614
 C,0,30.5673450545,-29.9435691513,41.8284537479
 C,0,31.8370418197,-29.181181572,42.2859356928
 O,0,31.8996205604,-28.853323739,43.4726763734
 C,0,30.5796869758,-30.8183627197,40.5505813722
 C,0,31.6864455157,-31.8360115602,40.4905157107
 C,0,32.8840430043,-31.5730663023,39.7812774361
 C,0,31.6405242074,-33.0357448231,41.2168761051
 C,0,34.0148734289,-32.3531469116,39.9155691118
 C,0,32.7681632023,-33.8375704775,41.3966260277
 C,0,34.0557208215,-33.508743282,40.7993384677
 O,0,35.1110177935,-34.1399243225,41.0474452655
 H,0,30.961879461,-31.5095262852,43.2237797178
 H,0,29.7641931396,-29.1995075052,41.7610124732
 H,0,29.5851110933,-31.2837601634,40.4786058025
 H,0,30.6332195152,-30.1230698607,39.7023707754
 H,0,32.9039522321,-30.7372116261,39.0754091828
 H,0,30.7030462386,-33.3432562517,41.6862491385
 H,0,34.9120185143,-32.1461791998,39.3386303594
 H,0,32.6933740424,-34.788536853,41.9192932996
 H,0,30.325759421,-30.1405529895,43.8767823016
 H,0,29.3132676781,-31.1938541466,43.0167548706
 N,0,32.8116851975,-28.9034733874,41.3974101619
 C,0,34.0583723293,-28.2942298793,41.8691954671
 C,0,34.7994550242,-29.2001720377,42.8678833187
 O,0,35.6097998624,-28.6795006812,43.6525109293
 C,0,34.9544332509,-27.8302226657,40.6891055132
 C,0,35.6928900236,-28.9912702664,40.0077166892
 C,0,35.9400057905,-26.7456791626,41.1467724549
 H,0,32.7976426261,-29.3408557723,40.4860480708
 H,0,33.7828710904,-27.422464795,42.4692822751
 H,0,34.2657772831,-27.376482027,39.9629597622
 H,0,35.0257366942,-29.8015491653,39.7028384983
 H,0,36.2158149654,-28.6338210204,39.1155597279
 H,0,36.4453553116,-29.4239596925,40.6790194794
 H,0,35.4166921564,-25.8804308789,41.5677658752
 H,0,36.5373577255,-26.4008451784,40.2967976418
 H,0,36.6200751841,-27.1322120964,41.9117396692
 N,0,34.549443046,-30.5287592167,42.8477416707
 C,0,34.7712215261,-31.3850157714,44.022475087
 C,0,33.3901055864,-31.6275407295,44.6580316306
 O,0,33.0678258376,-31.1770300999,45.7256969596
 C,0,35.5675103302,-32.6667059609,43.7197678832
 C,0,36.8803107966,-32.4445668997,42.9520809075
 C,0,38.0487263607,-31.893721999,43.7764832847
 N,0,37.7818905439,-30.5227011742,44.2503757702
 C,0,38.0288267022,-30.039161103,45.466508078
 N,0,38.9302150724,-30.6252750577,46.2757762715
 N,0,37.3465007754,-28.9674509074,45.8963257137
 O,0,32.4845551025,-32.3105767951,43.9017511242
 H,0,32.8464558782,-32.788875603,43.1007409279
 H,0,38.9872416624,-30.3840690516,47.2542676162
 H,0,34.0194414351,-30.9162669929,42.069688445
 H,0,35.2913867311,-30.7713536811,44.7534771019
 H,0,34.9818102001,-33.3614073922,43.1131608652
 H,0,35.7608648591,-33.1657060263,44.6787982858
 H,0,36.6970193781,-31.8025051923,42.0819311905
 H,0,37.1845821238,-33.4062522826,42.5298156159
 H,0,38.9665151905,-31.8956615229,43.1770885007
 H,0,38.213498233,-32.5308630508,44.6526999639
 H,0,37.1615562364,-29.9379617177,43.6902178918
 H,0,39.6008349492,-31.2879128724,45.9167598655
 H,0,37.6939516276,-28.3980634288,46.6540874403
 H,0,36.5891205227,-28.6086427192,45.3151439805
 Recover connectivity data from disk.
                           ----------------------------
                           !    Current Parameters    !
                           ! (Angstroms and Degrees)  !
 --------------------------                            --------------------------
 ! Name  Definition              Value                                          !
 --------------------------------------------------------------------------------
 ! R1    R(1,2)                  1.5188                                         !
 ! R2    R(1,13)                 1.0448                                         !
 ! R3    R(1,21)                 1.0327                                         !
 ! R4    R(1,22)                 1.0232                                         !
 ! R5    R(2,3)                  1.55                                           !
 ! R6    R(2,5)                  1.5487                                         !
 ! R7    R(2,14)                 1.0969                                         !
 ! R8    R(3,4)                  1.2328                                         !
 ! R9    R(3,23)                 1.3478                                         !
 ! R10   R(5,6)                  1.5047                                         !
 ! R11   R(5,15)                 1.1004                                         !
 ! R12   R(5,16)                 1.0981                                         !
 ! R13   R(6,7)                  1.4165                                         !
 ! R14   R(6,8)                  1.4032                                         !
 ! R15   R(7,9)                  1.3803                                         !
 ! R16   R(7,17)                 1.0942                                         !
 ! R17   R(8,10)                 1.3953                                         !
 ! R18   R(8,18)                 1.0926                                         !
 ! R19   R(9,11)                 1.4554                                         !
 ! R20   R(9,19)                 1.0865                                         !
 ! R21   R(10,11)                1.4569                                         !
 ! R22   R(10,20)                1.0877                                         !
 ! R23   R(11,12)                1.2544                                         !
 ! R24   R(23,24)                1.4656                                         !
 ! R25   R(23,30)                1.011                                          !
 ! R26   R(24,25)                1.5386                                         !
 ! R27   R(24,27)                1.5527                                         !
 ! R28   R(24,31)                1.0936                                         !
 ! R29   R(25,26)                1.2423                                         !
 ! R30   R(25,39)                1.3521                                         !
 ! R31   R(27,28)                1.5355                                         !
 ! R32   R(27,29)                1.5353                                         !
 ! R33   R(27,32)                1.0988                                         !
 ! R34   R(28,33)                1.093                                          !
 ! R35   R(28,34)                1.0942                                         !
 ! R36   R(28,35)                1.0973                                         !
 ! R37   R(29,36)                1.0953                                         !
 ! R38   R(29,37)                1.0946                                         !
 ! R39   R(29,38)                1.0941                                         !
 ! R40   R(39,40)                1.4705                                         !
 ! R41   R(39,53)                1.0181                                         !
 ! R42   R(40,41)                1.5396                                         !
 ! R43   R(40,43)                1.539                                          !
 ! R44   R(40,54)                1.087                                          !
 ! R45   R(41,42)                1.2028                                         !
 ! R46   R(41,50)                1.3633                                         !
 ! R47   R(43,44)                1.5369                                         !
 ! R48   R(43,55)                1.0925                                         !
 ! R49   R(43,56)                1.0982                                         !
 ! R50   R(44,45)                1.5324                                         !
 ! R51   R(44,57)                1.0968                                         !
 ! R52   R(44,58)                1.0935                                         !
 ! R53   R(45,46)                1.4749                                         !
 ! R54   R(45,59)                1.0962                                         !
 ! R55   R(45,60)                1.0958                                         !
 ! R56   R(46,47)                1.3318                                         !
 ! R57   R(46,61)                1.0201                                         !
 ! R58   R(47,48)                1.3457                                         !
 ! R59   R(47,49)                1.3412                                         !
 ! R60   R(48,52)                1.0094                                         !
 ! R61   R(48,62)                1.0088                                         !
 ! R62   R(49,63)                1.0095                                         !
 ! R63   R(49,64)                1.0199                                         !
 ! R64   R(50,51)                1.0007                                         !
 ! A1    A(2,1,13)             111.3729                                         !
 ! A2    A(2,1,21)             107.0495                                         !
 ! A3    A(2,1,22)             112.5985                                         !
 ! A4    A(13,1,21)            104.685                                          !
 ! A5    A(13,1,22)            109.7294                                         !
 ! A6    A(21,1,22)            111.0977                                         !
 ! A7    A(1,2,3)              101.6893                                         !
 ! A8    A(1,2,5)              111.3837                                         !
 ! A9    A(1,2,14)             105.1995                                         !
 ! A10   A(3,2,5)              120.9863                                         !
 ! A11   A(3,2,14)             106.5156                                         !
 ! A12   A(5,2,14)             109.7712                                         !
 ! A13   A(2,3,4)              117.1617                                         !
 ! A14   A(2,3,23)             119.9421                                         !
 ! A15   A(4,3,23)             122.8962                                         !
 ! A16   A(2,5,6)              114.8868                                         !
 ! A17   A(2,5,15)             106.5984                                         !
 ! A18   A(2,5,16)             106.2663                                         !
 ! A19   A(6,5,15)             112.0947                                         !
 ! A20   A(6,5,16)             111.195                                          !
 ! A21   A(15,5,16)            105.149                                          !
 ! A22   A(5,6,7)              121.0856                                         !
 ! A23   A(5,6,8)              122.2421                                         !
 ! A24   A(7,6,8)              116.4594                                         !
 ! A25   A(6,7,9)              122.6175                                         !
 ! A26   A(6,7,17)             118.6978                                         !
 ! A27   A(9,7,17)             118.6563                                         !
 ! A28   A(6,8,10)             122.1114                                         !
 ! A29   A(6,8,18)             119.4123                                         !
 ! A30   A(10,8,18)            118.4481                                         !
 ! A31   A(7,9,11)             122.0596                                         !
 ! A32   A(7,9,19)             121.1401                                         !
 ! A33   A(11,9,19)            116.7766                                         !
 ! A34   A(8,10,11)            122.1208                                         !
 ! A35   A(8,10,20)            120.5813                                         !
 ! A36   A(11,10,20)           117.0702                                         !
 ! A37   A(9,11,10)            113.7877                                         !
 ! A38   A(9,11,12)            122.9041                                         !
 ! A39   A(10,11,12)           123.285                                          !
 ! A40   A(3,23,24)            119.2464                                         !
 ! A41   A(3,23,30)            119.6764                                         !
 ! A42   A(24,23,30)           118.8059                                         !
 ! A43   A(23,24,25)           111.956                                          !
 ! A44   A(23,24,27)           111.7447                                         !
 ! A45   A(23,24,31)           107.0805                                         !
 ! A46   A(25,24,27)           113.0365                                         !
 ! A47   A(25,24,31)           103.5643                                         !
 ! A48   A(27,24,31)           108.9176                                         !
 ! A49   A(24,25,26)           118.5123                                         !
 ! A50   A(24,25,39)           118.6757                                         !
 ! A51   A(26,25,39)           122.81                                           !
 ! A52   A(24,27,28)           112.8833                                         !
 ! A53   A(24,27,29)           110.7943                                         !
 ! A54   A(24,27,32)           105.3061                                         !
 ! A55   A(28,27,29)           110.9598                                         !
 ! A56   A(28,27,32)           108.6868                                         !
 ! A57   A(29,27,32)           107.9159                                         !
 ! A58   A(27,28,33)           113.0043                                         !
 ! A59   A(27,28,34)           110.1614                                         !
 ! A60   A(27,28,35)           110.8841                                         !
 ! A61   A(33,28,34)           107.8468                                         !
 ! A62   A(33,28,35)           107.2713                                         !
 ! A63   A(34,28,35)           107.4529                                         !
 ! A64   A(27,29,36)           111.4631                                         !
 ! A65   A(27,29,37)           109.9615                                         !
 ! A66   A(27,29,38)           110.9699                                         !
 ! A67   A(36,29,37)           108.0787                                         !
 ! A68   A(36,29,38)           107.8975                                         !
 ! A69   A(37,29,38)           108.3606                                         !
 ! A70   A(25,39,40)           122.1674                                         !
 ! A71   A(25,39,53)           118.7952                                         !
 ! A72   A(40,39,53)           117.8667                                         !
 ! A73   A(39,40,41)           106.6316                                         !
 ! A74   A(39,40,43)           113.9443                                         !
 ! A75   A(39,40,54)           106.301                                          !
 ! A76   A(41,40,43)           114.4672                                         !
 ! A77   A(41,40,54)           103.9223                                         !
 ! A78   A(43,40,54)           110.7843                                         !
 ! A79   A(40,41,42)           123.2163                                         !
 ! A80   A(40,41,50)           116.4746                                         !
 ! A81   A(42,41,50)           120.1394                                         !
 ! A82   A(40,43,44)           114.8244                                         !
 ! A83   A(40,43,55)           111.1855                                         !
 ! A84   A(40,43,56)           107.3218                                         !
 ! A85   A(44,43,55)           105.8123                                         !
 ! A86   A(44,43,56)           110.5772                                         !
 ! A87   A(55,43,56)           106.8773                                         !
 ! A88   A(43,44,45)           115.7548                                         !
 ! A89   A(43,44,57)           109.7634                                         !
 ! A90   A(43,44,58)           107.6651                                         !
 ! A91   A(45,44,57)           110.1083                                         !
 ! A92   A(45,44,58)           108.1629                                         !
 ! A93   A(57,44,58)           104.7717                                         !
 ! A94   A(44,45,46)           111.6567                                         !
 ! A95   A(44,45,59)           110.0953                                         !
 ! A96   A(44,45,60)           109.6217                                         !
 ! A97   A(46,45,59)           109.1959                                         !
 ! A98   A(46,45,60)           108.1045                                         !
 ! A99   A(59,45,60)           108.0771                                         !
 ! A100  A(45,46,47)           126.6784                                         !
 ! A101  A(45,46,61)           117.803                                          !
 ! A102  A(47,46,61)           113.9583                                         !
 ! A103  A(46,47,48)           121.0101                                         !
 ! A104  A(46,47,49)           119.2363                                         !
 ! A105  A(48,47,49)           119.74                                           !
 ! A106  A(47,48,52)           121.1125                                         !
 ! A107  A(47,48,62)           121.154                                          !
 ! A108  A(52,48,62)           117.6706                                         !
 ! A109  A(47,49,63)           121.0735                                         !
 ! A110  A(47,49,64)           118.4439                                         !
 ! A111  A(63,49,64)           119.0063                                         !
 ! A112  A(41,50,51)           116.3153                                         !
 ! D1    D(13,1,2,3)           -68.4716                                         !
 ! D2    D(13,1,2,5)            61.7404                                         !
 ! D3    D(13,1,2,14)         -179.3895                                         !
 ! D4    D(21,1,2,3)            45.4043                                         !
 ! D5    D(21,1,2,5)           175.6164                                         !
 ! D6    D(21,1,2,14)          -65.5136                                         !
 ! D7    D(22,1,2,3)           167.7799                                         !
 ! D8    D(22,1,2,5)           -62.0081                                         !
 ! D9    D(22,1,2,14)           56.8619                                         !
 ! D10   D(1,2,3,4)            -34.4302                                         !
 ! D11   D(1,2,3,23)           145.6377                                         !
 ! D12   D(5,2,3,4)           -158.3867                                         !
 ! D13   D(5,2,3,23)            21.6813                                         !
 ! D14   D(14,2,3,4)            75.4833                                         !
 ! D15   D(14,2,3,23)         -104.4487                                         !
 ! D16   D(1,2,5,6)            -66.8934                                         !
 ! D17   D(1,2,5,15)            57.9233                                         !
 ! D18   D(1,2,5,16)           169.7031                                         !
 ! D19   D(3,2,5,6)             52.3784                                         !
 ! D20   D(3,2,5,15)           177.1952                                         !
 ! D21   D(3,2,5,16)           -71.0251                                         !
 ! D22   D(14,2,5,6)           177.0057                                         !
 ! D23   D(14,2,5,15)          -58.1775                                         !
 ! D24   D(14,2,5,16)           53.6022                                         !
 ! D25   D(2,3,23,24)         -174.3446                                         !
 ! D26   D(2,3,23,30)          -11.6581                                         !
 ! D27   D(4,3,23,24)            5.7275                                         !
 ! D28   D(4,3,23,30)          168.4139                                         !
 ! D29   D(2,5,6,7)            -97.2286                                         !
 ! D30   D(2,5,6,8)             77.2798                                         !
 ! D31   D(15,5,6,7)           140.8885                                         !
 ! D32   D(15,5,6,8)           -44.603                                          !
 ! D33   D(16,5,6,7)            23.5064                                         !
 ! D34   D(16,5,6,8)          -161.9851                                         !
 ! D35   D(5,6,7,9)            166.9116                                         !
 ! D36   D(5,6,7,17)           -15.0537                                         !
 ! D37   D(8,6,7,9)             -7.9011                                         !
 ! D38   D(8,6,7,17)           170.1337                                         !
 ! D39   D(5,6,8,10)          -165.7512                                         !
 ! D40   D(5,6,8,18)            12.2868                                         !
 ! D41   D(7,6,8,10)             8.9963                                         !
 ! D42   D(7,6,8,18)          -172.9657                                         !
 ! D43   D(6,7,9,11)             0.0872                                         !
 ! D44   D(6,7,9,19)           178.2571                                         !
 ! D45   D(17,7,9,11)         -177.9483                                         !
 ! D46   D(17,7,9,19)            0.2215                                         !
 ! D47   D(6,8,10,11)           -2.4021                                         !
 ! D48   D(6,8,10,20)         -176.7572                                         !
 ! D49   D(18,8,10,11)         179.5417                                         !
 ! D50   D(18,8,10,20)           5.1866                                         !
 ! D51   D(7,9,11,10)            6.4042                                         !
 ! D52   D(7,9,11,12)         -171.897                                          !
 ! D53   D(19,9,11,10)        -171.8412                                         !
 ! D54   D(19,9,11,12)           9.8576                                         !
 ! D55   D(8,10,11,9)           -5.2922                                         !
 ! D56   D(8,10,11,12)         173.0016                                         !
 ! D57   D(20,10,11,9)         169.2507                                         !
 ! D58   D(20,10,11,12)        -12.4555                                         !
 ! D59   D(3,23,24,25)          61.7047                                         !
 ! D60   D(3,23,24,27)        -170.3411                                         !
 ! D61   D(3,23,24,31)         -51.1512                                         !
 ! D62   D(30,23,24,25)       -101.133                                          !
 ! D63   D(30,23,24,27)         26.8212                                         !
 ! D64   D(30,23,24,31)        146.0111                                         !
 ! D65   D(23,24,25,26)       -157.6753                                         !
 ! D66   D(23,24,25,39)         22.828                                          !
 ! D67   D(27,24,25,26)         75.0614                                         !
 ! D68   D(27,24,25,39)       -104.4353                                         !
 ! D69   D(31,24,25,26)        -42.6491                                         !
 ! D70   D(31,24,25,39)        137.8542                                         !
 ! D71   D(23,24,27,28)        -77.0245                                         !
 ! D72   D(23,24,27,29)        157.8333                                         !
 ! D73   D(23,24,27,32)         41.4043                                         !
 ! D74   D(25,24,27,28)         50.3499                                         !
 ! D75   D(25,24,27,29)        -74.7923                                         !
 ! D76   D(25,24,27,32)        168.7788                                         !
 ! D77   D(31,24,27,28)        164.8784                                         !
 ! D78   D(31,24,27,29)         39.7362                                         !
 ! D79   D(31,24,27,32)        -76.6927                                         !
 ! D80   D(24,25,39,40)       -156.0185                                         !
 ! D81   D(24,25,39,53)         11.3466                                         !
 ! D82   D(26,25,39,40)         24.5077                                         !
 ! D83   D(26,25,39,53)       -168.1272                                         !
 ! D84   D(24,27,28,33)         52.7109                                         !
 ! D85   D(24,27,28,34)        173.4126                                         !
 ! D86   D(24,27,28,35)        -67.7678                                         !
 ! D87   D(29,27,28,33)        177.7633                                         !
 ! D88   D(29,27,28,34)        -61.535                                          !
 ! D89   D(29,27,28,35)         57.2846                                         !
 ! D90   D(32,27,28,33)        -63.727                                          !
 ! D91   D(32,27,28,34)         56.9748                                         !
 ! D92   D(32,27,28,35)        175.7944                                         !
 ! D93   D(24,27,29,36)        -57.9512                                         !
 ! D94   D(24,27,29,37)       -177.79                                           !
 ! D95   D(24,27,29,38)         62.3352                                         !
 ! D96   D(28,27,29,36)        175.8286                                         !
 ! D97   D(28,27,29,37)         55.9897                                         !
 ! D98   D(28,27,29,38)        -63.885                                          !
 ! D99   D(32,27,29,36)         56.8539                                         !
 ! D100  D(32,27,29,37)        -62.985                                          !
 ! D101  D(32,27,29,38)        177.1403                                         !
 ! D102  D(25,39,40,41)        101.5319                                         !
 ! D103  D(25,39,40,43)       -131.1956                                         !
 ! D104  D(25,39,40,54)         -8.8932                                         !
 ! D105  D(53,39,40,41)        -65.9449                                         !
 ! D106  D(53,39,40,43)         61.3276                                         !
 ! D107  D(53,39,40,54)       -176.37                                           !
 ! D108  D(39,40,41,42)       -111.5019                                         !
 ! D109  D(39,40,41,50)         63.7601                                         !
 ! D110  D(43,40,41,42)        121.5362                                         !
 ! D111  D(43,40,41,50)        -63.2018                                         !
 ! D112  D(54,40,41,42)          0.575                                          !
 ! D113  D(54,40,41,50)        175.837                                          !
 ! D114  D(39,40,43,44)         50.7558                                         !
 ! D115  D(39,40,43,55)        -69.3288                                         !
 ! D116  D(39,40,43,56)        174.1173                                         !
 ! D117  D(41,40,43,44)        173.8578                                         !
 ! D118  D(41,40,43,55)         53.7731                                         !
 ! D119  D(41,40,43,56)        -62.7807                                         !
 ! D120  D(54,40,43,44)        -69.0481                                         !
 ! D121  D(54,40,43,55)        170.8672                                         !
 ! D122  D(54,40,43,56)         54.3134                                         !
 ! D123  D(40,41,50,51)         14.3838                                         !
 ! D124  D(42,41,50,51)       -170.1993                                         !
 ! D125  D(40,43,44,45)         76.3361                                         !
 ! D126  D(40,43,44,57)        -49.0406                                         !
 ! D127  D(40,43,44,58)       -162.5413                                         !
 ! D128  D(55,43,44,45)       -160.6498                                         !
 ! D129  D(55,43,44,57)         73.9735                                         !
 ! D130  D(55,43,44,58)        -39.5271                                         !
 ! D131  D(56,43,44,45)        -45.2696                                         !
 ! D132  D(56,43,44,57)       -170.6462                                         !
 ! D133  D(56,43,44,58)         75.8531                                         !
 ! D134  D(43,44,45,46)        -65.9589                                         !
 ! D135  D(43,44,45,59)        172.5763                                         !
 ! D136  D(43,44,45,60)         53.8117                                         !
 ! D137  D(57,44,45,46)         59.2411                                         !
 ! D138  D(57,44,45,59)        -62.2238                                         !
 ! D139  D(57,44,45,60)        179.0116                                         !
 ! D140  D(58,44,45,46)        173.1864                                         !
 ! D141  D(58,44,45,59)         51.7215                                         !
 ! D142  D(58,44,45,60)        -67.0431                                         !
 ! D143  D(44,45,46,47)        136.7238                                         !
 ! D144  D(44,45,46,61)        -28.1029                                         !
 ! D145  D(59,45,46,47)       -101.292                                          !
 ! D146  D(59,45,46,61)         93.8814                                         !
 ! D147  D(60,45,46,47)         16.0632                                         !
 ! D148  D(60,45,46,61)       -148.7635                                         !
 ! D149  D(45,46,47,48)         21.2708                                         !
 ! D150  D(45,46,47,49)       -157.3823                                         !
 ! D151  D(61,46,47,48)       -173.4052                                         !
 ! D152  D(61,46,47,49)          7.9417                                         !
 ! D153  D(46,47,48,52)       -167.429                                          !
 ! D154  D(46,47,48,62)         15.5228                                         !
 ! D155  D(49,47,48,52)         11.2174                                         !
 ! D156  D(49,47,48,62)       -165.8309                                         !
 ! D157  D(46,47,49,63)       -159.9079                                         !
 ! D158  D(46,47,49,64)          6.0918                                         !
 ! D159  D(48,47,49,63)         21.4216                                         !
 ! D160  D(48,47,49,64)       -172.5787                                         !
 --------------------------------------------------------------------------------
 Symmetry turned off by external request.
 Stoichiometry    C20H33N6O5(1+)
 Framework group  C1[X(C20H33N6O5)]
 Deg. of freedom   186
 Full point group                 C1      NOp   1
                          Input orientation:                          
 ---------------------------------------------------------------------
 Center     Atomic      Atomic             Coordinates (Angstroms)
 Number     Number       Type             X           Y           Z
 ---------------------------------------------------------------------
      1          7           0       30.243022  -30.768915   43.061433
      2          6           0       30.567345  -29.943569   41.828454
      3          6           0       31.837042  -29.181182   42.285936
      4          8           0       31.899621  -28.853324   43.472676
      5          6           0       30.579687  -30.818363   40.550581
      6          6           0       31.686446  -31.836012   40.490516
      7          6           0       32.884043  -31.573066   39.781277
      8          6           0       31.640524  -33.035745   41.216876
      9          6           0       34.014873  -32.353147   39.915569
     10          6           0       32.768163  -33.837570   41.396626
     11          6           0       34.055721  -33.508743   40.799338
     12          8           0       35.111018  -34.139924   41.047445
     13          1           0       30.961879  -31.509526   43.223780
     14          1           0       29.764193  -29.199508   41.761012
     15          1           0       29.585111  -31.283760   40.478606
     16          1           0       30.633220  -30.123070   39.702371
     17          1           0       32.903952  -30.737212   39.075409
     18          1           0       30.703046  -33.343256   41.686249
     19          1           0       34.912019  -32.146179   39.338630
     20          1           0       32.693374  -34.788537   41.919293
     21          1           0       30.325759  -30.140553   43.876782
     22          1           0       29.313268  -31.193854   43.016755
     23          7           0       32.811685  -28.903473   41.397410
     24          6           0       34.058372  -28.294230   41.869195
     25          6           0       34.799455  -29.200172   42.867883
     26          8           0       35.609800  -28.679501   43.652511
     27          6           0       34.954433  -27.830223   40.689106
     28          6           0       35.692890  -28.991270   40.007717
     29          6           0       35.940006  -26.745679   41.146772
     30          1           0       32.797643  -29.340856   40.486048
     31          1           0       33.782871  -27.422465   42.469282
     32          1           0       34.265777  -27.376482   39.962960
     33          1           0       35.025737  -29.801549   39.702838
     34          1           0       36.215815  -28.633821   39.115560
     35          1           0       36.445355  -29.423960   40.679019
     36          1           0       35.416692  -25.880431   41.567766
     37          1           0       36.537358  -26.400845   40.296798
     38          1           0       36.620075  -27.132212   41.911740
     39          7           0       34.549443  -30.528759   42.847742
     40          6           0       34.771222  -31.385016   44.022475
     41          6           0       33.390106  -31.627541   44.658032
     42          8           0       33.067826  -31.177030   45.725697
     43          6           0       35.567510  -32.666706   43.719768
     44          6           0       36.880311  -32.444567   42.952081
     45          6           0       38.048726  -31.893722   43.776483
     46          7           0       37.781891  -30.522701   44.250376
     47          6           0       38.028827  -30.039161   45.466508
     48          7           0       38.930215  -30.625275   46.275776
     49          7           0       37.346501  -28.967451   45.896326
     50          8           0       32.484555  -32.310577   43.901751
     51          1           0       32.846456  -32.788876   43.100741
     52          1           0       38.987242  -30.384069   47.254268
     53          1           0       34.019441  -30.916267   42.069688
     54          1           0       35.291387  -30.771354   44.753477
     55          1           0       34.981810  -33.361407   43.113161
     56          1           0       35.760865  -33.165706   44.678798
     57          1           0       36.697019  -31.802505   42.081931
     58          1           0       37.184582  -33.406252   42.529816
     59          1           0       38.966515  -31.895662   43.177089
     60          1           0       38.213498  -32.530863   44.652700
     61          1           0       37.161556  -29.937962   43.690218
     62          1           0       39.600835  -31.287913   45.916760
     63          1           0       37.693952  -28.398063   46.654087
     64          1           0       36.589121  -28.608643   45.315144
 ---------------------------------------------------------------------
 Rotational constants (GHZ):           0.2007878           0.1241215           0.1121973
 Standard basis: 6-31G(d) (6D, 7F)
   531 basis functions,  1000 primitive gaussians,   531 cartesian basis functions
   117 alpha electrons      117 beta electrons
       nuclear repulsion energy      3626.0631907428 Hartrees.
 NAtoms=   64 NActive=   64 NUniq=   64 SFac= 1.00D+00 NAtFMM=   60 NAOKFM=T Big=T
 Integral buffers will be    131072 words long.
 Raffenetti 2 integral format.
 Two-electron integral symmetry is turned off.
 Nuclear repulsion after empirical dispersion term =     3625.9608130473 Hartrees.
 One-electron integrals computed using PRISM.
 NBasis=   531 RedAO= T EigKep=  4.90D-04  NBF=   531
 NBsUse=   531 1.00D-06 EigRej= -1.00D+00 NBFU=   531
 Initial guess from the checkpoint file:  "conf-669.chk"
 B after Tr=     0.000000    0.000000    0.000000
         Rot=    1.000000    0.000000    0.000000    0.000000 Ang=   0.00 deg.
 Requested convergence on RMS density matrix=1.00D-08 within 128 cycles.
 Requested convergence on MAX density matrix=1.00D-06.
 Requested convergence on             energy=1.00D-06.
 No special actions if energy rises.
 SCF Done:  E(RB3LYP) =  -1486.54087924     A.U. after    1 cycles
            NFock=  1  Conv=0.79D-08     -V/T= 2.0094

 **********************************************************************

            Population analysis using the SCF Density.

 **********************************************************************

 Alpha  occ. eigenvalues --  -19.29663 -19.25465 -19.25225 -19.24048 -19.13572
 Alpha  occ. eigenvalues --  -14.57684 -14.51762 -14.50532 -14.50299 -14.49488
 Alpha  occ. eigenvalues --  -14.48625 -10.47400 -10.42812 -10.42326 -10.42047
 Alpha  occ. eigenvalues --  -10.39166 -10.35290 -10.35039 -10.35036 -10.32027
 Alpha  occ. eigenvalues --  -10.30858 -10.29759 -10.29122 -10.28973 -10.27715
 Alpha  occ. eigenvalues --  -10.27647 -10.27587 -10.27004 -10.26867 -10.24712
 Alpha  occ. eigenvalues --  -10.24348  -1.20018  -1.18143  -1.16656  -1.15781
 Alpha  occ. eigenvalues --   -1.12336  -1.11748  -1.06416  -1.05163  -1.04570
 Alpha  occ. eigenvalues --   -1.03938  -1.03478  -0.93826  -0.92001  -0.90853
 Alpha  occ. eigenvalues --   -0.89323  -0.86879  -0.83211  -0.82227  -0.81231
 Alpha  occ. eigenvalues --   -0.79967  -0.78477  -0.77587  -0.75493  -0.73589
 Alpha  occ. eigenvalues --   -0.73303  -0.72637  -0.71821  -0.71537  -0.70951
 Alpha  occ. eigenvalues --   -0.69729  -0.69162  -0.68406  -0.67755  -0.66330
 Alpha  occ. eigenvalues --   -0.65104  -0.64697  -0.64515  -0.64000  -0.61836
 Alpha  occ. eigenvalues --   -0.60398  -0.60133  -0.59610  -0.58753  -0.57519
 Alpha  occ. eigenvalues --   -0.57296  -0.56560  -0.56173  -0.55416  -0.54692
 Alpha  occ. eigenvalues --   -0.54632  -0.54359  -0.53794  -0.53252  -0.52591
 Alpha  occ. eigenvalues --   -0.52363  -0.51931  -0.51366  -0.50873  -0.49606
 Alpha  occ. eigenvalues --   -0.49474  -0.49189  -0.48671  -0.48502  -0.47733
 Alpha  occ. eigenvalues --   -0.46974  -0.45964  -0.45783  -0.45198  -0.44667
 Alpha  occ. eigenvalues --   -0.44582  -0.44122  -0.43825  -0.42418  -0.42262
 Alpha  occ. eigenvalues --   -0.41866  -0.41654  -0.41068  -0.40359  -0.39581
 Alpha  occ. eigenvalues --   -0.39444  -0.37804  -0.37300  -0.36090  -0.33317
 Alpha  occ. eigenvalues --   -0.27317  -0.25288
 Alpha virt. eigenvalues --   -0.12868  -0.12233  -0.11502  -0.09108  -0.08648
 Alpha virt. eigenvalues --   -0.07697  -0.06976  -0.05867  -0.03511  -0.03293
 Alpha virt. eigenvalues --   -0.02634  -0.02121  -0.01539  -0.01159  -0.00096
 Alpha virt. eigenvalues --    0.00065   0.00815   0.01730   0.02183   0.02379
 Alpha virt. eigenvalues --    0.02888   0.03436   0.03813   0.04224   0.04827
 Alpha virt. eigenvalues --    0.04920   0.05388   0.05863   0.06272   0.06596
 Alpha virt. eigenvalues --    0.07021   0.07223   0.07463   0.07763   0.08213
 Alpha virt. eigenvalues --    0.08542   0.09095   0.09697   0.09905   0.10519
 Alpha virt. eigenvalues --    0.11137   0.11416   0.11792   0.12269   0.12406
 Alpha virt. eigenvalues --    0.12823   0.13057   0.13409   0.13928   0.14501
 Alpha virt. eigenvalues --    0.15219   0.16266   0.17156   0.18080   0.18975
 Alpha virt. eigenvalues --    0.19075   0.21516   0.22574   0.23298   0.24042
 Alpha virt. eigenvalues --    0.24592   0.25101   0.26036   0.26368   0.27308
 Alpha virt. eigenvalues --    0.28243   0.29792   0.31023   0.31641   0.36385
 Alpha virt. eigenvalues --    0.37151   0.37640   0.38832   0.38926   0.39631
 Alpha virt. eigenvalues --    0.39952   0.40148   0.40923   0.41033   0.41792
 Alpha virt. eigenvalues --    0.42402   0.43050   0.44113   0.44225   0.45138
 Alpha virt. eigenvalues --    0.45699   0.45901   0.46871   0.47112   0.47533
 Alpha virt. eigenvalues --    0.48419   0.48797   0.48959   0.50331   0.50920
 Alpha virt. eigenvalues --    0.51243   0.51713   0.51881   0.53026   0.53096
 Alpha virt. eigenvalues --    0.53567   0.54023   0.54653   0.54980   0.55382
 Alpha virt. eigenvalues --    0.56160   0.56727   0.57092   0.57880   0.58513
 Alpha virt. eigenvalues --    0.59006   0.60092   0.60393   0.60692   0.61022
 Alpha virt. eigenvalues --    0.61716   0.63148   0.63391   0.64166   0.64877
 Alpha virt. eigenvalues --    0.65837   0.66846   0.67462   0.67750   0.68032
 Alpha virt. eigenvalues --    0.69001   0.69276   0.69719   0.70065   0.70425
 Alpha virt. eigenvalues --    0.71315   0.71986   0.72304   0.72495   0.72845
 Alpha virt. eigenvalues --    0.72974   0.73698   0.74184   0.75098   0.75115
 Alpha virt. eigenvalues --    0.75587   0.76700   0.76930   0.77423   0.77956
 Alpha virt. eigenvalues --    0.78696   0.78929   0.79103   0.79851   0.80131
 Alpha virt. eigenvalues --    0.80621   0.81046   0.81476   0.81811   0.82107
 Alpha virt. eigenvalues --    0.82832   0.83405   0.84052   0.84525   0.84966
 Alpha virt. eigenvalues --    0.85021   0.85684   0.86686   0.87356   0.88247
 Alpha virt. eigenvalues --    0.88865   0.89278   0.90390   0.90595   0.91931
 Alpha virt. eigenvalues --    0.92642   0.93182   0.93458   0.94888   0.95621
 Alpha virt. eigenvalues --    0.96003   0.96840   0.97540   0.99027   0.99877
 Alpha virt. eigenvalues --    1.00158   1.01153   1.01859   1.02100   1.03148
 Alpha virt. eigenvalues --    1.03967   1.04240   1.05179   1.05672   1.07589
 Alpha virt. eigenvalues --    1.09045   1.09909   1.11993   1.12293   1.12713
 Alpha virt. eigenvalues --    1.13038   1.14226   1.15101   1.16632   1.17206
 Alpha virt. eigenvalues --    1.18399   1.18612   1.19629   1.19956   1.20714
 Alpha virt. eigenvalues --    1.21566   1.22395   1.23013   1.23843   1.24720
 Alpha virt. eigenvalues --    1.25814   1.28222   1.29035   1.29427   1.31457
 Alpha virt. eigenvalues --    1.32745   1.33569   1.34931   1.35945   1.37274
 Alpha virt. eigenvalues --    1.37890   1.38540   1.39012   1.39696   1.40872
 Alpha virt. eigenvalues --    1.41427   1.43298   1.44302   1.45410   1.46272
 Alpha virt. eigenvalues --    1.46976   1.48376   1.49017   1.50352   1.50922
 Alpha virt. eigenvalues --    1.52244   1.52623   1.52957   1.54261   1.55880
 Alpha virt. eigenvalues --    1.56286   1.57201   1.58408   1.59818   1.60811
 Alpha virt. eigenvalues --    1.63650   1.64361   1.65156   1.66166   1.66513
 Alpha virt. eigenvalues --    1.67558   1.68634   1.68803   1.68972   1.69854
 Alpha virt. eigenvalues --    1.70856   1.71034   1.71535   1.71567   1.72833
 Alpha virt. eigenvalues --    1.73505   1.74924   1.75740   1.76196   1.77009
 Alpha virt. eigenvalues --    1.77406   1.78654   1.79256   1.79510   1.80034
 Alpha virt. eigenvalues --    1.80854   1.81243   1.82292   1.83090   1.83645
 Alpha virt. eigenvalues --    1.84464   1.85055   1.86378   1.87094   1.87415
 Alpha virt. eigenvalues --    1.88249   1.88882   1.90010   1.90106   1.90569
 Alpha virt. eigenvalues --    1.91461   1.92073   1.92649   1.93262   1.94314
 Alpha virt. eigenvalues --    1.94850   1.95719   1.96376   1.96959   1.97484
 Alpha virt. eigenvalues --    1.98447   1.99022   1.99960   2.00470   2.01942
 Alpha virt. eigenvalues --    2.02273   2.03984   2.04970   2.05933   2.06795
 Alpha virt. eigenvalues --    2.06923   2.07349   2.08107   2.09454   2.11523
 Alpha virt. eigenvalues --    2.13093   2.13235   2.16195   2.16609   2.17315
 Alpha virt. eigenvalues --    2.17930   2.19563   2.19910   2.20399   2.20827
 Alpha virt. eigenvalues --    2.23001   2.24304   2.25088   2.25716   2.26342
 Alpha virt. eigenvalues --    2.27279   2.28197   2.28685   2.29583   2.30343
 Alpha virt. eigenvalues --    2.30889   2.32515   2.33959   2.34881   2.36382
 Alpha virt. eigenvalues --    2.36816   2.37089   2.39738   2.40129   2.42869
 Alpha virt. eigenvalues --    2.43163   2.43801   2.45546   2.45984   2.46537
 Alpha virt. eigenvalues --    2.48426   2.49651   2.50719   2.52242   2.53579
 Alpha virt. eigenvalues --    2.54350   2.55403   2.56036   2.56635   2.57337
 Alpha virt. eigenvalues --    2.58955   2.59454   2.60286   2.62163   2.63020
 Alpha virt. eigenvalues --    2.64802   2.66772   2.67984   2.68746   2.68871
 Alpha virt. eigenvalues --    2.70919   2.74118   2.78298   2.79971   2.82479
 Alpha virt. eigenvalues --    2.83544   2.85528   2.89503   2.90022   2.90430
 Alpha virt. eigenvalues --    2.94409   2.97520   2.98003   3.02062   3.03737
 Alpha virt. eigenvalues --    3.06056   3.09605   3.28823   3.66550   3.73381
 Alpha virt. eigenvalues --    3.74989   3.87818   3.92286   3.93776   3.97909
 Alpha virt. eigenvalues --    4.00364   4.03308   4.05699   4.06347   4.10224
 Alpha virt. eigenvalues --    4.12301   4.15887   4.17696   4.18807   4.20996
 Alpha virt. eigenvalues --    4.22504   4.25468   4.28659   4.30238   4.34753
 Alpha virt. eigenvalues --    4.38286   4.41557   4.45659   4.46648   4.49245
 Alpha virt. eigenvalues --    4.51124   4.59379   4.65565   4.77613
          Condensed to atoms (all electrons):
 Mulliken charges:
               1
     1  N   -0.763715
     2  C   -0.120538
     3  C    0.644923
     4  O   -0.524478
     5  C   -0.403581
     6  C    0.155069
     7  C   -0.241495
     8  C   -0.200790
     9  C   -0.228459
    10  C   -0.332953
    11  C    0.441494
    12  O   -0.620734
    13  H    0.454976
    14  H    0.218894
    15  H    0.173885
    16  H    0.182091
    17  H    0.126272
    18  H    0.108083
    19  H    0.136441
    20  H    0.151523
    21  H    0.425908
    22  H    0.403095
    23  N   -0.637412
    24  C   -0.024892
    25  C    0.643808
    26  O   -0.576653
    27  C   -0.120613
    28  C   -0.480195
    29  C   -0.449118
    30  H    0.353914
    31  H    0.211787
    32  H    0.158279
    33  H    0.157374
    34  H    0.178110
    35  H    0.148496
    36  H    0.159201
    37  H    0.166403
    38  H    0.159147
    39  N   -0.608198
    40  C   -0.092467
    41  C    0.621756
    42  O   -0.423197
    43  C   -0.312398
    44  C   -0.301841
    45  C   -0.159581
    46  N   -0.608717
    47  C    0.792969
    48  N   -0.759276
    49  N   -0.780285
    50  O   -0.651259
    51  H    0.427685
    52  H    0.380962
    53  H    0.367337
    54  H    0.178853
    55  H    0.217736
    56  H    0.155846
    57  H    0.170011
    58  H    0.217878
    59  H    0.189814
    60  H    0.168471
    61  H    0.390895
    62  H    0.386503
    63  H    0.369428
    64  H    0.427527
 Sum of Mulliken charges =   1.00000
 Mulliken charges with hydrogens summed into heavy atoms:
               1
     1  N    0.520263
     2  C    0.098356
     3  C    0.644923
     4  O   -0.524478
     5  C   -0.047605
     6  C    0.155069
     7  C   -0.115223
     8  C   -0.092707
     9  C   -0.092017
    10  C   -0.181430
    11  C    0.441494
    12  O   -0.620734
    23  N   -0.283497
    24  C    0.186895
    25  C    0.643808
    26  O   -0.576653
    27  C    0.037666
    28  C    0.003784
    29  C    0.035633
    39  N   -0.240861
    40  C    0.086386
    41  C    0.621756
    42  O   -0.423197
    43  C    0.061184
    44  C    0.086049
    45  C    0.198704
    46  N   -0.217822
    47  C    0.792969
    48  N    0.008190
    49  N    0.016670
    50  O   -0.223574
 Electronic spatial extent (au):  <R**2>=        3302247.5788
 Charge=              1.0000 electrons
 Dipole moment (field-independent basis, Debye):
    X=            167.0504    Y=           -140.6226    Z=            211.6813  Tot=            304.1209
 Quadrupole moment (field-independent basis, Debye-Ang):
   XX=           5738.8988   YY=           3920.9396   ZZ=           9168.9260
   XY=          -4888.5095   XZ=           7409.3075   YZ=          -6221.6067
 Traceless Quadrupole moment (field-independent basis, Debye-Ang):
   XX=           -537.3560   YY=          -2355.3152   ZZ=           2892.6712
   XY=          -4888.5095   XZ=           7409.3075   YZ=          -6221.6067
 Octapole moment (field-independent basis, Debye-Ang**2):
  XXX=         194760.8395  YYY=        -102392.1038  ZZZ=         390808.9843  XYY=         136331.5135
  XXY=        -167769.9758  XXZ=         256469.6517  XZZ=         323180.8229  YZZ=        -270207.6581
  YYZ=         174614.4309  XYZ=        -217709.5138
 Hexadecapole moment (field-independent basis, Debye-Ang**3):
 XXXX=        6522850.8815 YYYY=        2405637.6740 ZZZZ=       16394706.8927 XXXY=       -5684713.8839
 XXXZ=        8781738.8978 YYYX=       -3564330.9648 YYYZ=       -4611489.7028 ZZZX=       13883256.8287
 ZZZY=      -11536070.0866 XXYY=        4672128.0755 XXZZ=       11273057.8464 YYZZ=        7614181.4851
 XXYZ=       -7530407.4085 YYXZ=        6113938.8543 ZZXY=       -9523003.2851
 N-N= 3.625960813047D+03 E-N=-1.068768299864D+04  KE= 1.472711361132D+03
 Unable to Open any file for archive entry.
 1\1\GINC-LAC-311\SP\RB3LYP\6-31G(d)\C20H33N6O5(1+)\KENGMITH\31-May-202
 2\0\\# B3LYP/6-31G* empiricaldispersion=gd3 guess=read geom=check nosy
 mm integral(ultrafinegrid)\\Candidate Structure: Conf:669 Charge calc 
 in gas phase\\1,1\N,0,30.2430215676,-30.7689151935,43.0614327614\C,0,3
 0.5673450545,-29.9435691513,41.8284537479\C,0,31.8370418197,-29.181181
 572,42.2859356928\O,0,31.8996205604,-28.853323739,43.4726763734\C,0,30
 .5796869758,-30.8183627197,40.5505813722\C,0,31.6864455157,-31.8360115
 602,40.4905157107\C,0,32.8840430043,-31.5730663023,39.7812774361\C,0,3
 1.6405242074,-33.0357448231,41.2168761051\C,0,34.0148734289,-32.353146
 9116,39.9155691118\C,0,32.7681632023,-33.8375704775,41.3966260277\C,0,
 34.0557208215,-33.508743282,40.7993384677\O,0,35.1110177935,-34.139924
 3225,41.0474452655\H,0,30.961879461,-31.5095262852,43.2237797178\H,0,2
 9.7641931396,-29.1995075052,41.7610124732\H,0,29.5851110933,-31.283760
 1634,40.4786058025\H,0,30.6332195152,-30.1230698607,39.7023707754\H,0,
 32.9039522321,-30.7372116261,39.0754091828\H,0,30.7030462386,-33.34325
 62517,41.6862491385\H,0,34.9120185143,-32.1461791998,39.3386303594\H,0
 ,32.6933740424,-34.788536853,41.9192932996\H,0,30.325759421,-30.140552
 9895,43.8767823016\H,0,29.3132676781,-31.1938541466,43.0167548706\N,0,
 32.8116851975,-28.9034733874,41.3974101619\C,0,34.0583723293,-28.29422
 98793,41.8691954671\C,0,34.7994550242,-29.2001720377,42.8678833187\O,0
 ,35.6097998624,-28.6795006812,43.6525109293\C,0,34.9544332509,-27.8302
 226657,40.6891055132\C,0,35.6928900236,-28.9912702664,40.0077166892\C,
 0,35.9400057905,-26.7456791626,41.1467724549\H,0,32.7976426261,-29.340
 8557723,40.4860480708\H,0,33.7828710904,-27.422464795,42.4692822751\H,
 0,34.2657772831,-27.376482027,39.9629597622\H,0,35.0257366942,-29.8015
 491653,39.7028384983\H,0,36.2158149654,-28.6338210204,39.1155597279\H,
 0,36.4453553116,-29.4239596925,40.6790194794\H,0,35.4166921564,-25.880
 4308789,41.5677658752\H,0,36.5373577255,-26.4008451784,40.2967976418\H
 ,0,36.6200751841,-27.1322120964,41.9117396692\N,0,34.549443046,-30.528
 7592167,42.8477416707\C,0,34.7712215261,-31.3850157714,44.022475087\C,
 0,33.3901055864,-31.6275407295,44.6580316306\O,0,33.0678258376,-31.177
 0300999,45.7256969596\C,0,35.5675103302,-32.6667059609,43.7197678832\C
 ,0,36.8803107966,-32.4445668997,42.9520809075\C,0,38.0487263607,-31.89
 3721999,43.7764832847\N,0,37.7818905439,-30.5227011742,44.2503757702\C
 ,0,38.0288267022,-30.039161103,45.466508078\N,0,38.9302150724,-30.6252
 750577,46.2757762715\N,0,37.3465007754,-28.9674509074,45.8963257137\O,
 0,32.4845551025,-32.3105767951,43.9017511242\H,0,32.8464558782,-32.788
 875603,43.1007409279\H,0,38.9872416624,-30.3840690516,47.2542676162\H,
 0,34.0194414351,-30.9162669929,42.069688445\H,0,35.2913867311,-30.7713
 536811,44.7534771019\H,0,34.9818102001,-33.3614073922,43.1131608652\H,
 0,35.7608648591,-33.1657060263,44.6787982858\H,0,36.6970193781,-31.802
 5051923,42.0819311905\H,0,37.1845821238,-33.4062522826,42.5298156159\H
 ,0,38.9665151905,-31.8956615229,43.1770885007\H,0,38.213498233,-32.530
 8630508,44.6526999639\H,0,37.1615562364,-29.9379617177,43.6902178918\H
 ,0,39.6008349492,-31.2879128724,45.9167598655\H,0,37.6939516276,-28.39
 80634288,46.6540874403\H,0,36.5891205227,-28.6086427192,45.3151439805\
 \Version=ES64L-G16RevC.01\HF=-1486.5408792\RMSD=7.898e-09\Dipole=0.885
 6668,2.6682265,2.6716517\Quadrupole=-399.5110226,-1751.1191074,2150.63
 013,-3634.4869642,5508.6385547,-4625.6120833\PG=C01 [X(C20H33N6O5)]\\@
 The archive entry for this job was punched.


 GARLIC THEN HAVE POWER TO SAVE FROM DEATH
 BEAR WITH IT THOUGH IT MAKETH UNSAVORY BREATH,
 AND SCORN NOT GARLIC LIKE SOME THAT THINK
 IT ONLY MAKETH MEN WINK AND DRINK AND STINK.
   --  SIR JOHN HARRINGTON,
       "THE ENGLISHMAN'S DOCTOR", 1609
 Job cpu time:       0 days  0 hours  1 minutes 48.6 seconds.
 Elapsed time:       0 days  0 hours  0 minutes 27.7 seconds.
 File lengths (MBytes):  RWF=    264 Int=      0 D2E=      0 Chk=     40 Scr=     16
 Normal termination of Gaussian 16 at Tue May 31 11:50:37 2022.
