 Entering Gaussian System, Link 0=/opt/software/Gaussian/g16-AVX2-C.01/g16/g16
 Input=charge-conf-234.com
 Output=charge-conf-234.log
 Initial command:
 /opt/software/Gaussian/g16-AVX2-C.01/g16/l1.exe "/mnt/gs18/scratch/users/kengmith/Gau-13923.inp" -scrdir="/mnt/gs18/scratch/users/kengmith/"
 Entering Link 1 = /opt/software/Gaussian/g16-AVX2-C.01/g16/l1.exe PID=     13933.
  
 Copyright (c) 1988-2019, Gaussian, Inc.  All Rights Reserved.
  
 This is part of the Gaussian(R) 16 program.  It is based on
 the Gaussian(R) 09 system (copyright 2009, Gaussian, Inc.),
 the Gaussian(R) 03 system (copyright 2003, Gaussian, Inc.),
 the Gaussian(R) 98 system (copyright 1998, Gaussian, Inc.),
 the Gaussian(R) 94 system (copyright 1995, Gaussian, Inc.),
 the Gaussian 92(TM) system (copyright 1992, Gaussian, Inc.),
 the Gaussian 90(TM) system (copyright 1990, Gaussian, Inc.),
 the Gaussian 88(TM) system (copyright 1988, Gaussian, Inc.),
 the Gaussian 86(TM) system (copyright 1986, Carnegie Mellon
 University), and the Gaussian 82(TM) system (copyright 1983,
 Carnegie Mellon University). Gaussian is a federally registered
 trademark of Gaussian, Inc.
  
 This software contains proprietary and confidential information,
 including trade secrets, belonging to Gaussian, Inc.
  
 This software is provided under written license and may be
 used, copied, transmitted, or stored only in accord with that
 written license.
  
 The following legend is applicable only to US Government
 contracts under FAR:
  
                    RESTRICTED RIGHTS LEGEND
  
 Use, reproduction and disclosure by the US Government is
 subject to restrictions as set forth in subparagraphs (a)
 and (c) of the Commercial Computer Software - Restricted
 Rights clause in FAR 52.227-19.
  
 Gaussian, Inc.
 340 Quinnipiac St., Bldg. 40, Wallingford CT 06492
  
  
 ---------------------------------------------------------------
 Warning -- This program may not be used in any manner that
 competes with the business of Gaussian, Inc. or will provide
 assistance to any competitor of Gaussian, Inc.  The licensee
 of this program is prohibited from giving any competitor of
 Gaussian, Inc. access to this program.  By using this program,
 the user acknowledges that Gaussian, Inc. is engaged in the
 business of creating and licensing software in the field of
 computational chemistry and represents and warrants to the
 licensee that it is not a competitor of Gaussian, Inc. and that
 it will not use this program in any manner prohibited above.
 ---------------------------------------------------------------
  

 Cite this work as:
 Gaussian 16, Revision C.01,
 M. J. Frisch, G. W. Trucks, H. B. Schlegel, G. E. Scuseria, 
 M. A. Robb, J. R. Cheeseman, G. Scalmani, V. Barone, 
 G. A. Petersson, H. Nakatsuji, X. Li, M. Caricato, A. V. Marenich, 
 J. Bloino, B. G. Janesko, R. Gomperts, B. Mennucci, H. P. Hratchian, 
 J. V. Ortiz, A. F. Izmaylov, J. L. Sonnenberg, D. Williams-Young, 
 F. Ding, F. Lipparini, F. Egidi, J. Goings, B. Peng, A. Petrone, 
 T. Henderson, D. Ranasinghe, V. G. Zakrzewski, J. Gao, N. Rega, 
 G. Zheng, W. Liang, M. Hada, M. Ehara, K. Toyota, R. Fukuda, 
 J. Hasegawa, M. Ishida, T. Nakajima, Y. Honda, O. Kitao, H. Nakai, 
 T. Vreven, K. Throssell, J. A. Montgomery, Jr., J. E. Peralta, 
 F. Ogliaro, M. J. Bearpark, J. J. Heyd, E. N. Brothers, K. N. Kudin, 
 V. N. Staroverov, T. A. Keith, R. Kobayashi, J. Normand, 
 K. Raghavachari, A. P. Rendell, J. C. Burant, S. S. Iyengar, 
 J. Tomasi, M. Cossi, J. M. Millam, M. Klene, C. Adamo, R. Cammi, 
 J. W. Ochterski, R. L. Martin, K. Morokuma, O. Farkas, 
 J. B. Foresman, and D. J. Fox, Gaussian, Inc., Wallingford CT, 2019.
 
 ******************************************
 Gaussian 16:  ES64L-G16RevC.01  3-Jul-2019
                31-May-2022 
 ******************************************
 %mem=8gb
 %nproc=4
 Will use up to    4 processors via shared memory.
 %chk=conf-234.chk
 ----------------------------------------------------------------------
 # B3LYP/6-31G* empiricaldispersion=gd3 guess=read geom=check nosymm in
 tegral(ultrafinegrid)
 ----------------------------------------------------------------------
 1/29=2,38=1,172=1/1;
 2/12=2,15=1,40=1/2;
 3/5=1,6=6,7=1,11=2,14=-4,25=1,30=1,74=-5,75=-5,116=-2,124=31/1,2,3;
 4/5=1/1;
 5/5=2,38=6/2;
 6/7=2,8=2,9=2,10=2,28=1/1;
 99/5=1,9=1/99;
 ------------------------------------------------------
 Candidate Structure: Conf:234 Charge calc in gas phase
 ------------------------------------------------------
 Structure from the checkpoint file:  "conf-234.chk"
 Charge =  1 Multiplicity = 1
 Redundant internal coordinates found in file.  (old form).
 N,0,31.4691573694,-28.2975945579,41.2360276186
 C,0,32.7735889618,-27.7781899035,41.7987253702
 C,0,32.9024796674,-28.4346808102,43.1955533877
 O,0,31.9645083172,-29.1017567936,43.6464697705
 C,0,33.9282750628,-28.0446870009,40.8154015713
 C,0,33.9639633879,-29.4371080463,40.2202541735
 C,0,33.3453113782,-30.5714046952,40.7853803926
 C,0,34.7289703531,-29.6432620286,39.0500292179
 C,0,33.4775591045,-31.8327829832,40.2155791825
 C,0,34.9340020113,-30.9028134279,38.5235438444
 C,0,34.3613502841,-32.0789609246,39.1161684651
 O,0,34.6722296136,-33.2577491649,38.7006582739
 H,0,31.6961312193,-29.0230478808,40.5260525921
 H,0,32.6496456099,-26.7023589391,41.9567073194
 H,0,33.8668046371,-27.2982845757,40.0125079149
 H,0,34.8600951415,-27.7981963876,41.3483984574
 H,0,32.7611735704,-30.507958489,41.7030225738
 H,0,35.1986047596,-28.7861570217,38.5686130182
 H,0,32.9299473741,-32.6631578366,40.6485084512
 H,0,35.5586140838,-31.0438630489,37.6465692117
 H,0,30.9768098202,-28.7589393296,42.0306082488
 H,0,30.8844795217,-27.5706858071,40.817022855
 N,0,34.046418063,-28.1892962448,43.855159253
 C,0,34.1976004791,-28.3959926662,45.3082189955
 C,0,34.0484769928,-29.854924768,45.7527288785
 O,0,33.6811481774,-30.0967072499,46.8898502418
 C,0,35.5556259767,-27.7945098504,45.7659846459
 C,0,36.7607297059,-28.5636388911,45.2004366942
 C,0,35.6301732244,-27.6864690119,47.2948739524
 H,0,34.7319553562,-27.5893021056,43.412526577
 H,0,33.3830165994,-27.8682377597,45.814355235
 H,0,35.5732368698,-26.7705124083,45.3604221997
 H,0,36.7229730471,-28.6760105473,44.1088299337
 H,0,37.6883760687,-28.0363687048,45.4414530572
 H,0,36.82675823,-29.565428732,45.6390616661
 H,0,35.6019263811,-28.6730563197,47.7649430381
 H,0,34.7950282074,-27.10326482,47.6959540033
 H,0,36.5623509575,-27.1910525818,47.5836183571
 N,0,34.3660713974,-30.8397774754,44.8463091641
 C,0,34.4029347401,-32.2403813565,45.2690890231
 C,0,33.1588885765,-32.9969656314,44.7800032034
 O,0,33.0722821563,-34.2058040441,44.8618395694
 C,0,35.7542293579,-32.9489179421,44.9300771866
 C,0,35.7865894166,-33.922674822,43.7367484326
 C,0,35.2107425433,-33.3152766732,42.4550789468
 N,0,35.023208677,-34.2638493683,41.3523756583
 C,0,33.918542369,-35.0249626898,41.1949806493
 N,0,33.1872233229,-35.4441845945,42.2395031328
 N,0,33.593942444,-35.3592586545,39.9428694762
 O,0,32.1676353446,-32.2696232088,44.246211967
 H,0,32.3864464742,-31.3159098951,44.2906295209
 H,0,32.2820017456,-35.8564617812,42.0664701969
 H,0,34.7801851803,-30.5806588118,43.9593451076
 H,0,34.2955146589,-32.2070159734,46.3587363378
 H,0,36.0779297561,-33.5001981281,45.8170658034
 H,0,36.4946735215,-32.1527164365,44.7842026603
 H,0,35.2456287445,-34.8315618786,44.0058119821
 H,0,36.8246924909,-34.224462139,43.5600832808
 H,0,35.8814729396,-32.5401075255,42.0731481697
 H,0,34.2562189646,-32.812336933,42.6475630925
 H,0,35.3759155129,-33.9516125189,40.4411192566
 H,0,33.3424100992,-35.1318260145,43.1946504248
 H,0,32.8211199787,-35.9843525723,39.7653506115
 H,0,33.9083792517,-34.6658397469,39.2153637061
 Recover connectivity data from disk.
                           ----------------------------
                           !    Current Parameters    !
                           ! (Angstroms and Degrees)  !
 --------------------------                            --------------------------
 ! Name  Definition              Value                                          !
 --------------------------------------------------------------------------------
 ! R1    R(1,2)                  1.5126                                         !
 ! R2    R(1,13)                 1.0401                                         !
 ! R3    R(1,21)                 1.0424                                         !
 ! R4    R(1,22)                 1.0226                                         !
 ! R5    R(2,3)                  1.5488                                         !
 ! R6    R(2,5)                  1.5399                                         !
 ! R7    R(2,14)                 1.0944                                         !
 ! R8    R(3,4)                  1.2362                                         !
 ! R9    R(3,23)                 1.3431                                         !
 ! R10   R(5,6)                  1.5147                                         !
 ! R11   R(5,15)                 1.098                                          !
 ! R12   R(5,16)                 1.1014                                         !
 ! R13   R(6,7)                  1.4102                                         !
 ! R14   R(6,8)                  1.4132                                         !
 ! R15   R(7,9)                  1.3904                                         !
 ! R16   R(7,17)                 1.0896                                         !
 ! R17   R(8,10)                 1.3805                                         !
 ! R18   R(8,18)                 1.0895                                         !
 ! R19   R(9,11)                 1.4319                                         !
 ! R20   R(9,19)                 1.0848                                         !
 ! R21   R(10,11)                1.4361                                         !
 ! R22   R(10,20)                1.0859                                         !
 ! R23   R(11,12)                1.288                                          !
 ! R24   R(23,24)                1.4755                                         !
 ! R25   R(23,30)                1.0129                                         !
 ! R26   R(24,25)                1.5324                                         !
 ! R27   R(24,27)                1.5542                                         !
 ! R28   R(24,31)                1.0946                                         !
 ! R29   R(25,26)                1.2192                                         !
 ! R30   R(25,39)                1.3756                                         !
 ! R31   R(27,28)                1.5374                                         !
 ! R32   R(27,29)                1.5345                                         !
 ! R33   R(27,32)                1.1015                                         !
 ! R34   R(28,33)                1.098                                          !
 ! R35   R(28,34)                1.0939                                         !
 ! R36   R(28,35)                1.0956                                         !
 ! R37   R(29,36)                1.0932                                         !
 ! R38   R(29,37)                1.0947                                         !
 ! R39   R(29,38)                1.0944                                         !
 ! R40   R(39,40)                1.4635                                         !
 ! R41   R(39,53)                1.0126                                         !
 ! R42   R(40,41)                1.536                                          !
 ! R43   R(40,43)                1.563                                          !
 ! R44   R(40,54)                1.0954                                         !
 ! R45   R(41,42)                1.2147                                         !
 ! R46   R(41,50)                1.3404                                         !
 ! R47   R(43,44)                1.5405                                         !
 ! R48   R(43,55)                1.0934                                         !
 ! R49   R(43,56)                1.097                                          !
 ! R50   R(44,45)                1.5308                                         !
 ! R51   R(44,57)                1.0914                                         !
 ! R52   R(44,58)                1.0954                                         !
 ! R53   R(45,46)                1.4666                                         !
 ! R54   R(45,59)                1.0939                                         !
 ! R55   R(45,60)                1.096                                          !
 ! R56   R(46,47)                1.3507                                         !
 ! R57   R(46,61)                1.0258                                         !
 ! R58   R(47,48)                1.3422                                         !
 ! R59   R(47,49)                1.336                                          !
 ! R60   R(48,52)                1.0096                                         !
 ! R61   R(48,62)                1.0168                                         !
 ! R62   R(49,63)                1.0097                                         !
 ! R63   R(49,64)                1.0531                                         !
 ! R64   R(50,51)                0.9795                                         !
 ! A1    A(2,1,13)             107.7726                                         !
 ! A2    A(2,1,21)             106.0054                                         !
 ! A3    A(2,1,22)             113.6648                                         !
 ! A4    A(13,1,21)            108.3422                                         !
 ! A5    A(13,1,22)            109.929                                          !
 ! A6    A(21,1,22)            110.9079                                         !
 ! A7    A(1,2,3)              105.1724                                         !
 ! A8    A(1,2,5)              110.4675                                         !
 ! A9    A(1,2,14)             107.0731                                         !
 ! A10   A(3,2,5)              116.114                                          !
 ! A11   A(3,2,14)             107.2124                                         !
 ! A12   A(5,2,14)             110.3178                                         !
 ! A13   A(2,3,4)              119.6416                                         !
 ! A14   A(2,3,23)             115.8722                                         !
 ! A15   A(4,3,23)             124.4519                                         !
 ! A16   A(2,5,6)              115.3193                                         !
 ! A17   A(2,5,15)             107.8982                                         !
 ! A18   A(2,5,16)             106.657                                          !
 ! A19   A(6,5,15)             109.8113                                         !
 ! A20   A(6,5,16)             112.0819                                         !
 ! A21   A(15,5,16)            104.424                                          !
 ! A22   A(5,6,7)              124.863                                          !
 ! A23   A(5,6,8)              118.178                                          !
 ! A24   A(7,6,8)              116.8704                                         !
 ! A25   A(6,7,9)              121.5838                                         !
 ! A26   A(6,7,17)             121.7236                                         !
 ! A27   A(9,7,17)             116.6753                                         !
 ! A28   A(6,8,10)             121.9586                                         !
 ! A29   A(6,8,18)             118.979                                          !
 ! A30   A(10,8,18)            119.0294                                         !
 ! A31   A(7,9,11)             121.9594                                         !
 ! A32   A(7,9,19)             118.8722                                         !
 ! A33   A(11,9,19)            119.1026                                         !
 ! A34   A(8,10,11)            122.0484                                         !
 ! A35   A(8,10,20)            120.7946                                         !
 ! A36   A(11,10,20)           117.1457                                         !
 ! A37   A(9,11,10)            114.9699                                         !
 ! A38   A(9,11,12)            123.6435                                         !
 ! A39   A(10,11,12)           121.3443                                         !
 ! A40   A(3,23,24)            123.0475                                         !
 ! A41   A(3,23,30)            118.0396                                         !
 ! A42   A(24,23,30)           116.3604                                         !
 ! A43   A(23,24,25)           114.1464                                         !
 ! A44   A(23,24,27)           108.9885                                         !
 ! A45   A(23,24,31)           108.1537                                         !
 ! A46   A(25,24,27)           111.5946                                         !
 ! A47   A(25,24,31)           104.6236                                         !
 ! A48   A(27,24,31)           109.1143                                         !
 ! A49   A(24,25,26)           119.253                                          !
 ! A50   A(24,25,39)           117.9041                                         !
 ! A51   A(26,25,39)           122.8289                                         !
 ! A52   A(24,27,28)           112.5166                                         !
 ! A53   A(24,27,29)           111.2937                                         !
 ! A54   A(24,27,32)           105.3843                                         !
 ! A55   A(28,27,29)           111.3244                                         !
 ! A56   A(28,27,32)           108.4871                                         !
 ! A57   A(29,27,32)           107.4939                                         !
 ! A58   A(27,28,33)           112.9513                                         !
 ! A59   A(27,28,34)           110.031                                          !
 ! A60   A(27,28,35)           110.9409                                         !
 ! A61   A(33,28,34)           107.3091                                         !
 ! A62   A(33,28,35)           107.8489                                         !
 ! A63   A(34,28,35)           107.543                                          !
 ! A64   A(27,29,36)           111.3225                                         !
 ! A65   A(27,29,37)           111.4368                                         !
 ! A66   A(27,29,38)           109.6403                                         !
 ! A67   A(36,29,37)           107.6695                                         !
 ! A68   A(36,29,38)           108.4867                                         !
 ! A69   A(37,29,38)           108.1775                                         !
 ! A70   A(25,39,40)           120.0415                                         !
 ! A71   A(25,39,53)           119.2338                                         !
 ! A72   A(40,39,53)           119.1859                                         !
 ! A73   A(39,40,41)           111.0399                                         !
 ! A74   A(39,40,43)           113.1388                                         !
 ! A75   A(39,40,54)           104.8174                                         !
 ! A76   A(41,40,43)           114.0713                                         !
 ! A77   A(41,40,54)           104.6145                                         !
 ! A78   A(43,40,54)           108.3209                                         !
 ! A79   A(40,41,42)           121.7685                                         !
 ! A80   A(40,41,50)           117.2901                                         !
 ! A81   A(42,41,50)           120.9397                                         !
 ! A82   A(40,43,44)           118.2104                                         !
 ! A83   A(40,43,55)           107.9729                                         !
 ! A84   A(40,43,56)           106.4612                                         !
 ! A85   A(44,43,55)           107.667                                          !
 ! A86   A(44,43,56)           109.9728                                         !
 ! A87   A(55,43,56)           105.9018                                         !
 ! A88   A(43,44,45)           112.9456                                         !
 ! A89   A(43,44,57)           108.9663                                         !
 ! A90   A(43,44,58)           108.6008                                         !
 ! A91   A(45,44,57)           110.512                                          !
 ! A92   A(45,44,58)           109.3165                                         !
 ! A93   A(57,44,58)           106.2638                                         !
 ! A94   A(44,45,46)           114.8973                                         !
 ! A95   A(44,45,59)           110.0507                                         !
 ! A96   A(44,45,60)           111.2648                                         !
 ! A97   A(46,45,59)           105.9153                                         !
 ! A98   A(46,45,60)           108.5117                                         !
 ! A99   A(59,45,60)           105.6734                                         !
 ! A100  A(45,46,47)           123.825                                          !
 ! A101  A(45,46,61)           115.2824                                         !
 ! A102  A(47,46,61)           110.4389                                         !
 ! A103  A(46,47,48)           122.068                                          !
 ! A104  A(46,47,49)           116.6745                                         !
 ! A105  A(48,47,49)           121.2518                                         !
 ! A106  A(47,48,52)           118.8605                                         !
 ! A107  A(47,48,62)           123.4965                                         !
 ! A108  A(52,48,62)           115.0406                                         !
 ! A109  A(47,49,63)           120.374                                          !
 ! A110  A(47,49,64)           114.2143                                         !
 ! A111  A(63,49,64)           120.9793                                         !
 ! A112  A(41,50,51)           110.1877                                         !
 ! D1    D(13,1,2,3)          -103.9731                                         !
 ! D2    D(13,1,2,5)            22.042                                          !
 ! D3    D(13,1,2,14)          142.1971                                         !
 ! D4    D(21,1,2,3)            11.8589                                         !
 ! D5    D(21,1,2,5)           137.8741                                         !
 ! D6    D(21,1,2,14)         -101.9709                                         !
 ! D7    D(22,1,2,3)           133.9354                                         !
 ! D8    D(22,1,2,5)          -100.0494                                         !
 ! D9    D(22,1,2,14)           20.1056                                         !
 ! D10   D(1,2,3,4)             -6.53                                           !
 ! D11   D(1,2,3,23)           175.5037                                         !
 ! D12   D(5,2,3,4)           -128.9705                                         !
 ! D13   D(5,2,3,23)            53.0631                                         !
 ! D14   D(14,2,3,4)           107.2024                                         !
 ! D15   D(14,2,3,23)          -70.764                                          !
 ! D16   D(1,2,5,6)            -45.7389                                         !
 ! D17   D(1,2,5,15)            77.4091                                         !
 ! D18   D(1,2,5,16)          -170.8841                                         !
 ! D19   D(3,2,5,6)             73.8702                                         !
 ! D20   D(3,2,5,15)          -162.9818                                         !
 ! D21   D(3,2,5,16)           -51.275                                          !
 ! D22   D(14,2,5,6)          -163.9267                                         !
 ! D23   D(14,2,5,15)          -40.7787                                         !
 ! D24   D(14,2,5,16)           70.9281                                         !
 ! D25   D(2,3,23,24)          162.211                                          !
 ! D26   D(2,3,23,30)            1.0093                                         !
 ! D27   D(4,3,23,24)          -15.6455                                         !
 ! D28   D(4,3,23,30)         -176.8472                                         !
 ! D29   D(2,5,6,7)            -21.4963                                         !
 ! D30   D(2,5,6,8)            162.0415                                         !
 ! D31   D(15,5,6,7)          -143.6242                                         !
 ! D32   D(15,5,6,8)            39.9136                                         !
 ! D33   D(16,5,6,7)           100.7893                                         !
 ! D34   D(16,5,6,8)           -75.6728                                         !
 ! D35   D(5,6,7,9)           -176.7299                                         !
 ! D36   D(5,6,7,17)             1.7089                                         !
 ! D37   D(8,6,7,9)             -0.2258                                         !
 ! D38   D(8,6,7,17)           178.213                                          !
 ! D39   D(5,6,8,10)           172.9081                                         !
 ! D40   D(5,6,8,18)            -4.9791                                         !
 ! D41   D(7,6,8,10)            -3.838                                          !
 ! D42   D(7,6,8,18)           178.2748                                         !
 ! D43   D(6,7,9,11)             6.9841                                         !
 ! D44   D(6,7,9,19)          -175.9939                                         !
 ! D45   D(17,7,9,11)         -171.5298                                         !
 ! D46   D(17,7,9,19)            5.4922                                         !
 ! D47   D(6,8,10,11)            1.2631                                         !
 ! D48   D(6,8,10,20)         -177.4804                                         !
 ! D49   D(18,8,10,11)         179.1493                                         !
 ! D50   D(18,8,10,20)           0.4058                                         !
 ! D51   D(7,9,11,10)           -9.1271                                         !
 ! D52   D(7,9,11,12)          168.5332                                         !
 ! D53   D(19,9,11,10)         173.8576                                         !
 ! D54   D(19,9,11,12)          -8.4821                                         !
 ! D55   D(8,10,11,9)            5.0805                                         !
 ! D56   D(8,10,11,12)        -172.6389                                         !
 ! D57   D(20,10,11,9)        -176.1324                                         !
 ! D58   D(20,10,11,12)          6.1482                                         !
 ! D59   D(3,23,24,25)          63.821                                          !
 ! D60   D(3,23,24,27)        -170.6723                                         !
 ! D61   D(3,23,24,31)         -52.1654                                         !
 ! D62   D(30,23,24,25)       -134.6859                                         !
 ! D63   D(30,23,24,27)         -9.1793                                         !
 ! D64   D(30,23,24,31)        109.3276                                         !
 ! D65   D(23,24,25,26)       -153.9967                                         !
 ! D66   D(23,24,25,39)         27.3296                                         !
 ! D67   D(27,24,25,26)         81.8826                                         !
 ! D68   D(27,24,25,39)        -96.7911                                         !
 ! D69   D(31,24,25,26)        -35.9727                                         !
 ! D70   D(31,24,25,39)        145.3536                                         !
 ! D71   D(23,24,27,28)        -67.3436                                         !
 ! D72   D(23,24,27,29)        166.9185                                         !
 ! D73   D(23,24,27,32)         50.6958                                         !
 ! D74   D(25,24,27,28)         59.6316                                         !
 ! D75   D(25,24,27,29)        -66.1062                                         !
 ! D76   D(25,24,27,32)        177.671                                          !
 ! D77   D(31,24,27,28)        174.7534                                         !
 ! D78   D(31,24,27,29)         49.0156                                         !
 ! D79   D(31,24,27,32)        -67.2072                                         !
 ! D80   D(24,25,39,40)        172.3433                                         !
 ! D81   D(24,25,39,53)          6.6011                                         !
 ! D82   D(26,25,39,40)         -6.2795                                         !
 ! D83   D(26,25,39,53)       -172.0218                                         !
 ! D84   D(24,27,28,33)         53.0113                                         !
 ! D85   D(24,27,28,34)        172.8989                                         !
 ! D86   D(24,27,28,35)        -68.2172                                         !
 ! D87   D(29,27,28,33)        178.7325                                         !
 ! D88   D(29,27,28,34)        -61.38                                           !
 ! D89   D(29,27,28,35)         57.504                                          !
 ! D90   D(32,27,28,33)        -63.1829                                         !
 ! D91   D(32,27,28,34)         56.7047                                         !
 ! D92   D(32,27,28,35)        175.5887                                         !
 ! D93   D(24,27,29,36)         64.2385                                         !
 ! D94   D(24,27,29,37)        -55.9804                                         !
 ! D95   D(24,27,29,38)       -175.7143                                         !
 ! D96   D(28,27,29,36)        -62.158                                          !
 ! D97   D(28,27,29,37)        177.6231                                         !
 ! D98   D(28,27,29,38)         57.8892                                         !
 ! D99   D(32,27,29,36)        179.1604                                         !
 ! D100  D(32,27,29,37)         58.9415                                         !
 ! D101  D(32,27,29,38)        -60.7924                                         !
 ! D102  D(25,39,40,41)        104.0193                                         !
 ! D103  D(25,39,40,43)       -126.2172                                         !
 ! D104  D(25,39,40,54)         -8.4007                                         !
 ! D105  D(53,39,40,41)        -90.2316                                         !
 ! D106  D(53,39,40,43)         39.5318                                         !
 ! D107  D(53,39,40,54)        157.3484                                         !
 ! D108  D(39,40,41,42)        169.8426                                         !
 ! D109  D(39,40,41,50)         -9.688                                          !
 ! D110  D(43,40,41,42)         40.5732                                         !
 ! D111  D(43,40,41,50)       -138.9574                                         !
 ! D112  D(54,40,41,42)        -77.6086                                         !
 ! D113  D(54,40,41,50)        102.8607                                         !
 ! D114  D(39,40,43,44)       -103.9918                                         !
 ! D115  D(39,40,43,55)        133.5913                                         !
 ! D116  D(39,40,43,56)         20.2499                                         !
 ! D117  D(41,40,43,44)         24.2157                                         !
 ! D118  D(41,40,43,55)        -98.2012                                         !
 ! D119  D(41,40,43,56)        148.4574                                         !
 ! D120  D(54,40,43,44)        140.2571                                         !
 ! D121  D(54,40,43,55)         17.8402                                         !
 ! D122  D(54,40,43,56)        -95.5012                                         !
 ! D123  D(40,41,50,51)         -2.6665                                         !
 ! D124  D(42,41,50,51)        177.7987                                         !
 ! D125  D(40,43,44,45)         51.2625                                         !
 ! D126  D(40,43,44,57)        -71.957                                          !
 ! D127  D(40,43,44,58)        172.6946                                         !
 ! D128  D(55,43,44,45)        173.8338                                         !
 ! D129  D(55,43,44,57)         50.6142                                         !
 ! D130  D(55,43,44,58)        -64.7341                                         !
 ! D131  D(56,43,44,45)        -71.2236                                         !
 ! D132  D(56,43,44,57)        165.5568                                         !
 ! D133  D(56,43,44,58)         50.2084                                         !
 ! D134  D(43,44,45,46)       -170.7472                                         !
 ! D135  D(43,44,45,59)         69.8325                                         !
 ! D136  D(43,44,45,60)        -46.9518                                         !
 ! D137  D(57,44,45,46)        -48.3887                                         !
 ! D138  D(57,44,45,59)       -167.8089                                         !
 ! D139  D(57,44,45,60)         75.4067                                         !
 ! D140  D(58,44,45,46)         68.2262                                         !
 ! D141  D(58,44,45,59)        -51.194                                          !
 ! D142  D(58,44,45,60)       -167.9784                                         !
 ! D143  D(44,45,46,47)         85.9887                                         !
 ! D144  D(44,45,46,61)       -132.6243                                         !
 ! D145  D(59,45,46,47)       -152.3168                                         !
 ! D146  D(59,45,46,61)        -10.9298                                         !
 ! D147  D(60,45,46,47)        -39.255                                          !
 ! D148  D(60,45,46,61)        102.132                                          !
 ! D149  D(45,46,47,48)        -30.1136                                         !
 ! D150  D(45,46,47,49)        150.7499                                         !
 ! D151  D(61,46,47,48)       -173.0865                                         !
 ! D152  D(61,46,47,49)          7.7769                                         !
 ! D153  D(46,47,48,52)        168.4325                                         !
 ! D154  D(46,47,48,62)          7.6505                                         !
 ! D155  D(49,47,48,52)        -12.47                                           !
 ! D156  D(49,47,48,62)       -173.252                                          !
 ! D157  D(46,47,49,63)        175.2982                                         !
 ! D158  D(46,47,49,64)        -28.1026                                         !
 ! D159  D(48,47,49,63)         -3.8459                                         !
 ! D160  D(48,47,49,64)        152.7533                                         !
 --------------------------------------------------------------------------------
 Symmetry turned off by external request.
 Stoichiometry    C20H33N6O5(1+)
 Framework group  C1[X(C20H33N6O5)]
 Deg. of freedom   186
 Full point group                 C1      NOp   1
                          Input orientation:                          
 ---------------------------------------------------------------------
 Center     Atomic      Atomic             Coordinates (Angstroms)
 Number     Number       Type             X           Y           Z
 ---------------------------------------------------------------------
      1          7           0       31.469157  -28.297595   41.236028
      2          6           0       32.773589  -27.778190   41.798725
      3          6           0       32.902480  -28.434681   43.195553
      4          8           0       31.964508  -29.101757   43.646470
      5          6           0       33.928275  -28.044687   40.815402
      6          6           0       33.963963  -29.437108   40.220254
      7          6           0       33.345311  -30.571405   40.785380
      8          6           0       34.728970  -29.643262   39.050029
      9          6           0       33.477559  -31.832783   40.215579
     10          6           0       34.934002  -30.902813   38.523544
     11          6           0       34.361350  -32.078961   39.116168
     12          8           0       34.672230  -33.257749   38.700658
     13          1           0       31.696131  -29.023048   40.526053
     14          1           0       32.649646  -26.702359   41.956707
     15          1           0       33.866805  -27.298285   40.012508
     16          1           0       34.860095  -27.798196   41.348398
     17          1           0       32.761174  -30.507958   41.703023
     18          1           0       35.198605  -28.786157   38.568613
     19          1           0       32.929947  -32.663158   40.648508
     20          1           0       35.558614  -31.043863   37.646569
     21          1           0       30.976810  -28.758939   42.030608
     22          1           0       30.884480  -27.570686   40.817023
     23          7           0       34.046418  -28.189296   43.855159
     24          6           0       34.197600  -28.395993   45.308219
     25          6           0       34.048477  -29.854925   45.752729
     26          8           0       33.681148  -30.096707   46.889850
     27          6           0       35.555626  -27.794510   45.765985
     28          6           0       36.760730  -28.563639   45.200437
     29          6           0       35.630173  -27.686469   47.294874
     30          1           0       34.731955  -27.589302   43.412527
     31          1           0       33.383017  -27.868238   45.814355
     32          1           0       35.573237  -26.770512   45.360422
     33          1           0       36.722973  -28.676011   44.108830
     34          1           0       37.688376  -28.036369   45.441453
     35          1           0       36.826758  -29.565429   45.639062
     36          1           0       35.601926  -28.673056   47.764943
     37          1           0       34.795028  -27.103265   47.695954
     38          1           0       36.562351  -27.191053   47.583618
     39          7           0       34.366071  -30.839777   44.846309
     40          6           0       34.402935  -32.240381   45.269089
     41          6           0       33.158889  -32.996966   44.780003
     42          8           0       33.072282  -34.205804   44.861840
     43          6           0       35.754229  -32.948918   44.930077
     44          6           0       35.786589  -33.922675   43.736748
     45          6           0       35.210743  -33.315277   42.455079
     46          7           0       35.023209  -34.263849   41.352376
     47          6           0       33.918542  -35.024963   41.194981
     48          7           0       33.187223  -35.444185   42.239503
     49          7           0       33.593942  -35.359259   39.942869
     50          8           0       32.167635  -32.269623   44.246212
     51          1           0       32.386446  -31.315910   44.290630
     52          1           0       32.282002  -35.856462   42.066470
     53          1           0       34.780185  -30.580659   43.959345
     54          1           0       34.295515  -32.207016   46.358736
     55          1           0       36.077930  -33.500198   45.817066
     56          1           0       36.494674  -32.152716   44.784203
     57          1           0       35.245629  -34.831562   44.005812
     58          1           0       36.824692  -34.224462   43.560083
     59          1           0       35.881473  -32.540108   42.073148
     60          1           0       34.256219  -32.812337   42.647563
     61          1           0       35.375916  -33.951613   40.441119
     62          1           0       33.342410  -35.131826   43.194650
     63          1           0       32.821120  -35.984353   39.765351
     64          1           0       33.908379  -34.665840   39.215364
 ---------------------------------------------------------------------
 Rotational constants (GHZ):           0.1808336           0.1219293           0.0899503
 Standard basis: 6-31G(d) (6D, 7F)
   531 basis functions,  1000 primitive gaussians,   531 cartesian basis functions
   117 alpha electrons      117 beta electrons
       nuclear repulsion energy      3503.2250456972 Hartrees.
 NAtoms=   64 NActive=   64 NUniq=   64 SFac= 1.00D+00 NAtFMM=   60 NAOKFM=T Big=T
 Integral buffers will be    131072 words long.
 Raffenetti 2 integral format.
 Two-electron integral symmetry is turned off.
 Nuclear repulsion after empirical dispersion term =     3503.1323079297 Hartrees.
 One-electron integrals computed using PRISM.
 NBasis=   531 RedAO= T EigKep=  4.50D-04  NBF=   531
 NBsUse=   531 1.00D-06 EigRej= -1.00D+00 NBFU=   531
 Initial guess from the checkpoint file:  "conf-234.chk"
 B after Tr=     0.000000    0.000000    0.000000
         Rot=    1.000000    0.000000    0.000000    0.000000 Ang=   0.00 deg.
 Requested convergence on RMS density matrix=1.00D-08 within 128 cycles.
 Requested convergence on MAX density matrix=1.00D-06.
 Requested convergence on             energy=1.00D-06.
 No special actions if energy rises.
 SCF Done:  E(RB3LYP) =  -1486.54336736     A.U. after    1 cycles
            NFock=  1  Conv=0.85D-08     -V/T= 2.0094

 **********************************************************************

            Population analysis using the SCF Density.

 **********************************************************************

 Alpha  occ. eigenvalues --  -19.30015 -19.29145 -19.24300 -19.23544 -19.16288
 Alpha  occ. eigenvalues --  -14.60467 -14.52415 -14.48724 -14.47316 -14.46425
 Alpha  occ. eigenvalues --  -14.45107 -10.45927 -10.43011 -10.42942 -10.41922
 Alpha  occ. eigenvalues --  -10.41065 -10.36513 -10.35241 -10.34276 -10.33217
 Alpha  occ. eigenvalues --  -10.32105 -10.31104 -10.30413 -10.29167 -10.28920
 Alpha  occ. eigenvalues --  -10.28917 -10.28835 -10.27450 -10.27240 -10.25837
 Alpha  occ. eigenvalues --  -10.25266  -1.21182  -1.20901  -1.15898  -1.14938
 Alpha  occ. eigenvalues --   -1.12623  -1.11687  -1.08857  -1.05008  -1.04642
 Alpha  occ. eigenvalues --   -1.01295  -0.99309  -0.95742  -0.93272  -0.91065
 Alpha  occ. eigenvalues --   -0.90646  -0.85841  -0.84502  -0.82858  -0.82428
 Alpha  occ. eigenvalues --   -0.79470  -0.79123  -0.77386  -0.75549  -0.74678
 Alpha  occ. eigenvalues --   -0.74170  -0.73041  -0.71903  -0.71456  -0.70531
 Alpha  occ. eigenvalues --   -0.69801  -0.68705  -0.68021  -0.67574  -0.66481
 Alpha  occ. eigenvalues --   -0.65891  -0.65257  -0.63497  -0.62320  -0.60878
 Alpha  occ. eigenvalues --   -0.60412  -0.59876  -0.59400  -0.58892  -0.57823
 Alpha  occ. eigenvalues --   -0.57803  -0.57218  -0.56814  -0.55725  -0.55476
 Alpha  occ. eigenvalues --   -0.55180  -0.54687  -0.54411  -0.53876  -0.53052
 Alpha  occ. eigenvalues --   -0.52542  -0.52202  -0.51992  -0.51274  -0.50603
 Alpha  occ. eigenvalues --   -0.50033  -0.49682  -0.49411  -0.48567  -0.48323
 Alpha  occ. eigenvalues --   -0.47864  -0.46620  -0.45806  -0.45688  -0.45539
 Alpha  occ. eigenvalues --   -0.45234  -0.44697  -0.44223  -0.43705  -0.43172
 Alpha  occ. eigenvalues --   -0.42728  -0.42320  -0.42107  -0.39968  -0.39570
 Alpha  occ. eigenvalues --   -0.38150  -0.37065  -0.36577  -0.35954  -0.33611
 Alpha  occ. eigenvalues --   -0.30447  -0.27032
 Alpha virt. eigenvalues --   -0.14936  -0.11036  -0.10543  -0.10105  -0.09480
 Alpha virt. eigenvalues --   -0.08193  -0.07972  -0.05949  -0.05497  -0.03710
 Alpha virt. eigenvalues --   -0.03163  -0.02739  -0.02644  -0.01360  -0.00664
 Alpha virt. eigenvalues --   -0.00615  -0.00082   0.00033   0.00753   0.01832
 Alpha virt. eigenvalues --    0.02130   0.03017   0.03347   0.04084   0.04281
 Alpha virt. eigenvalues --    0.04883   0.05202   0.05823   0.05921   0.06575
 Alpha virt. eigenvalues --    0.06856   0.07368   0.07828   0.08199   0.08704
 Alpha virt. eigenvalues --    0.09072   0.09294   0.09478   0.09944   0.10491
 Alpha virt. eigenvalues --    0.10951   0.11691   0.11959   0.12078   0.12255
 Alpha virt. eigenvalues --    0.12473   0.12870   0.13294   0.13498   0.14769
 Alpha virt. eigenvalues --    0.15206   0.16535   0.17310   0.17941   0.18386
 Alpha virt. eigenvalues --    0.19114   0.20293   0.21057   0.22644   0.23566
 Alpha virt. eigenvalues --    0.24231   0.25165   0.26594   0.27741   0.27809
 Alpha virt. eigenvalues --    0.29761   0.30453   0.31377   0.32698   0.36019
 Alpha virt. eigenvalues --    0.36795   0.37994   0.38155   0.39203   0.39938
 Alpha virt. eigenvalues --    0.40350   0.40821   0.41197   0.42412   0.42509
 Alpha virt. eigenvalues --    0.42811   0.43710   0.43923   0.44368   0.45074
 Alpha virt. eigenvalues --    0.45778   0.46526   0.46641   0.47321   0.47840
 Alpha virt. eigenvalues --    0.48169   0.48838   0.49181   0.49634   0.50326
 Alpha virt. eigenvalues --    0.50840   0.51051   0.51540   0.51855   0.52847
 Alpha virt. eigenvalues --    0.53503   0.54358   0.54447   0.54952   0.55526
 Alpha virt. eigenvalues --    0.56115   0.56390   0.56670   0.56945   0.57802
 Alpha virt. eigenvalues --    0.57925   0.58873   0.59484   0.59730   0.60097
 Alpha virt. eigenvalues --    0.60938   0.61609   0.61965   0.62237   0.63120
 Alpha virt. eigenvalues --    0.63723   0.64757   0.65402   0.65825   0.66473
 Alpha virt. eigenvalues --    0.67838   0.68023   0.68366   0.69049   0.69467
 Alpha virt. eigenvalues --    0.69776   0.70760   0.71009   0.71494   0.71975
 Alpha virt. eigenvalues --    0.72693   0.72974   0.73178   0.74532   0.74733
 Alpha virt. eigenvalues --    0.75414   0.75446   0.76528   0.76780   0.76942
 Alpha virt. eigenvalues --    0.77760   0.78199   0.78886   0.79719   0.79866
 Alpha virt. eigenvalues --    0.80375   0.80809   0.81114   0.81352   0.81952
 Alpha virt. eigenvalues --    0.82362   0.82476   0.83202   0.83589   0.84058
 Alpha virt. eigenvalues --    0.84402   0.84945   0.85497   0.85754   0.85973
 Alpha virt. eigenvalues --    0.86290   0.87114   0.87817   0.88799   0.89498
 Alpha virt. eigenvalues --    0.90401   0.91484   0.92965   0.93341   0.93656
 Alpha virt. eigenvalues --    0.94534   0.95020   0.96867   0.97496   0.98128
 Alpha virt. eigenvalues --    0.98910   0.99435   1.01337   1.01539   1.01938
 Alpha virt. eigenvalues --    1.02351   1.02983   1.03774   1.05038   1.06213
 Alpha virt. eigenvalues --    1.06562   1.08787   1.09041   1.09631   1.11026
 Alpha virt. eigenvalues --    1.11412   1.12404   1.13270   1.14558   1.15935
 Alpha virt. eigenvalues --    1.16289   1.18260   1.19354   1.20065   1.21021
 Alpha virt. eigenvalues --    1.21764   1.22085   1.23776   1.24311   1.24659
 Alpha virt. eigenvalues --    1.25648   1.27114   1.29757   1.29831   1.30846
 Alpha virt. eigenvalues --    1.31226   1.32496   1.33325   1.35480   1.35744
 Alpha virt. eigenvalues --    1.36874   1.38264   1.38676   1.39312   1.39965
 Alpha virt. eigenvalues --    1.40371   1.41123   1.42118   1.42928   1.44596
 Alpha virt. eigenvalues --    1.45271   1.46186   1.48006   1.48758   1.50468
 Alpha virt. eigenvalues --    1.51066   1.51597   1.52462   1.54164   1.56119
 Alpha virt. eigenvalues --    1.56879   1.57486   1.58645   1.59897   1.61046
 Alpha virt. eigenvalues --    1.62008   1.62775   1.63968   1.64392   1.64733
 Alpha virt. eigenvalues --    1.65324   1.66762   1.67191   1.67939   1.68321
 Alpha virt. eigenvalues --    1.68734   1.69331   1.70135   1.71108   1.71389
 Alpha virt. eigenvalues --    1.72551   1.72950   1.73966   1.74990   1.75736
 Alpha virt. eigenvalues --    1.76398   1.76867   1.77258   1.78085   1.79411
 Alpha virt. eigenvalues --    1.79778   1.80925   1.81735   1.82650   1.83315
 Alpha virt. eigenvalues --    1.83766   1.84248   1.85628   1.86160   1.87259
 Alpha virt. eigenvalues --    1.87760   1.88724   1.89658   1.90056   1.90301
 Alpha virt. eigenvalues --    1.91605   1.91751   1.91927   1.93305   1.94873
 Alpha virt. eigenvalues --    1.95155   1.95401   1.96752   1.97146   1.97473
 Alpha virt. eigenvalues --    1.98428   1.98906   1.99605   2.00600   2.02050
 Alpha virt. eigenvalues --    2.02565   2.03373   2.03517   2.04749   2.05740
 Alpha virt. eigenvalues --    2.06984   2.07250   2.08694   2.10594   2.10873
 Alpha virt. eigenvalues --    2.11247   2.13308   2.14641   2.15993   2.16307
 Alpha virt. eigenvalues --    2.18195   2.19278   2.19409   2.20149   2.21531
 Alpha virt. eigenvalues --    2.22784   2.23872   2.24670   2.25213   2.25765
 Alpha virt. eigenvalues --    2.26530   2.26857   2.27522   2.28459   2.28937
 Alpha virt. eigenvalues --    2.30328   2.32233   2.32871   2.33006   2.34219
 Alpha virt. eigenvalues --    2.35077   2.38075   2.38587   2.40662   2.41844
 Alpha virt. eigenvalues --    2.41997   2.44689   2.45402   2.47102   2.47971
 Alpha virt. eigenvalues --    2.49071   2.49861   2.50027   2.50291   2.52005
 Alpha virt. eigenvalues --    2.53739   2.54347   2.55324   2.56065   2.56303
 Alpha virt. eigenvalues --    2.57408   2.58778   2.59591   2.61997   2.63391
 Alpha virt. eigenvalues --    2.64452   2.66389   2.67182   2.68657   2.70165
 Alpha virt. eigenvalues --    2.70591   2.75006   2.75955   2.78892   2.81333
 Alpha virt. eigenvalues --    2.83973   2.85057   2.88460   2.89628   2.92605
 Alpha virt. eigenvalues --    2.93940   2.96085   2.98262   3.00632   3.01659
 Alpha virt. eigenvalues --    3.06034   3.08692   3.29687   3.65421   3.75760
 Alpha virt. eigenvalues --    3.81193   3.85825   3.89137   3.91248   3.98840
 Alpha virt. eigenvalues --    3.99476   4.02434   4.03863   4.05561   4.06814
 Alpha virt. eigenvalues --    4.10724   4.13045   4.15608   4.19081   4.20307
 Alpha virt. eigenvalues --    4.21029   4.23020   4.25461   4.28512   4.29154
 Alpha virt. eigenvalues --    4.32211   4.36132   4.39129   4.40646   4.46675
 Alpha virt. eigenvalues --    4.50640   4.57706   4.64583   4.71119
          Condensed to atoms (all electrons):
 Mulliken charges:
               1
     1  N   -0.743455
     2  C   -0.129304
     3  C    0.659775
     4  O   -0.536538
     5  C   -0.357106
     6  C    0.087930
     7  C   -0.260587
     8  C   -0.179464
     9  C   -0.228699
    10  C   -0.182919
    11  C    0.415298
    12  O   -0.681343
    13  H    0.410216
    14  H    0.224030
    15  H    0.184345
    16  H    0.169087
    17  H    0.101393
    18  H    0.128683
    19  H    0.112364
    20  H    0.147203
    21  H    0.428129
    22  H    0.416460
    23  N   -0.639340
    24  C   -0.018739
    25  C    0.619092
    26  O   -0.481728
    27  C   -0.135914
    28  C   -0.471180
    29  C   -0.450819
    30  H    0.357001
    31  H    0.204238
    32  H    0.145080
    33  H    0.128814
    34  H    0.185982
    35  H    0.171138
    36  H    0.185678
    37  H    0.164837
    38  H    0.167425
    39  N   -0.671772
    40  C   -0.071243
    41  C    0.612638
    42  O   -0.478680
    43  C   -0.294894
    44  C   -0.279975
    45  C   -0.177075
    46  N   -0.585908
    47  C    0.749127
    48  N   -0.786729
    49  N   -0.771725
    50  O   -0.576907
    51  H    0.458579
    52  H    0.361094
    53  H    0.347710
    54  H    0.243643
    55  H    0.189468
    56  H    0.159616
    57  H    0.180381
    58  H    0.172353
    59  H    0.174061
    60  H    0.150315
    61  H    0.384545
    62  H    0.425157
    63  H    0.346039
    64  H    0.423119
 Sum of Mulliken charges =   1.00000
 Mulliken charges with hydrogens summed into heavy atoms:
               1
     1  N    0.511350
     2  C    0.094726
     3  C    0.659775
     4  O   -0.536538
     5  C   -0.003674
     6  C    0.087930
     7  C   -0.159194
     8  C   -0.050781
     9  C   -0.116335
    10  C   -0.035715
    11  C    0.415298
    12  O   -0.681343
    23  N   -0.282339
    24  C    0.185499
    25  C    0.619092
    26  O   -0.481728
    27  C    0.009166
    28  C    0.014753
    29  C    0.067121
    39  N   -0.324062
    40  C    0.172400
    41  C    0.612638
    42  O   -0.478680
    43  C    0.054190
    44  C    0.072759
    45  C    0.147301
    46  N   -0.201363
    47  C    0.749127
    48  N   -0.000478
    49  N   -0.002567
    50  O   -0.118328
 Electronic spatial extent (au):  <R**2>=        3324937.3879
 Charge=              1.0000 electrons
 Dipole moment (field-independent basis, Debye):
    X=            159.8582    Y=           -140.0619    Z=            203.8949  Tot=            294.5252
 Quadrupole moment (field-independent basis, Debye-Ang):
   XX=           5163.8211   YY=           3964.2558   ZZ=           8467.4448
   XY=          -4661.2045   XZ=           6816.5981   YZ=          -5946.4643
 Traceless Quadrupole moment (field-independent basis, Debye-Ang):
   XX=           -701.3528   YY=          -1900.9181   ZZ=           2602.2709
   XY=          -4661.2045   XZ=           6816.5981   YZ=          -5946.4643
 Octapole moment (field-independent basis, Debye-Ang**2):
  XXX=         160997.3213  YYY=        -107909.4542  ZZZ=         343301.5323  XYY=         131717.0123
  XXY=        -150218.3438  XXZ=         221190.9067  XZZ=         284280.0780  YZZ=        -246573.7976
  YYZ=         168217.8848  XYZ=        -198840.3948
 Hexadecapole moment (field-independent basis, Debye-Ang**3):
 XXXX=        4791246.6761 YYYY=        2771423.1356 ZZZZ=       13525498.1056 XXXY=       -4658943.1723
 XXXZ=        6930571.3424 YYYX=       -3571536.9460 YYYZ=       -4572850.8813 ZZZX=       11574196.5908
 ZZZY=       -9963562.0091 XXYY=        4221354.7039 XXZZ=        9255474.7476 YYZZ=        6951307.4469
 XXYZ=       -6439240.5332 YYXZ=        5618461.8370 ZZXY=       -8281797.4070
 N-N= 3.503132307930D+03 E-N=-1.044125463125D+04  KE= 1.472658681324D+03
 Unable to Open any file for archive entry.
 1\1\GINC-LAC-259\SP\RB3LYP\6-31G(d)\C20H33N6O5(1+)\KENGMITH\31-May-202
 2\0\\# B3LYP/6-31G* empiricaldispersion=gd3 guess=read geom=check nosy
 mm integral(ultrafinegrid)\\Candidate Structure: Conf:234 Charge calc 
 in gas phase\\1,1\N,0,31.4691573694,-28.2975945579,41.2360276186\C,0,3
 2.7735889618,-27.7781899035,41.7987253702\C,0,32.9024796674,-28.434680
 8102,43.1955533877\O,0,31.9645083172,-29.1017567936,43.6464697705\C,0,
 33.9282750628,-28.0446870009,40.8154015713\C,0,33.9639633879,-29.43710
 80463,40.2202541735\C,0,33.3453113782,-30.5714046952,40.7853803926\C,0
 ,34.7289703531,-29.6432620286,39.0500292179\C,0,33.4775591045,-31.8327
 829832,40.2155791825\C,0,34.9340020113,-30.9028134279,38.5235438444\C,
 0,34.3613502841,-32.0789609246,39.1161684651\O,0,34.6722296136,-33.257
 7491649,38.7006582739\H,0,31.6961312193,-29.0230478808,40.5260525921\H
 ,0,32.6496456099,-26.7023589391,41.9567073194\H,0,33.8668046371,-27.29
 82845757,40.0125079149\H,0,34.8600951415,-27.7981963876,41.3483984574\
 H,0,32.7611735704,-30.507958489,41.7030225738\H,0,35.1986047596,-28.78
 61570217,38.5686130182\H,0,32.9299473741,-32.6631578366,40.6485084512\
 H,0,35.5586140838,-31.0438630489,37.6465692117\H,0,30.9768098202,-28.7
 589393296,42.0306082488\H,0,30.8844795217,-27.5706858071,40.817022855\
 N,0,34.046418063,-28.1892962448,43.855159253\C,0,34.1976004791,-28.395
 9926662,45.3082189955\C,0,34.0484769928,-29.854924768,45.7527288785\O,
 0,33.6811481774,-30.0967072499,46.8898502418\C,0,35.5556259767,-27.794
 5098504,45.7659846459\C,0,36.7607297059,-28.5636388911,45.2004366942\C
 ,0,35.6301732244,-27.6864690119,47.2948739524\H,0,34.7319553562,-27.58
 93021056,43.412526577\H,0,33.3830165994,-27.8682377597,45.814355235\H,
 0,35.5732368698,-26.7705124083,45.3604221997\H,0,36.7229730471,-28.676
 0105473,44.1088299337\H,0,37.6883760687,-28.0363687048,45.4414530572\H
 ,0,36.82675823,-29.565428732,45.6390616661\H,0,35.6019263811,-28.67305
 63197,47.7649430381\H,0,34.7950282074,-27.10326482,47.6959540033\H,0,3
 6.5623509575,-27.1910525818,47.5836183571\N,0,34.3660713974,-30.839777
 4754,44.8463091641\C,0,34.4029347401,-32.2403813565,45.2690890231\C,0,
 33.1588885765,-32.9969656314,44.7800032034\O,0,33.0722821563,-34.20580
 40441,44.8618395694\C,0,35.7542293579,-32.9489179421,44.9300771866\C,0
 ,35.7865894166,-33.922674822,43.7367484326\C,0,35.2107425433,-33.31527
 66732,42.4550789468\N,0,35.023208677,-34.2638493683,41.3523756583\C,0,
 33.918542369,-35.0249626898,41.1949806493\N,0,33.1872233229,-35.444184
 5945,42.2395031328\N,0,33.593942444,-35.3592586545,39.9428694762\O,0,3
 2.1676353446,-32.2696232088,44.246211967\H,0,32.3864464742,-31.3159098
 951,44.2906295209\H,0,32.2820017456,-35.8564617812,42.0664701969\H,0,3
 4.7801851803,-30.5806588118,43.9593451076\H,0,34.2955146589,-32.207015
 9734,46.3587363378\H,0,36.0779297561,-33.5001981281,45.8170658034\H,0,
 36.4946735215,-32.1527164365,44.7842026603\H,0,35.2456287445,-34.83156
 18786,44.0058119821\H,0,36.8246924909,-34.224462139,43.5600832808\H,0,
 35.8814729396,-32.5401075255,42.0731481697\H,0,34.2562189646,-32.81233
 6933,42.6475630925\H,0,35.3759155129,-33.9516125189,40.4411192566\H,0,
 33.3424100992,-35.1318260145,43.1946504248\H,0,32.8211199787,-35.98435
 25723,39.7653506115\H,0,33.9083792517,-34.6658397469,39.2153637061\\Ve
 rsion=ES64L-G16RevC.01\HF=-1486.5433674\RMSD=8.504e-09\Dipole=-1.49067
 28,3.5846958,-0.7887296\Quadrupole=-521.4386302,-1413.2859963,1934.724
 6265,-3465.4912693,5067.9736172,-4421.050493\PG=C01 [X(C20H33N6O5)]\\@
 The archive entry for this job was punched.


 FROM WHENCE IT HAPPENS, THAT THEY WHICH TRUST TO BOOKS, DO AS THEY THAT CAST UP MANY LITTLE SUMMS INTO GREATER,
 WITHOUT CONSIDERING WETHER THOSE LITTLE SUMMES WERE RIGHTLY CAST UP OR NOT...
 AND AT LAST FINDING THE ERROUR VISIBLE, AND NOT MISTRUSTING THEIR FIRST GROUNDS,
 KNOW NOT WHICH WAY TO CLEERE THEMSELVES...
 BUT SPEND TIME IN FLUTTERING OVER THEIR BOOKES....
 AS BIRDS THAT ENTERING BY THE CHIMNEY, AND FINDING THEMSELVES INCLOSED IN A CHAMBER,
 FLUTTER AT THE FALSE LIGHT OF A GLASSE WINDOW,
 FOR WANT OF WIT TO CONSIDER WHICH WAY THEY CAME IN....
           LEVIATHAN
 Job cpu time:       0 days  0 hours  1 minutes 37.6 seconds.
 Elapsed time:       0 days  0 hours  0 minutes 25.0 seconds.
 File lengths (MBytes):  RWF=    264 Int=      0 D2E=      0 Chk=     40 Scr=     16
 Normal termination of Gaussian 16 at Tue May 31 11:50:34 2022.
