 Entering Gaussian System, Link 0=/opt/software/Gaussian/g16-AVX2-C.01/g16/g16
 Input=charge-conf-474.com
 Output=charge-conf-474.log
 Initial command:
 /opt/software/Gaussian/g16-AVX2-C.01/g16/l1.exe "/mnt/gs18/scratch/users/kengmith/Gau-14183.inp" -scrdir="/mnt/gs18/scratch/users/kengmith/"
 Entering Link 1 = /opt/software/Gaussian/g16-AVX2-C.01/g16/l1.exe PID=     14193.
  
 Copyright (c) 1988-2019, Gaussian, Inc.  All Rights Reserved.
  
 This is part of the Gaussian(R) 16 program.  It is based on
 the Gaussian(R) 09 system (copyright 2009, Gaussian, Inc.),
 the Gaussian(R) 03 system (copyright 2003, Gaussian, Inc.),
 the Gaussian(R) 98 system (copyright 1998, Gaussian, Inc.),
 the Gaussian(R) 94 system (copyright 1995, Gaussian, Inc.),
 the Gaussian 92(TM) system (copyright 1992, Gaussian, Inc.),
 the Gaussian 90(TM) system (copyright 1990, Gaussian, Inc.),
 the Gaussian 88(TM) system (copyright 1988, Gaussian, Inc.),
 the Gaussian 86(TM) system (copyright 1986, Carnegie Mellon
 University), and the Gaussian 82(TM) system (copyright 1983,
 Carnegie Mellon University). Gaussian is a federally registered
 trademark of Gaussian, Inc.
  
 This software contains proprietary and confidential information,
 including trade secrets, belonging to Gaussian, Inc.
  
 This software is provided under written license and may be
 used, copied, transmitted, or stored only in accord with that
 written license.
  
 The following legend is applicable only to US Government
 contracts under FAR:
  
                    RESTRICTED RIGHTS LEGEND
  
 Use, reproduction and disclosure by the US Government is
 subject to restrictions as set forth in subparagraphs (a)
 and (c) of the Commercial Computer Software - Restricted
 Rights clause in FAR 52.227-19.
  
 Gaussian, Inc.
 340 Quinnipiac St., Bldg. 40, Wallingford CT 06492
  
  
 ---------------------------------------------------------------
 Warning -- This program may not be used in any manner that
 competes with the business of Gaussian, Inc. or will provide
 assistance to any competitor of Gaussian, Inc.  The licensee
 of this program is prohibited from giving any competitor of
 Gaussian, Inc. access to this program.  By using this program,
 the user acknowledges that Gaussian, Inc. is engaged in the
 business of creating and licensing software in the field of
 computational chemistry and represents and warrants to the
 licensee that it is not a competitor of Gaussian, Inc. and that
 it will not use this program in any manner prohibited above.
 ---------------------------------------------------------------
  

 Cite this work as:
 Gaussian 16, Revision C.01,
 M. J. Frisch, G. W. Trucks, H. B. Schlegel, G. E. Scuseria, 
 M. A. Robb, J. R. Cheeseman, G. Scalmani, V. Barone, 
 G. A. Petersson, H. Nakatsuji, X. Li, M. Caricato, A. V. Marenich, 
 J. Bloino, B. G. Janesko, R. Gomperts, B. Mennucci, H. P. Hratchian, 
 J. V. Ortiz, A. F. Izmaylov, J. L. Sonnenberg, D. Williams-Young, 
 F. Ding, F. Lipparini, F. Egidi, J. Goings, B. Peng, A. Petrone, 
 T. Henderson, D. Ranasinghe, V. G. Zakrzewski, J. Gao, N. Rega, 
 G. Zheng, W. Liang, M. Hada, M. Ehara, K. Toyota, R. Fukuda, 
 J. Hasegawa, M. Ishida, T. Nakajima, Y. Honda, O. Kitao, H. Nakai, 
 T. Vreven, K. Throssell, J. A. Montgomery, Jr., J. E. Peralta, 
 F. Ogliaro, M. J. Bearpark, J. J. Heyd, E. N. Brothers, K. N. Kudin, 
 V. N. Staroverov, T. A. Keith, R. Kobayashi, J. Normand, 
 K. Raghavachari, A. P. Rendell, J. C. Burant, S. S. Iyengar, 
 J. Tomasi, M. Cossi, J. M. Millam, M. Klene, C. Adamo, R. Cammi, 
 J. W. Ochterski, R. L. Martin, K. Morokuma, O. Farkas, 
 J. B. Foresman, and D. J. Fox, Gaussian, Inc., Wallingford CT, 2019.
 
 ******************************************
 Gaussian 16:  ES64L-G16RevC.01  3-Jul-2019
                31-May-2022 
 ******************************************
 %mem=8gb
 %nproc=4
 Will use up to    4 processors via shared memory.
 %chk=conf-474.chk
 ----------------------------------------------------------------------
 # B3LYP/6-31G* empiricaldispersion=gd3 guess=read geom=check nosymm in
 tegral(ultrafinegrid)
 ----------------------------------------------------------------------
 1/29=2,38=1,172=1/1;
 2/12=2,15=1,40=1/2;
 3/5=1,6=6,7=1,11=2,14=-4,25=1,30=1,74=-5,75=-5,116=-2,124=31/1,2,3;
 4/5=1/1;
 5/5=2,38=6/2;
 6/7=2,8=2,9=2,10=2,28=1/1;
 99/5=1,9=1/99;
 ------------------------------------------------------
 Candidate Structure: Conf:474 Charge calc in gas phase
 ------------------------------------------------------
 Structure from the checkpoint file:  "conf-474.chk"
 Charge =  1 Multiplicity = 1
 Redundant internal coordinates found in file.  (old form).
 N,0,35.8870227007,-30.4705159919,45.9623248956
 C,0,35.1333366155,-31.7890084241,45.9716968049
 C,0,33.7932108077,-31.3897183431,45.302749659
 O,0,33.3665823823,-30.2557827303,45.5307777681
 C,0,35.9989985294,-32.9388150188,45.399779145
 C,0,36.3161975704,-32.8236777983,43.9334246464
 C,0,35.5526087467,-33.5180818234,42.9632558925
 C,0,37.2976454735,-31.9470713447,43.4464068322
 C,0,35.6355878991,-33.2412664576,41.6135136105
 C,0,37.3964784902,-31.622444648,42.0930631133
 C,0,36.5202334717,-32.2114654205,41.0890820442
 O,0,36.503190613,-31.8443623448,39.8897187368
 H,0,35.2285961741,-29.743373033,46.2851676433
 H,0,34.9086244513,-31.9839760234,47.0275129093
 H,0,36.9084073849,-32.9849417588,46.017673453
 H,0,35.4570457027,-33.8688638632,45.6166931268
 H,0,34.8941394304,-34.3272344192,43.2934110232
 H,0,37.9908119523,-31.4751546073,44.1467971402
 H,0,35.059469236,-33.808120097,40.8873375776
 H,0,38.1989903115,-30.9814986691,41.7349214817
 H,0,36.7262411667,-30.4932518224,46.547279471
 H,0,36.1421128345,-30.1844281485,44.990454586
 N,0,33.1475267504,-32.2695798533,44.5119402805
 C,0,31.949122914,-31.8358034184,43.7883583621
 C,0,32.2550571324,-30.7003553392,42.7961253482
 O,0,31.3236085051,-29.9627749645,42.4330323402
 C,0,31.2085017443,-33.0329116641,43.1333649212
 C,0,31.8933146089,-33.5295965765,41.8519432226
 C,0,29.7363254076,-32.6857221503,42.8703015524
 H,0,33.6183587091,-33.112935192,44.2132315694
 H,0,31.2854541879,-31.3655707417,44.519364351
 H,0,31.2375790651,-33.8365012848,43.8822036538
 H,0,32.9547023195,-33.7495555089,41.9926495923
 H,0,31.4065357015,-34.4414427294,41.493165764
 H,0,31.8187890019,-32.7806652905,41.0534674983
 H,0,29.6500266375,-31.8530548154,42.1658506594
 H,0,29.2207625704,-32.4002704622,43.7935956311
 H,0,29.218291402,-33.5515527989,42.4458171096
 N,0,33.5225605893,-30.553654307,42.3492424244
 C,0,34.0322709077,-29.2693926914,41.8460533594
 C,0,34.8792758959,-28.6576914644,42.9767149593
 O,0,34.5574361035,-27.6682803843,43.5801475289
 C,0,34.7569802004,-29.3719207904,40.4922225795
 C,0,33.9759479707,-30.1149018524,39.3968801443
 C,0,32.8337925964,-29.3289516218,38.7440701496
 N,0,31.7485167662,-29.0485488135,39.7027762817
 C,0,31.0948310151,-27.8975558605,39.8500448159
 N,0,31.0652394279,-26.9853873896,38.8610650819
 N,0,30.4807365162,-27.6372556441,41.0137035602
 O,0,35.992407134,-29.3531655773,43.3455063569
 H,0,36.2951167096,-30.0710089113,42.7175316954
 H,0,30.7382596931,-26.0451757438,39.0283324378
 H,0,34.1973838994,-31.2919285066,42.5383510809
 H,0,33.1733091405,-28.6071094765,41.7743843818
 H,0,35.7070823952,-29.9019059906,40.592200709
 H,0,34.9948807201,-28.3491427982,40.170558946
 H,0,33.6013674675,-31.0678365879,39.7899872173
 H,0,34.686811118,-30.396059264,38.6150015628
 H,0,32.4279709836,-29.8899942,37.8942974848
 H,0,33.2130584496,-28.3715170986,38.3694963176
 H,0,31.6137685707,-29.7029682618,40.4735939156
 H,0,31.3285669519,-27.2290817998,37.9182079199
 H,0,29.7456812795,-26.9477500192,41.0720941561
 H,0,30.6106284357,-28.2884552577,41.7878020162
 Recover connectivity data from disk.
                           ----------------------------
                           !    Current Parameters    !
                           ! (Angstroms and Degrees)  !
 --------------------------                            --------------------------
 ! Name  Definition              Value                                          !
 --------------------------------------------------------------------------------
 ! R1    R(1,2)                  1.5187                                         !
 ! R2    R(1,13)                 1.0327                                         !
 ! R3    R(1,21)                 1.0232                                         !
 ! R4    R(1,22)                 1.0447                                         !
 ! R5    R(2,3)                  1.5501                                         !
 ! R6    R(2,5)                  1.5487                                         !
 ! R7    R(2,14)                 1.0969                                         !
 ! R8    R(3,4)                  1.2328                                         !
 ! R9    R(3,23)                 1.3478                                         !
 ! R10   R(5,6)                  1.5047                                         !
 ! R11   R(5,15)                 1.1004                                         !
 ! R12   R(5,16)                 1.0981                                         !
 ! R13   R(6,7)                  1.4165                                         !
 ! R14   R(6,8)                  1.4032                                         !
 ! R15   R(7,9)                  1.3803                                         !
 ! R16   R(7,17)                 1.0942                                         !
 ! R17   R(8,10)                 1.3952                                         !
 ! R18   R(8,18)                 1.0926                                         !
 ! R19   R(9,11)                 1.4554                                         !
 ! R20   R(9,19)                 1.0865                                         !
 ! R21   R(10,11)                1.457                                          !
 ! R22   R(10,20)                1.0877                                         !
 ! R23   R(11,12)                1.2544                                         !
 ! R24   R(23,24)                1.4656                                         !
 ! R25   R(23,30)                1.011                                          !
 ! R26   R(24,25)                1.5386                                         !
 ! R27   R(24,27)                1.5526                                         !
 ! R28   R(24,31)                1.0936                                         !
 ! R29   R(25,26)                1.2424                                         !
 ! R30   R(25,39)                1.352                                          !
 ! R31   R(27,28)                1.5355                                         !
 ! R32   R(27,29)                1.5353                                         !
 ! R33   R(27,32)                1.0988                                         !
 ! R34   R(28,33)                1.093                                          !
 ! R35   R(28,34)                1.0941                                         !
 ! R36   R(28,35)                1.0973                                         !
 ! R37   R(29,36)                1.0941                                         !
 ! R38   R(29,37)                1.0953                                         !
 ! R39   R(29,38)                1.0946                                         !
 ! R40   R(39,40)                1.4705                                         !
 ! R41   R(39,53)                1.0179                                         !
 ! R42   R(40,41)                1.5395                                         !
 ! R43   R(40,43)                1.539                                          !
 ! R44   R(40,54)                1.087                                          !
 ! R45   R(41,42)                1.2028                                         !
 ! R46   R(41,50)                1.3634                                         !
 ! R47   R(43,44)                1.5368                                         !
 ! R48   R(43,55)                1.0925                                         !
 ! R49   R(43,56)                1.0982                                         !
 ! R50   R(44,45)                1.5324                                         !
 ! R51   R(44,57)                1.0968                                         !
 ! R52   R(44,58)                1.0935                                         !
 ! R53   R(45,46)                1.475                                          !
 ! R54   R(45,59)                1.0962                                         !
 ! R55   R(45,60)                1.0958                                         !
 ! R56   R(46,47)                1.3318                                         !
 ! R57   R(46,61)                1.0201                                         !
 ! R58   R(47,48)                1.3457                                         !
 ! R59   R(47,49)                1.3413                                         !
 ! R60   R(48,52)                1.0094                                         !
 ! R61   R(48,62)                1.0088                                         !
 ! R62   R(49,63)                1.0095                                         !
 ! R63   R(49,64)                1.0199                                         !
 ! R64   R(50,51)                1.0006                                         !
 ! A1    A(2,1,13)             107.0344                                         !
 ! A2    A(2,1,21)             112.5942                                         !
 ! A3    A(2,1,22)             111.3859                                         !
 ! A4    A(13,1,21)            111.0909                                         !
 ! A5    A(13,1,22)            104.6953                                         !
 ! A6    A(21,1,22)            109.733                                          !
 ! A7    A(1,2,3)              101.6975                                         !
 ! A8    A(1,2,5)              111.3998                                         !
 ! A9    A(1,2,14)             105.1832                                         !
 ! A10   A(3,2,5)              121.0049                                         !
 ! A11   A(3,2,14)             106.5021                                         !
 ! A12   A(5,2,14)             109.7545                                         !
 ! A13   A(2,3,4)              117.1479                                         !
 ! A14   A(2,3,23)             119.9493                                         !
 ! A15   A(4,3,23)             122.9028                                         !
 ! A16   A(2,5,6)              114.8915                                         !
 ! A17   A(2,5,15)             106.6003                                         !
 ! A18   A(2,5,16)             106.2604                                         !
 ! A19   A(6,5,15)             112.0981                                         !
 ! A20   A(6,5,16)             111.184                                          !
 ! A21   A(15,5,16)            105.1563                                         !
 ! A22   A(5,6,7)              121.0848                                         !
 ! A23   A(5,6,8)              122.2422                                         !
 ! A24   A(7,6,8)              116.4612                                         !
 ! A25   A(6,7,9)              122.6161                                         !
 ! A26   A(6,7,17)             118.7018                                         !
 ! A27   A(9,7,17)             118.6536                                         !
 ! A28   A(6,8,10)             122.1113                                         !
 ! A29   A(6,8,18)             119.4129                                         !
 ! A30   A(10,8,18)            118.4478                                         !
 ! A31   A(7,9,11)             122.0593                                         !
 ! A32   A(7,9,19)             121.1331                                         !
 ! A33   A(11,9,19)            116.7836                                         !
 ! A34   A(8,10,11)            122.1229                                         !
 ! A35   A(8,10,20)            120.5801                                         !
 ! A36   A(11,10,20)           117.0691                                         !
 ! A37   A(9,11,10)            113.7863                                         !
 ! A38   A(9,11,12)            122.9118                                         !
 ! A39   A(10,11,12)           123.279                                          !
 ! A40   A(3,23,24)            119.2235                                         !
 ! A41   A(3,23,30)            119.6581                                         !
 ! A42   A(24,23,30)           118.8048                                         !
 ! A43   A(23,24,25)           111.9763                                         !
 ! A44   A(23,24,27)           111.7239                                         !
 ! A45   A(23,24,31)           107.0666                                         !
 ! A46   A(25,24,27)           113.0656                                         !
 ! A47   A(25,24,31)           103.5575                                         !
 ! A48   A(27,24,31)           108.9075                                         !
 ! A49   A(24,25,26)           118.5237                                         !
 ! A50   A(24,25,39)           118.6628                                         !
 ! A51   A(26,25,39)           122.8117                                         !
 ! A52   A(24,27,28)           112.8751                                         !
 ! A53   A(24,27,29)           110.8141                                         !
 ! A54   A(24,27,32)           105.2928                                         !
 ! A55   A(28,27,29)           110.9663                                         !
 ! A56   A(28,27,32)           108.6857                                         !
 ! A57   A(29,27,32)           107.9107                                         !
 ! A58   A(27,28,33)           113.0008                                         !
 ! A59   A(27,28,34)           110.1703                                         !
 ! A60   A(27,28,35)           110.8678                                         !
 ! A61   A(33,28,34)           107.8495                                         !
 ! A62   A(33,28,35)           107.2763                                         !
 ! A63   A(34,28,35)           107.4569                                         !
 ! A64   A(27,29,36)           110.9816                                         !
 ! A65   A(27,29,37)           111.4597                                         !
 ! A66   A(27,29,38)           109.9607                                         !
 ! A67   A(36,29,37)           107.8951                                         !
 ! A68   A(36,29,38)           108.359                                          !
 ! A69   A(37,29,38)           108.0749                                         !
 ! A70   A(25,39,40)           122.1983                                         !
 ! A71   A(25,39,53)           118.7778                                         !
 ! A72   A(40,39,53)           117.8525                                         !
 ! A73   A(39,40,41)           106.6433                                         !
 ! A74   A(39,40,43)           113.9574                                         !
 ! A75   A(39,40,54)           106.3061                                         !
 ! A76   A(41,40,43)           114.4225                                         !
 ! A77   A(41,40,54)           103.9514                                         !
 ! A78   A(43,40,54)           110.7747                                         !
 ! A79   A(40,41,42)           123.2376                                         !
 ! A80   A(40,41,50)           116.4352                                         !
 ! A81   A(42,41,50)           120.1582                                         !
 ! A82   A(40,43,44)           114.8262                                         !
 ! A83   A(40,43,55)           111.1818                                         !
 ! A84   A(40,43,56)           107.3141                                         !
 ! A85   A(44,43,55)           105.823                                          !
 ! A86   A(44,43,56)           110.5834                                         !
 ! A87   A(55,43,56)           106.8696                                         !
 ! A88   A(43,44,45)           115.7502                                         !
 ! A89   A(43,44,57)           109.7648                                         !
 ! A90   A(43,44,58)           107.671                                          !
 ! A91   A(45,44,57)           110.1053                                         !
 ! A92   A(45,44,58)           108.1673                                         !
 ! A93   A(57,44,58)           104.768                                          !
 ! A94   A(44,45,46)           111.6545                                         !
 ! A95   A(44,45,59)           110.1006                                         !
 ! A96   A(44,45,60)           109.6188                                         !
 ! A97   A(46,45,59)           109.1945                                         !
 ! A98   A(46,45,60)           108.1035                                         !
 ! A99   A(59,45,60)           108.0793                                         !
 ! A100  A(45,46,47)           126.677                                          !
 ! A101  A(45,46,61)           117.7998                                         !
 ! A102  A(47,46,61)           113.9559                                         !
 ! A103  A(46,47,48)           121.0185                                         !
 ! A104  A(46,47,49)           119.2338                                         !
 ! A105  A(48,47,49)           119.7341                                         !
 ! A106  A(47,48,52)           121.1113                                         !
 ! A107  A(47,48,62)           121.1561                                         !
 ! A108  A(52,48,62)           117.6738                                         !
 ! A109  A(47,49,63)           121.0713                                         !
 ! A110  A(47,49,64)           118.4426                                         !
 ! A111  A(63,49,64)           119.008                                          !
 ! A112  A(41,50,51)           116.3071                                         !
 ! D1    D(13,1,2,3)            45.4301                                         !
 ! D2    D(13,1,2,5)           175.6803                                         !
 ! D3    D(13,1,2,14)          -65.4709                                         !
 ! D4    D(21,1,2,3)           167.784                                          !
 ! D5    D(21,1,2,5)           -61.9658                                         !
 ! D6    D(21,1,2,14)           56.883                                          !
 ! D7    D(22,1,2,3)           -68.4561                                         !
 ! D8    D(22,1,2,5)            61.7941                                         !
 ! D9    D(22,1,2,14)         -179.3572                                         !
 ! D10   D(1,2,3,4)            -34.4938                                         !
 ! D11   D(1,2,3,23)           145.5504                                         !
 ! D12   D(5,2,3,4)           -158.491                                          !
 ! D13   D(5,2,3,23)            21.5532                                         !
 ! D14   D(14,2,3,4)            75.4006                                         !
 ! D15   D(14,2,3,23)         -104.5551                                         !
 ! D16   D(1,2,5,6)            -66.9531                                         !
 ! D17   D(1,2,5,15)            57.8727                                         !
 ! D18   D(1,2,5,16)           169.6589                                         !
 ! D19   D(3,2,5,6)             52.3595                                         !
 ! D20   D(3,2,5,15)           177.1852                                         !
 ! D21   D(3,2,5,16)           -71.0285                                         !
 ! D22   D(14,2,5,6)           176.9668                                         !
 ! D23   D(14,2,5,15)          -58.2075                                         !
 ! D24   D(14,2,5,16)           53.5788                                         !
 ! D25   D(2,3,23,24)         -174.3406                                         !
 ! D26   D(2,3,23,30)          -11.8106                                         !
 ! D27   D(4,3,23,24)            5.7063                                         !
 ! D28   D(4,3,23,30)          168.2363                                         !
 ! D29   D(2,5,6,7)            -97.2659                                         !
 ! D30   D(2,5,6,8)             77.257                                          !
 ! D31   D(15,5,6,7)           140.8424                                         !
 ! D32   D(15,5,6,8)           -44.6346                                         !
 ! D33   D(16,5,6,7)            23.4561                                         !
 ! D34   D(16,5,6,8)          -162.0209                                         !
 ! D35   D(5,6,7,9)            166.9277                                         !
 ! D36   D(5,6,7,17)           -15.0421                                         !
 ! D37   D(8,6,7,9)             -7.8985                                         !
 ! D38   D(8,6,7,17)           170.1317                                         !
 ! D39   D(5,6,8,10)          -165.7657                                         !
 ! D40   D(5,6,8,18)            12.2801                                         !
 ! D41   D(7,6,8,10)             8.9956                                         !
 ! D42   D(7,6,8,18)          -172.9587                                         !
 ! D43   D(6,7,9,11)             0.0873                                         !
 ! D44   D(6,7,9,19)           178.2486                                         !
 ! D45   D(17,7,9,11)         -177.9438                                         !
 ! D46   D(17,7,9,19)            0.2175                                         !
 ! D47   D(6,8,10,11)           -2.406                                          !
 ! D48   D(6,8,10,20)         -176.7592                                         !
 ! D49   D(18,8,10,11)         179.5301                                         !
 ! D50   D(18,8,10,20)           5.1769                                         !
 ! D51   D(7,9,11,10)            6.3995                                         !
 ! D52   D(7,9,11,12)         -171.9085                                         !
 ! D53   D(19,9,11,10)        -171.8375                                         !
 ! D54   D(19,9,11,12)           9.8545                                         !
 ! D55   D(8,10,11,9)           -5.2859                                         !
 ! D56   D(8,10,11,12)         173.015                                          !
 ! D57   D(20,10,11,9)         169.2552                                         !
 ! D58   D(20,10,11,12)        -12.4439                                         !
 ! D59   D(3,23,24,25)          61.8886                                         !
 ! D60   D(3,23,24,27)        -170.1183                                         !
 ! D61   D(3,23,24,31)         -50.9615                                         !
 ! D62   D(30,23,24,25)       -100.7911                                         !
 ! D63   D(30,23,24,27)         27.2021                                         !
 ! D64   D(30,23,24,31)        146.3588                                         !
 ! D65   D(23,24,25,26)       -157.8003                                         !
 ! D66   D(23,24,25,39)         22.6748                                         !
 ! D67   D(27,24,25,26)         74.9236                                         !
 ! D68   D(27,24,25,39)       -104.6012                                         !
 ! D69   D(31,24,25,26)        -42.785                                          !
 ! D70   D(31,24,25,39)        137.6901                                         !
 ! D71   D(23,24,27,28)        -77.0178                                         !
 ! D72   D(23,24,27,29)        157.8222                                         !
 ! D73   D(23,24,27,32)         41.397                                          !
 ! D74   D(25,24,27,28)         50.3909                                         !
 ! D75   D(25,24,27,29)        -74.7691                                         !
 ! D76   D(25,24,27,32)        168.8057                                         !
 ! D77   D(31,24,27,28)        164.9213                                         !
 ! D78   D(31,24,27,29)         39.7613                                         !
 ! D79   D(31,24,27,32)        -76.6639                                         !
 ! D80   D(24,25,39,40)       -156.0378                                         !
 ! D81   D(24,25,39,53)         11.3216                                         !
 ! D82   D(26,25,39,40)         24.459                                          !
 ! D83   D(26,25,39,53)       -168.1817                                         !
 ! D84   D(24,27,28,33)         52.6744                                         !
 ! D85   D(24,27,28,34)        173.3835                                         !
 ! D86   D(24,27,28,35)        -67.7965                                         !
 ! D87   D(29,27,28,33)        177.7518                                         !
 ! D88   D(29,27,28,34)        -61.5391                                         !
 ! D89   D(29,27,28,35)         57.2809                                         !
 ! D90   D(32,27,28,33)        -63.7415                                         !
 ! D91   D(32,27,28,34)         56.9676                                         !
 ! D92   D(32,27,28,35)        175.7876                                         !
 ! D93   D(24,27,29,36)         62.3678                                         !
 ! D94   D(24,27,29,37)        -57.9211                                         !
 ! D95   D(24,27,29,38)       -177.7525                                         !
 ! D96   D(28,27,29,36)        -63.8615                                         !
 ! D97   D(28,27,29,37)        175.8496                                         !
 ! D98   D(28,27,29,38)         56.0182                                         !
 ! D99   D(32,27,29,36)        177.1645                                         !
 ! D100  D(32,27,29,37)         56.8756                                         !
 ! D101  D(32,27,29,38)        -62.9558                                         !
 ! D102  D(25,39,40,41)        101.6381                                         !
 ! D103  D(25,39,40,43)       -131.1292                                         !
 ! D104  D(25,39,40,54)         -8.827                                          !
 ! D105  D(53,39,40,41)        -65.8325                                         !
 ! D106  D(53,39,40,43)         61.4002                                         !
 ! D107  D(53,39,40,54)       -176.2976                                         !
 ! D108  D(39,40,41,42)       -111.7552                                         !
 ! D109  D(39,40,41,50)         63.5169                                         !
 ! D110  D(43,40,41,42)        121.2884                                         !
 ! D111  D(43,40,41,50)        -63.4395                                         !
 ! D112  D(54,40,41,42)          0.3444                                         !
 ! D113  D(54,40,41,50)        175.6164                                         !
 ! D114  D(39,40,43,44)         50.7299                                         !
 ! D115  D(39,40,43,55)        -69.3672                                         !
 ! D116  D(39,40,43,56)        174.0948                                         !
 ! D117  D(41,40,43,44)        173.8219                                         !
 ! D118  D(41,40,43,55)         53.7249                                         !
 ! D119  D(41,40,43,56)        -62.8132                                         !
 ! D120  D(54,40,43,44)        -69.0828                                         !
 ! D121  D(54,40,43,55)        170.8201                                         !
 ! D122  D(54,40,43,56)         54.282                                          !
 ! D123  D(40,41,50,51)         14.588                                          !
 ! D124  D(42,41,50,51)       -169.9852                                         !
 ! D125  D(40,43,44,45)         76.3577                                         !
 ! D126  D(40,43,44,57)        -49.0124                                         !
 ! D127  D(40,43,44,58)       -162.5126                                         !
 ! D128  D(55,43,44,45)       -160.624                                          !
 ! D129  D(55,43,44,57)         74.006                                          !
 ! D130  D(55,43,44,58)        -39.4942                                         !
 ! D131  D(56,43,44,45)        -45.2438                                         !
 ! D132  D(56,43,44,57)       -170.6139                                         !
 ! D133  D(56,43,44,58)         75.8859                                         !
 ! D134  D(43,44,45,46)        -65.921                                          !
 ! D135  D(43,44,45,59)        172.6138                                         !
 ! D136  D(43,44,45,60)         53.845                                          !
 ! D137  D(57,44,45,46)         59.2746                                         !
 ! D138  D(57,44,45,59)        -62.1907                                         !
 ! D139  D(57,44,45,60)        179.0405                                         !
 ! D140  D(58,44,45,46)        173.2164                                         !
 ! D141  D(58,44,45,59)         51.7512                                         !
 ! D142  D(58,44,45,60)        -67.0176                                         !
 ! D143  D(44,45,46,47)        136.5924                                         !
 ! D144  D(44,45,46,61)        -28.2                                            !
 ! D145  D(59,45,46,47)       -101.4191                                         !
 ! D146  D(59,45,46,61)         93.7885                                         !
 ! D147  D(60,45,46,47)         15.9374                                         !
 ! D148  D(60,45,46,61)       -148.855                                          !
 ! D149  D(45,46,47,48)         21.2878                                         !
 ! D150  D(45,46,47,49)       -157.3699                                         !
 ! D151  D(61,46,47,48)       -173.4214                                         !
 ! D152  D(61,46,47,49)          7.9209                                         !
 ! D153  D(46,47,48,52)       -167.3881                                         !
 ! D154  D(46,47,48,62)         15.4642                                         !
 ! D155  D(49,47,48,52)         11.2629                                         !
 ! D156  D(49,47,48,62)       -165.8847                                         !
 ! D157  D(46,47,49,63)       -159.9157                                         !
 ! D158  D(46,47,49,64)          6.0762                                         !
 ! D159  D(48,47,49,63)         21.4091                                         !
 ! D160  D(48,47,49,64)       -172.599                                          !
 --------------------------------------------------------------------------------
 Symmetry turned off by external request.
 Stoichiometry    C20H33N6O5(1+)
 Framework group  C1[X(C20H33N6O5)]
 Deg. of freedom   186
 Full point group                 C1      NOp   1
                          Input orientation:                          
 ---------------------------------------------------------------------
 Center     Atomic      Atomic             Coordinates (Angstroms)
 Number     Number       Type             X           Y           Z
 ---------------------------------------------------------------------
      1          7           0       35.887023  -30.470516   45.962325
      2          6           0       35.133337  -31.789008   45.971697
      3          6           0       33.793211  -31.389718   45.302750
      4          8           0       33.366582  -30.255783   45.530778
      5          6           0       35.998999  -32.938815   45.399779
      6          6           0       36.316198  -32.823678   43.933425
      7          6           0       35.552609  -33.518082   42.963256
      8          6           0       37.297645  -31.947071   43.446407
      9          6           0       35.635588  -33.241266   41.613514
     10          6           0       37.396478  -31.622445   42.093063
     11          6           0       36.520233  -32.211465   41.089082
     12          8           0       36.503191  -31.844362   39.889719
     13          1           0       35.228596  -29.743373   46.285168
     14          1           0       34.908624  -31.983976   47.027513
     15          1           0       36.908407  -32.984942   46.017673
     16          1           0       35.457046  -33.868864   45.616693
     17          1           0       34.894139  -34.327234   43.293411
     18          1           0       37.990812  -31.475155   44.146797
     19          1           0       35.059469  -33.808120   40.887338
     20          1           0       38.198990  -30.981499   41.734921
     21          1           0       36.726241  -30.493252   46.547279
     22          1           0       36.142113  -30.184428   44.990455
     23          7           0       33.147527  -32.269580   44.511940
     24          6           0       31.949123  -31.835803   43.788358
     25          6           0       32.255057  -30.700355   42.796125
     26          8           0       31.323609  -29.962775   42.433032
     27          6           0       31.208502  -33.032912   43.133365
     28          6           0       31.893315  -33.529597   41.851943
     29          6           0       29.736325  -32.685722   42.870302
     30          1           0       33.618359  -33.112935   44.213232
     31          1           0       31.285454  -31.365571   44.519364
     32          1           0       31.237579  -33.836501   43.882204
     33          1           0       32.954702  -33.749556   41.992650
     34          1           0       31.406536  -34.441443   41.493166
     35          1           0       31.818789  -32.780665   41.053467
     36          1           0       29.650027  -31.853055   42.165851
     37          1           0       29.220763  -32.400270   43.793596
     38          1           0       29.218291  -33.551553   42.445817
     39          7           0       33.522561  -30.553654   42.349242
     40          6           0       34.032271  -29.269393   41.846053
     41          6           0       34.879276  -28.657691   42.976715
     42          8           0       34.557436  -27.668280   43.580148
     43          6           0       34.756980  -29.371921   40.492223
     44          6           0       33.975948  -30.114902   39.396880
     45          6           0       32.833793  -29.328952   38.744070
     46          7           0       31.748517  -29.048549   39.702776
     47          6           0       31.094831  -27.897556   39.850045
     48          7           0       31.065239  -26.985387   38.861065
     49          7           0       30.480737  -27.637256   41.013704
     50          8           0       35.992407  -29.353166   43.345506
     51          1           0       36.295117  -30.071009   42.717532
     52          1           0       30.738260  -26.045176   39.028332
     53          1           0       34.197384  -31.291929   42.538351
     54          1           0       33.173309  -28.607109   41.774384
     55          1           0       35.707082  -29.901906   40.592201
     56          1           0       34.994881  -28.349143   40.170559
     57          1           0       33.601367  -31.067837   39.789987
     58          1           0       34.686811  -30.396059   38.615002
     59          1           0       32.427971  -29.889994   37.894297
     60          1           0       33.213058  -28.371517   38.369496
     61          1           0       31.613769  -29.702968   40.473594
     62          1           0       31.328567  -27.229082   37.918208
     63          1           0       29.745681  -26.947750   41.072094
     64          1           0       30.610628  -28.288455   41.787802
 ---------------------------------------------------------------------
 Rotational constants (GHZ):           0.2007107           0.1241129           0.1121884
 Standard basis: 6-31G(d) (6D, 7F)
   531 basis functions,  1000 primitive gaussians,   531 cartesian basis functions
   117 alpha electrons      117 beta electrons
       nuclear repulsion energy      3625.7942938630 Hartrees.
 NAtoms=   64 NActive=   64 NUniq=   64 SFac= 1.00D+00 NAtFMM=   60 NAOKFM=T Big=T
 Integral buffers will be    131072 words long.
 Raffenetti 2 integral format.
 Two-electron integral symmetry is turned off.
 Nuclear repulsion after empirical dispersion term =     3625.6919383882 Hartrees.
 One-electron integrals computed using PRISM.
 NBasis=   531 RedAO= T EigKep=  4.90D-04  NBF=   531
 NBsUse=   531 1.00D-06 EigRej= -1.00D+00 NBFU=   531
 Initial guess from the checkpoint file:  "conf-474.chk"
 B after Tr=     0.000000    0.000000    0.000000
         Rot=    1.000000    0.000000    0.000000    0.000000 Ang=   0.00 deg.
 Requested convergence on RMS density matrix=1.00D-08 within 128 cycles.
 Requested convergence on MAX density matrix=1.00D-06.
 Requested convergence on             energy=1.00D-06.
 No special actions if energy rises.
 SCF Done:  E(RB3LYP) =  -1486.54085597     A.U. after    2 cycles
            NFock=  2  Conv=0.94D-08     -V/T= 2.0094

 **********************************************************************

            Population analysis using the SCF Density.

 **********************************************************************

 Alpha  occ. eigenvalues --  -19.29668 -19.25467 -19.25229 -19.24060 -19.13573
 Alpha  occ. eigenvalues --  -14.57692 -14.51762 -14.50532 -14.50299 -14.49485
 Alpha  occ. eigenvalues --  -14.48637 -10.47401 -10.42814 -10.42335 -10.42053
 Alpha  occ. eigenvalues --  -10.39168 -10.35288 -10.35045 -10.35039 -10.32026
 Alpha  occ. eigenvalues --  -10.30850 -10.29760 -10.29119 -10.28982 -10.27714
 Alpha  occ. eigenvalues --  -10.27648 -10.27587 -10.26999 -10.26867 -10.24713
 Alpha  occ. eigenvalues --  -10.24351  -1.20024  -1.18144  -1.16661  -1.15781
 Alpha  occ. eigenvalues --   -1.12345  -1.11758  -1.06422  -1.05164  -1.04577
 Alpha  occ. eigenvalues --   -1.03938  -1.03480  -0.93827  -0.92000  -0.90857
 Alpha  occ. eigenvalues --   -0.89324  -0.86886  -0.83211  -0.82231  -0.81234
 Alpha  occ. eigenvalues --   -0.79970  -0.78474  -0.77589  -0.75495  -0.73588
 Alpha  occ. eigenvalues --   -0.73304  -0.72646  -0.71825  -0.71544  -0.70956
 Alpha  occ. eigenvalues --   -0.69733  -0.69166  -0.68404  -0.67761  -0.66336
 Alpha  occ. eigenvalues --   -0.65105  -0.64696  -0.64518  -0.64002  -0.61842
 Alpha  occ. eigenvalues --   -0.60402  -0.60132  -0.59610  -0.58755  -0.57519
 Alpha  occ. eigenvalues --   -0.57298  -0.56558  -0.56178  -0.55415  -0.54694
 Alpha  occ. eigenvalues --   -0.54637  -0.54361  -0.53797  -0.53255  -0.52594
 Alpha  occ. eigenvalues --   -0.52364  -0.51932  -0.51369  -0.50876  -0.49609
 Alpha  occ. eigenvalues --   -0.49476  -0.49191  -0.48680  -0.48501  -0.47731
 Alpha  occ. eigenvalues --   -0.46974  -0.45968  -0.45780  -0.45200  -0.44666
 Alpha  occ. eigenvalues --   -0.44579  -0.44122  -0.43823  -0.42420  -0.42266
 Alpha  occ. eigenvalues --   -0.41871  -0.41655  -0.41078  -0.40370  -0.39582
 Alpha  occ. eigenvalues --   -0.39445  -0.37807  -0.37302  -0.36099  -0.33321
 Alpha  occ. eigenvalues --   -0.27318  -0.25288
 Alpha virt. eigenvalues --   -0.12868  -0.12239  -0.11502  -0.09113  -0.08656
 Alpha virt. eigenvalues --   -0.07702  -0.06977  -0.05872  -0.03511  -0.03290
 Alpha virt. eigenvalues --   -0.02617  -0.02123  -0.01539  -0.01159  -0.00095
 Alpha virt. eigenvalues --    0.00059   0.00816   0.01726   0.02179   0.02378
 Alpha virt. eigenvalues --    0.02889   0.03435   0.03814   0.04227   0.04823
 Alpha virt. eigenvalues --    0.04917   0.05385   0.05860   0.06272   0.06593
 Alpha virt. eigenvalues --    0.07020   0.07224   0.07466   0.07768   0.08215
 Alpha virt. eigenvalues --    0.08537   0.09099   0.09690   0.09900   0.10517
 Alpha virt. eigenvalues --    0.11139   0.11407   0.11791   0.12267   0.12407
 Alpha virt. eigenvalues --    0.12817   0.13055   0.13407   0.13917   0.14500
 Alpha virt. eigenvalues --    0.15218   0.16257   0.17153   0.18073   0.18975
 Alpha virt. eigenvalues --    0.19079   0.21509   0.22568   0.23296   0.24031
 Alpha virt. eigenvalues --    0.24592   0.25099   0.26034   0.26366   0.27297
 Alpha virt. eigenvalues --    0.28232   0.29789   0.31014   0.31644   0.36378
 Alpha virt. eigenvalues --    0.37148   0.37632   0.38826   0.38931   0.39631
 Alpha virt. eigenvalues --    0.39955   0.40145   0.40919   0.41031   0.41790
 Alpha virt. eigenvalues --    0.42402   0.43047   0.44114   0.44230   0.45144
 Alpha virt. eigenvalues --    0.45696   0.45912   0.46871   0.47109   0.47526
 Alpha virt. eigenvalues --    0.48415   0.48796   0.48956   0.50328   0.50915
 Alpha virt. eigenvalues --    0.51241   0.51712   0.51880   0.53022   0.53094
 Alpha virt. eigenvalues --    0.53569   0.54018   0.54649   0.54973   0.55382
 Alpha virt. eigenvalues --    0.56171   0.56719   0.57086   0.57880   0.58517
 Alpha virt. eigenvalues --    0.58990   0.60099   0.60391   0.60697   0.61029
 Alpha virt. eigenvalues --    0.61727   0.63127   0.63378   0.64145   0.64875
 Alpha virt. eigenvalues --    0.65846   0.66858   0.67464   0.67736   0.68039
 Alpha virt. eigenvalues --    0.68989   0.69270   0.69712   0.70048   0.70418
 Alpha virt. eigenvalues --    0.71312   0.71975   0.72291   0.72490   0.72841
 Alpha virt. eigenvalues --    0.72977   0.73701   0.74180   0.75089   0.75113
 Alpha virt. eigenvalues --    0.75588   0.76688   0.76914   0.77419   0.77957
 Alpha virt. eigenvalues --    0.78682   0.78920   0.79098   0.79845   0.80129
 Alpha virt. eigenvalues --    0.80610   0.81047   0.81476   0.81800   0.82109
 Alpha virt. eigenvalues --    0.82823   0.83400   0.84053   0.84521   0.84953
 Alpha virt. eigenvalues --    0.85008   0.85681   0.86687   0.87348   0.88254
 Alpha virt. eigenvalues --    0.88863   0.89270   0.90386   0.90581   0.91944
 Alpha virt. eigenvalues --    0.92618   0.93173   0.93447   0.94913   0.95620
 Alpha virt. eigenvalues --    0.95993   0.96833   0.97543   0.99003   0.99867
 Alpha virt. eigenvalues --    1.00145   1.01140   1.01854   1.02091   1.03125
 Alpha virt. eigenvalues --    1.03956   1.04245   1.05151   1.05650   1.07561
 Alpha virt. eigenvalues --    1.09043   1.09894   1.11991   1.12290   1.12714
 Alpha virt. eigenvalues --    1.13061   1.14218   1.15088   1.16633   1.17192
 Alpha virt. eigenvalues --    1.18360   1.18592   1.19644   1.19935   1.20684
 Alpha virt. eigenvalues --    1.21588   1.22412   1.22985   1.23836   1.24722
 Alpha virt. eigenvalues --    1.25807   1.28219   1.29043   1.29451   1.31462
 Alpha virt. eigenvalues --    1.32757   1.33567   1.34928   1.35929   1.37270
 Alpha virt. eigenvalues --    1.37888   1.38566   1.39013   1.39697   1.40864
 Alpha virt. eigenvalues --    1.41409   1.43303   1.44304   1.45410   1.46272
 Alpha virt. eigenvalues --    1.46960   1.48378   1.49007   1.50355   1.50921
 Alpha virt. eigenvalues --    1.52228   1.52627   1.52925   1.54247   1.55884
 Alpha virt. eigenvalues --    1.56280   1.57194   1.58388   1.59805   1.60792
 Alpha virt. eigenvalues --    1.63629   1.64343   1.65156   1.66167   1.66493
 Alpha virt. eigenvalues --    1.67555   1.68639   1.68799   1.68973   1.69846
 Alpha virt. eigenvalues --    1.70862   1.71035   1.71505   1.71567   1.72821
 Alpha virt. eigenvalues --    1.73504   1.74928   1.75722   1.76195   1.76995
 Alpha virt. eigenvalues --    1.77395   1.78654   1.79239   1.79505   1.80020
 Alpha virt. eigenvalues --    1.80843   1.81238   1.82290   1.83080   1.83633
 Alpha virt. eigenvalues --    1.84457   1.85042   1.86358   1.87084   1.87410
 Alpha virt. eigenvalues --    1.88229   1.88887   1.90001   1.90085   1.90551
 Alpha virt. eigenvalues --    1.91438   1.92070   1.92641   1.93263   1.94298
 Alpha virt. eigenvalues --    1.94851   1.95722   1.96364   1.96952   1.97489
 Alpha virt. eigenvalues --    1.98442   1.98995   1.99956   2.00467   2.01933
 Alpha virt. eigenvalues --    2.02273   2.03974   2.04952   2.05926   2.06809
 Alpha virt. eigenvalues --    2.06937   2.07323   2.08113   2.09430   2.11512
 Alpha virt. eigenvalues --    2.13093   2.13233   2.16197   2.16597   2.17312
 Alpha virt. eigenvalues --    2.17930   2.19566   2.19904   2.20373   2.20824
 Alpha virt. eigenvalues --    2.22974   2.24307   2.25099   2.25713   2.26326
 Alpha virt. eigenvalues --    2.27277   2.28193   2.28679   2.29572   2.30340
 Alpha virt. eigenvalues --    2.30894   2.32530   2.33959   2.34872   2.36382
 Alpha virt. eigenvalues --    2.36816   2.37076   2.39745   2.40123   2.42864
 Alpha virt. eigenvalues --    2.43159   2.43776   2.45542   2.45978   2.46536
 Alpha virt. eigenvalues --    2.48431   2.49643   2.50719   2.52254   2.53574
 Alpha virt. eigenvalues --    2.54355   2.55395   2.56028   2.56623   2.57331
 Alpha virt. eigenvalues --    2.58957   2.59446   2.60283   2.62169   2.63043
 Alpha virt. eigenvalues --    2.64817   2.66772   2.67988   2.68760   2.68848
 Alpha virt. eigenvalues --    2.70901   2.74116   2.78296   2.79935   2.82462
 Alpha virt. eigenvalues --    2.83532   2.85526   2.89504   2.90031   2.90417
 Alpha virt. eigenvalues --    2.94392   2.97504   2.97999   3.02055   3.03728
 Alpha virt. eigenvalues --    3.06045   3.09606   3.28822   3.66550   3.73359
 Alpha virt. eigenvalues --    3.74983   3.87806   3.92197   3.93768   3.97940
 Alpha virt. eigenvalues --    4.00395   4.03301   4.05690   4.06329   4.10206
 Alpha virt. eigenvalues --    4.12290   4.15868   4.17673   4.18778   4.20995
 Alpha virt. eigenvalues --    4.22498   4.25432   4.28653   4.30210   4.34757
 Alpha virt. eigenvalues --    4.38267   4.41526   4.45691   4.46579   4.49240
 Alpha virt. eigenvalues --    4.51121   4.59380   4.65498   4.77603
          Condensed to atoms (all electrons):
 Mulliken charges:
               1
     1  N   -0.763655
     2  C   -0.120562
     3  C    0.644801
     4  O   -0.524604
     5  C   -0.403553
     6  C    0.155152
     7  C   -0.241919
     8  C   -0.200979
     9  C   -0.228265
    10  C   -0.332888
    11  C    0.441535
    12  O   -0.620742
    13  H    0.425841
    14  H    0.218900
    15  H    0.173854
    16  H    0.182207
    17  H    0.126506
    18  H    0.108074
    19  H    0.136448
    20  H    0.151505
    21  H    0.403121
    22  H    0.454966
    23  N   -0.637422
    24  C   -0.025327
    25  C    0.643859
    26  O   -0.576688
    27  C   -0.120283
    28  C   -0.480204
    29  C   -0.449158
    30  H    0.354031
    31  H    0.211888
    32  H    0.158333
    33  H    0.157315
    34  H    0.178127
    35  H    0.148466
    36  H    0.159190
    37  H    0.159158
    38  H    0.166383
    39  N   -0.607997
    40  C   -0.092558
    41  C    0.621833
    42  O   -0.423008
    43  C   -0.312281
    44  C   -0.301702
    45  C   -0.159656
    46  N   -0.608697
    47  C    0.792954
    48  N   -0.759306
    49  N   -0.780280
    50  O   -0.651454
    51  H    0.427641
    52  H    0.380973
    53  H    0.367183
    54  H    0.178834
    55  H    0.217625
    56  H    0.155888
    57  H    0.170011
    58  H    0.217967
    59  H    0.189902
    60  H    0.168376
    61  H    0.390924
    62  H    0.386499
    63  H    0.369435
    64  H    0.427483
 Sum of Mulliken charges =   1.00000
 Mulliken charges with hydrogens summed into heavy atoms:
               1
     1  N    0.520274
     2  C    0.098338
     3  C    0.644801
     4  O   -0.524604
     5  C   -0.047492
     6  C    0.155152
     7  C   -0.115413
     8  C   -0.092905
     9  C   -0.091817
    10  C   -0.181383
    11  C    0.441535
    12  O   -0.620742
    23  N   -0.283391
    24  C    0.186561
    25  C    0.643859
    26  O   -0.576688
    27  C    0.038050
    28  C    0.003704
    29  C    0.035573
    39  N   -0.240814
    40  C    0.086275
    41  C    0.621833
    42  O   -0.423008
    43  C    0.061232
    44  C    0.086276
    45  C    0.198622
    46  N   -0.217773
    47  C    0.792954
    48  N    0.008166
    49  N    0.016638
    50  O   -0.223813
 Electronic spatial extent (au):  <R**2>=        3261827.3935
 Charge=              1.0000 electrons
 Dipole moment (field-independent basis, Debye):
    X=            154.7599    Y=           -141.6866    Z=            206.0320  Tot=            294.0661
 Quadrupole moment (field-independent basis, Debye-Ang):
   XX=           4825.1935   YY=           4028.6685   ZZ=           8722.6538
   XY=          -4574.3633   XZ=           6698.3561   YZ=          -6129.5896
 Traceless Quadrupole moment (field-independent basis, Debye-Ang):
   XX=          -1033.6451   YY=          -1830.1702   ZZ=           2863.8152
   XY=          -4574.3633   XZ=           6698.3561   YZ=          -6129.5896
 Octapole moment (field-independent basis, Debye-Ang**2):
  XXX=         144219.7935  YYY=        -109235.8771  ZZZ=         364480.0746  XYY=         129966.5406
  XXY=        -142634.3543  XXZ=         211131.4775  XZZ=         285943.6479  YZZ=        -261450.7393
  YYZ=         175945.6255  XYZ=        -199734.5541
 Hexadecapole moment (field-independent basis, Debye-Ang**3):
 XXXX=        4053442.3768 YYYY=        2760656.1882 ZZZZ=       15020270.1338 XXXY=       -4252520.7186
 XXXZ=        6401905.9137 YYYX=       -3508160.4351 YYYZ=       -4827365.9246 ZZZX=       12043391.4706
 ZZZY=      -10998366.1918 XXYY=        4032633.8058 XXZZ=        9097449.0480 YYZZ=        7561585.6941
 XXYZ=       -6299915.1403 YYXZ=        5732761.5945 ZZXY=       -8591321.1644
 N-N= 3.625691938388D+03 E-N=-1.068713978080D+04  KE= 1.472711910591D+03
 Unable to Open any file for archive entry.
 1\1\GINC-LAC-308\SP\RB3LYP\6-31G(d)\C20H33N6O5(1+)\KENGMITH\31-May-202
 2\0\\# B3LYP/6-31G* empiricaldispersion=gd3 guess=read geom=check nosy
 mm integral(ultrafinegrid)\\Candidate Structure: Conf:474 Charge calc 
 in gas phase\\1,1\N,0,35.8870227007,-30.4705159919,45.9623248956\C,0,3
 5.1333366155,-31.7890084241,45.9716968049\C,0,33.7932108077,-31.389718
 3431,45.302749659\O,0,33.3665823823,-30.2557827303,45.5307777681\C,0,3
 5.9989985294,-32.9388150188,45.399779145\C,0,36.3161975704,-32.8236777
 983,43.9334246464\C,0,35.5526087467,-33.5180818234,42.9632558925\C,0,3
 7.2976454735,-31.9470713447,43.4464068322\C,0,35.6355878991,-33.241266
 4576,41.6135136105\C,0,37.3964784902,-31.622444648,42.0930631133\C,0,3
 6.5202334717,-32.2114654205,41.0890820442\O,0,36.503190613,-31.8443623
 448,39.8897187368\H,0,35.2285961741,-29.743373033,46.2851676433\H,0,34
 .9086244513,-31.9839760234,47.0275129093\H,0,36.9084073849,-32.9849417
 588,46.017673453\H,0,35.4570457027,-33.8688638632,45.6166931268\H,0,34
 .8941394304,-34.3272344192,43.2934110232\H,0,37.9908119523,-31.4751546
 073,44.1467971402\H,0,35.059469236,-33.808120097,40.8873375776\H,0,38.
 1989903115,-30.9814986691,41.7349214817\H,0,36.7262411667,-30.49325182
 24,46.547279471\H,0,36.1421128345,-30.1844281485,44.990454586\N,0,33.1
 475267504,-32.2695798533,44.5119402805\C,0,31.949122914,-31.8358034184
 ,43.7883583621\C,0,32.2550571324,-30.7003553392,42.7961253482\O,0,31.3
 236085051,-29.9627749645,42.4330323402\C,0,31.2085017443,-33.032911664
 1,43.1333649212\C,0,31.8933146089,-33.5295965765,41.8519432226\C,0,29.
 7363254076,-32.6857221503,42.8703015524\H,0,33.6183587091,-33.11293519
 2,44.2132315694\H,0,31.2854541879,-31.3655707417,44.519364351\H,0,31.2
 375790651,-33.8365012848,43.8822036538\H,0,32.9547023195,-33.749555508
 9,41.9926495923\H,0,31.4065357015,-34.4414427294,41.493165764\H,0,31.8
 187890019,-32.7806652905,41.0534674983\H,0,29.6500266375,-31.853054815
 4,42.1658506594\H,0,29.2207625704,-32.4002704622,43.7935956311\H,0,29.
 218291402,-33.5515527989,42.4458171096\N,0,33.5225605893,-30.553654307
 ,42.3492424244\C,0,34.0322709077,-29.2693926914,41.8460533594\C,0,34.8
 792758959,-28.6576914644,42.9767149593\O,0,34.5574361035,-27.668280384
 3,43.5801475289\C,0,34.7569802004,-29.3719207904,40.4922225795\C,0,33.
 9759479707,-30.1149018524,39.3968801443\C,0,32.8337925964,-29.32895162
 18,38.7440701496\N,0,31.7485167662,-29.0485488135,39.7027762817\C,0,31
 .0948310151,-27.8975558605,39.8500448159\N,0,31.0652394279,-26.9853873
 896,38.8610650819\N,0,30.4807365162,-27.6372556441,41.0137035602\O,0,3
 5.992407134,-29.3531655773,43.3455063569\H,0,36.2951167096,-30.0710089
 113,42.7175316954\H,0,30.7382596931,-26.0451757438,39.0283324378\H,0,3
 4.1973838994,-31.2919285066,42.5383510809\H,0,33.1733091405,-28.607109
 4765,41.7743843818\H,0,35.7070823952,-29.9019059906,40.592200709\H,0,3
 4.9948807201,-28.3491427982,40.170558946\H,0,33.6013674675,-31.0678365
 879,39.7899872173\H,0,34.686811118,-30.396059264,38.6150015628\H,0,32.
 4279709836,-29.8899942,37.8942974848\H,0,33.2130584496,-28.3715170986,
 38.3694963176\H,0,31.6137685707,-29.7029682618,40.4735939156\H,0,31.32
 85669519,-27.2290817998,37.9182079199\H,0,29.7456812795,-26.9477500192
 ,41.0720941561\H,0,30.6106284357,-28.2884552577,41.7878020162\\Version
 =ES64L-G16RevC.01\HF=-1486.540856\RMSD=9.385e-09\Dipole=-2.9833108,2.3
 308773,0.8283468\Quadrupole=-768.4897721,-1360.6866541,2129.1764262,-3
 400.926982,4980.0635865,-4557.1996287\PG=C01 [X(C20H33N6O5)]\\@
 The archive entry for this job was punched.


 THE THINKER DIES, BUT HIS THOUGHTS ARE BEYOND THE 
 REACH OF DESTRUCTION.  MEN ARE MORTAL; BUT IDEAS 
 ARE IMMORTAL.
                              -- WALTER LIPPMANN
 Job cpu time:       0 days  0 hours  3 minutes  2.0 seconds.
 Elapsed time:       0 days  0 hours  0 minutes 46.2 seconds.
 File lengths (MBytes):  RWF=    264 Int=      0 D2E=      0 Chk=     40 Scr=     16
 Normal termination of Gaussian 16 at Tue May 31 11:50:56 2022.
