 Entering Gaussian System, Link 0=/opt/software/Gaussian/g16-AVX2-C.01/g16/g16
 Input=charge-conf-14.com
 Output=charge-conf-14.log
 Initial command:
 /opt/software/Gaussian/g16-AVX2-C.01/g16/l1.exe "/mnt/gs18/scratch/users/kengmith/Gau-25989.inp" -scrdir="/mnt/gs18/scratch/users/kengmith/"
 Entering Link 1 = /opt/software/Gaussian/g16-AVX2-C.01/g16/l1.exe PID=     25999.
  
 Copyright (c) 1988-2019, Gaussian, Inc.  All Rights Reserved.
  
 This is part of the Gaussian(R) 16 program.  It is based on
 the Gaussian(R) 09 system (copyright 2009, Gaussian, Inc.),
 the Gaussian(R) 03 system (copyright 2003, Gaussian, Inc.),
 the Gaussian(R) 98 system (copyright 1998, Gaussian, Inc.),
 the Gaussian(R) 94 system (copyright 1995, Gaussian, Inc.),
 the Gaussian 92(TM) system (copyright 1992, Gaussian, Inc.),
 the Gaussian 90(TM) system (copyright 1990, Gaussian, Inc.),
 the Gaussian 88(TM) system (copyright 1988, Gaussian, Inc.),
 the Gaussian 86(TM) system (copyright 1986, Carnegie Mellon
 University), and the Gaussian 82(TM) system (copyright 1983,
 Carnegie Mellon University). Gaussian is a federally registered
 trademark of Gaussian, Inc.
  
 This software contains proprietary and confidential information,
 including trade secrets, belonging to Gaussian, Inc.
  
 This software is provided under written license and may be
 used, copied, transmitted, or stored only in accord with that
 written license.
  
 The following legend is applicable only to US Government
 contracts under FAR:
  
                    RESTRICTED RIGHTS LEGEND
  
 Use, reproduction and disclosure by the US Government is
 subject to restrictions as set forth in subparagraphs (a)
 and (c) of the Commercial Computer Software - Restricted
 Rights clause in FAR 52.227-19.
  
 Gaussian, Inc.
 340 Quinnipiac St., Bldg. 40, Wallingford CT 06492
  
  
 ---------------------------------------------------------------
 Warning -- This program may not be used in any manner that
 competes with the business of Gaussian, Inc. or will provide
 assistance to any competitor of Gaussian, Inc.  The licensee
 of this program is prohibited from giving any competitor of
 Gaussian, Inc. access to this program.  By using this program,
 the user acknowledges that Gaussian, Inc. is engaged in the
 business of creating and licensing software in the field of
 computational chemistry and represents and warrants to the
 licensee that it is not a competitor of Gaussian, Inc. and that
 it will not use this program in any manner prohibited above.
 ---------------------------------------------------------------
  

 Cite this work as:
 Gaussian 16, Revision C.01,
 M. J. Frisch, G. W. Trucks, H. B. Schlegel, G. E. Scuseria, 
 M. A. Robb, J. R. Cheeseman, G. Scalmani, V. Barone, 
 G. A. Petersson, H. Nakatsuji, X. Li, M. Caricato, A. V. Marenich, 
 J. Bloino, B. G. Janesko, R. Gomperts, B. Mennucci, H. P. Hratchian, 
 J. V. Ortiz, A. F. Izmaylov, J. L. Sonnenberg, D. Williams-Young, 
 F. Ding, F. Lipparini, F. Egidi, J. Goings, B. Peng, A. Petrone, 
 T. Henderson, D. Ranasinghe, V. G. Zakrzewski, J. Gao, N. Rega, 
 G. Zheng, W. Liang, M. Hada, M. Ehara, K. Toyota, R. Fukuda, 
 J. Hasegawa, M. Ishida, T. Nakajima, Y. Honda, O. Kitao, H. Nakai, 
 T. Vreven, K. Throssell, J. A. Montgomery, Jr., J. E. Peralta, 
 F. Ogliaro, M. J. Bearpark, J. J. Heyd, E. N. Brothers, K. N. Kudin, 
 V. N. Staroverov, T. A. Keith, R. Kobayashi, J. Normand, 
 K. Raghavachari, A. P. Rendell, J. C. Burant, S. S. Iyengar, 
 J. Tomasi, M. Cossi, J. M. Millam, M. Klene, C. Adamo, R. Cammi, 
 J. W. Ochterski, R. L. Martin, K. Morokuma, O. Farkas, 
 J. B. Foresman, and D. J. Fox, Gaussian, Inc., Wallingford CT, 2019.
 
 ******************************************
 Gaussian 16:  ES64L-G16RevC.01  3-Jul-2019
                31-May-2022 
 ******************************************
 %mem=8gb
 %nproc=4
 Will use up to    4 processors via shared memory.
 %chk=conf-14.chk
 ----------------------------------------------------------------------
 # B3LYP/6-31G* empiricaldispersion=gd3 guess=read geom=check nosymm in
 tegral(ultrafinegrid)
 ----------------------------------------------------------------------
 1/29=2,38=1,172=1/1;
 2/12=2,15=1,40=1/2;
 3/5=1,6=6,7=1,11=2,14=-4,25=1,30=1,74=-5,75=-5,116=-2,124=31/1,2,3;
 4/5=1/1;
 5/5=2,38=6/2;
 6/7=2,8=2,9=2,10=2,28=1/1;
 99/5=1,9=1/99;
 -----------------------------------------------------
 Candidate Structure: Conf:14 Charge calc in gas phase
 -----------------------------------------------------
 Structure from the checkpoint file:  "conf-14.chk"
 Charge =  1 Multiplicity = 1
 Redundant internal coordinates found in file.  (old form).
 N,0,32.3124749996,-33.3106452644,42.3917394252
 C,0,33.5329071183,-34.05041519,41.8776531499
 C,0,33.9748658315,-33.1435536499,40.7018652772
 O,0,33.0809531668,-32.742100657,39.9509615303
 C,0,34.5083786806,-34.4256623124,43.0201244573
 C,0,34.7358719516,-33.314603262,44.0130995405
 C,0,35.797838539,-32.4066466863,43.933354697
 C,0,33.7581724029,-33.0946535364,44.9959023254
 C,0,35.8108429484,-31.2522212153,44.7094669374
 C,0,33.7663015776,-31.9536814135,45.7836482274
 C,0,34.7530864445,-30.9786557754,45.5909927183
 O,0,34.7170759241,-29.7746227087,46.201122877
 H,0,31.7577832382,-33.8708671216,43.043241016
 H,0,33.1477805371,-34.9586247677,41.4022452348
 H,0,34.1050637696,-35.31026804,43.5262522802
 H,0,35.4354385224,-34.7756051471,42.551079115
 H,0,36.61899559,-32.5633075255,43.2409706542
 H,0,32.9780011331,-33.8377259037,45.1548942379
 H,0,36.6042271642,-30.5200314883,44.6079688417
 H,0,33.0009521774,-31.800316342,46.5342410573
 H,0,32.6032160493,-32.4377907574,42.8711875122
 H,0,31.7396571678,-33.0333875523,41.5796869014
 N,0,35.2727546588,-32.8290329881,40.5731380042
 C,0,35.6949397056,-31.7475479143,39.6578287848
 C,0,35.1355811242,-30.4783217775,40.3400616029
 O,0,35.6200438047,-30.0580223008,41.4001654556
 C,0,37.2164197654,-31.7519186667,39.4095649034
 C,0,38.0801232548,-31.8076280581,40.6801381218
 C,0,37.5826736612,-30.5294532565,38.5535628444
 H,0,35.8743934933,-33.0006928045,41.3652323615
 H,0,35.1786629053,-31.9227776672,38.7116696259
 H,0,37.4140804977,-32.6574586593,38.8205003656
 H,0,37.8895479133,-30.9499943292,41.3292137332
 H,0,37.9215119008,-32.7283649876,41.2563073714
 H,0,39.1379103659,-31.8030833435,40.4001459667
 H,0,36.9727309002,-30.4734114453,37.6444574089
 H,0,38.6315411186,-30.5811596974,38.2481086233
 H,0,37.4451773152,-29.6014660155,39.1196901303
 N,0,33.978337123,-30.0053649311,39.8082767718
 C,0,32.9829478927,-29.2026232541,40.5469888581
 C,0,32.4327149173,-30.0766388447,41.6977239035
 O,0,31.2851129673,-30.445719361,41.7691193065
 C,0,33.4500987562,-27.7874282771,40.9370350277
 C,0,32.5843912462,-27.152970454,42.0567699811
 C,0,33.3244643352,-27.2123064196,43.3985640927
 N,0,32.5559382075,-26.7755785336,44.5508664079
 C,0,32.3455323137,-27.5776078633,45.6502004123
 N,0,32.2550031784,-28.871019354,45.6488231953
 N,0,32.185529592,-26.8821013576,46.8341287188
 O,0,33.3105392278,-30.4999476832,42.650145506
 H,0,34.2480231605,-30.199693129,42.4894245667
 H,0,33.773665302,-29.4977972767,46.2694144183
 H,0,33.5873645366,-30.583107807,39.0737286138
 H,0,32.1307452738,-29.1069796638,39.8728949232
 H,0,33.4293532665,-27.1800467291,40.0268463528
 H,0,34.4954060584,-27.8398842428,41.2517613577
 H,0,31.6175261939,-27.6616256049,42.1558305986
 H,0,32.3515526823,-26.1123769359,41.8083859113
 H,0,34.2328776971,-26.5986785824,43.3096008421
 H,0,33.6620611488,-28.2283876432,43.6121204583
 H,0,32.4625214965,-25.778469475,44.6875315466
 H,0,32.1662507505,-29.2090067685,44.6897032904
 H,0,31.9918271993,-27.4679027611,47.6351021317
 H,0,32.8092777773,-26.1077762988,47.0189085793
 Recover connectivity data from disk.
                           ----------------------------
                           !    Current Parameters    !
                           ! (Angstroms and Degrees)  !
 --------------------------                            --------------------------
 ! Name  Definition              Value                                          !
 --------------------------------------------------------------------------------
 ! R1    R(1,2)                  1.5169                                         !
 ! R2    R(1,13)                 1.0227                                         !
 ! R3    R(1,21)                 1.0374                                         !
 ! R4    R(1,22)                 1.0317                                         !
 ! R5    R(2,3)                  1.5493                                         !
 ! R6    R(2,5)                  1.5484                                         !
 ! R7    R(2,14)                 1.0951                                         !
 ! R8    R(3,4)                  1.2345                                         !
 ! R9    R(3,23)                 1.3416                                         !
 ! R10   R(5,6)                  1.5074                                         !
 ! R11   R(5,15)                 1.0961                                         !
 ! R12   R(5,16)                 1.0963                                         !
 ! R13   R(6,7)                  1.3995                                         !
 ! R14   R(6,8)                  1.4036                                         !
 ! R15   R(7,9)                  1.3911                                         !
 ! R16   R(7,17)                 1.0855                                         !
 ! R17   R(8,10)                 1.3865                                         !
 ! R18   R(8,18)                 1.0891                                         !
 ! R19   R(9,11)                 1.4038                                         !
 ! R20   R(9,19)                 1.0844                                         !
 ! R21   R(10,11)                1.4005                                         !
 ! R22   R(10,20)                1.0829                                         !
 ! R23   R(11,12)                1.3503                                         !
 ! R24   R(23,24)                1.4784                                         !
 ! R25   R(23,30)                1.0094                                         !
 ! R26   R(24,25)                1.5457                                         !
 ! R27   R(24,27)                1.5416                                         !
 ! R28   R(24,31)                1.092                                          !
 ! R29   R(25,26)                1.239                                          !
 ! R30   R(25,39)                1.3586                                         !
 ! R31   R(27,28)                1.5373                                         !
 ! R32   R(27,29)                1.5367                                         !
 ! R33   R(27,32)                1.0982                                         !
 ! R34   R(28,33)                1.0923                                         !
 ! R35   R(28,34)                1.0977                                         !
 ! R36   R(28,35)                1.0942                                         !
 ! R37   R(29,36)                1.0962                                         !
 ! R38   R(29,37)                1.0937                                         !
 ! R39   R(29,38)                1.0957                                         !
 ! R40   R(39,40)                1.4768                                         !
 ! R41   R(39,53)                1.013                                          !
 ! R42   R(40,41)                1.5462                                         !
 ! R43   R(40,43)                1.5405                                         !
 ! R44   R(40,54)                1.0908                                         !
 ! R45   R(41,42)                1.2076                                         !
 ! R46   R(41,50)                1.3627                                         !
 ! R47   R(43,44)                1.5511                                         !
 ! R48   R(43,55)                1.0944                                         !
 ! R49   R(43,56)                1.0929                                         !
 ! R50   R(44,45)                1.5335                                         !
 ! R51   R(44,57)                1.097                                          !
 ! R52   R(44,58)                1.0949                                         !
 ! R53   R(45,46)                1.4523                                         !
 ! R54   R(45,59)                1.0998                                         !
 ! R55   R(45,60)                1.0918                                         !
 ! R56   R(46,47)                1.377                                          !
 ! R57   R(46,61)                1.0108                                         !
 ! R58   R(47,48)                1.2966                                         !
 ! R59   R(47,49)                1.3824                                         !
 ! R60   R(48,52)                1.7562                                         !
 ! R61   R(48,62)                1.0208                                         !
 ! R62   R(49,63)                1.0111                                         !
 ! R63   R(49,64)                1.0113                                         !
 ! R64   R(50,51)                0.9974                                         !
 ! A1    A(2,1,13)             112.6506                                         !
 ! A2    A(2,1,21)             109.9661                                         !
 ! A3    A(2,1,22)             108.1199                                         !
 ! A4    A(13,1,21)            108.5704                                         !
 ! A5    A(13,1,22)            110.3329                                         !
 ! A6    A(21,1,22)            107.0525                                         !
 ! A7    A(1,2,3)              101.6104                                         !
 ! A8    A(1,2,5)              112.0234                                         !
 ! A9    A(1,2,14)             105.5835                                         !
 ! A10   A(3,2,5)              121.4737                                         !
 ! A11   A(3,2,14)             104.8515                                         !
 ! A12   A(5,2,14)             109.9309                                         !
 ! A13   A(2,3,4)              116.4492                                         !
 ! A14   A(2,3,23)             119.0786                                         !
 ! A15   A(4,3,23)             124.4632                                         !
 ! A16   A(2,5,6)              113.734                                          !
 ! A17   A(2,5,15)             107.7272                                         !
 ! A18   A(2,5,16)             107.1218                                         !
 ! A19   A(6,5,15)             110.2566                                         !
 ! A20   A(6,5,16)             112.9228                                         !
 ! A21   A(15,5,16)            104.5428                                         !
 ! A22   A(5,6,7)              123.7239                                         !
 ! A23   A(5,6,8)              118.1395                                         !
 ! A24   A(7,6,8)              117.8268                                         !
 ! A25   A(6,7,9)              120.9106                                         !
 ! A26   A(6,7,17)             121.1158                                         !
 ! A27   A(9,7,17)             117.9413                                         !
 ! A28   A(6,8,10)             121.5119                                         !
 ! A29   A(6,8,18)             119.6224                                         !
 ! A30   A(10,8,18)            118.8632                                         !
 ! A31   A(7,9,11)             120.3312                                         !
 ! A32   A(7,9,19)             120.9943                                         !
 ! A33   A(11,9,19)            118.5859                                         !
 ! A34   A(8,10,11)            119.9249                                         !
 ! A35   A(8,10,20)            120.4112                                         !
 ! A36   A(11,10,20)           119.6508                                         !
 ! A37   A(9,11,10)            118.7892                                         !
 ! A38   A(9,11,12)            118.5284                                         !
 ! A39   A(10,11,12)           122.6719                                         !
 ! A40   A(3,23,24)            120.4743                                         !
 ! A41   A(3,23,30)            117.4805                                         !
 ! A42   A(24,23,30)           116.1065                                         !
 ! A43   A(23,24,25)           102.9482                                         !
 ! A44   A(23,24,27)           112.3011                                         !
 ! A45   A(23,24,31)           106.5015                                         !
 ! A46   A(25,24,27)           115.5029                                         !
 ! A47   A(25,24,31)           110.0657                                         !
 ! A48   A(27,24,31)           109.0637                                         !
 ! A49   A(24,25,26)           120.976                                          !
 ! A50   A(24,25,39)           114.9193                                         !
 ! A51   A(26,25,39)           123.3587                                         !
 ! A52   A(24,27,28)           114.9283                                         !
 ! A53   A(24,27,29)           108.8255                                         !
 ! A54   A(24,27,32)           105.4473                                         !
 ! A55   A(28,27,29)           110.8126                                         !
 ! A56   A(28,27,32)           108.1984                                         !
 ! A57   A(29,27,32)           108.3169                                         !
 ! A58   A(27,28,33)           111.3851                                         !
 ! A59   A(27,28,34)           112.5215                                         !
 ! A60   A(27,28,35)           109.3584                                         !
 ! A61   A(33,28,34)           108.7522                                         !
 ! A62   A(33,28,35)           108.5087                                         !
 ! A63   A(34,28,35)           106.11                                           !
 ! A64   A(27,29,36)           111.7177                                         !
 ! A65   A(27,29,37)           110.2767                                         !
 ! A66   A(27,29,38)           110.8571                                         !
 ! A67   A(36,29,37)           107.7231                                         !
 ! A68   A(36,29,38)           108.3835                                         !
 ! A69   A(37,29,38)           107.7398                                         !
 ! A70   A(25,39,40)           124.5815                                         !
 ! A71   A(25,39,53)           114.459                                          !
 ! A72   A(40,39,53)           114.3672                                         !
 ! A73   A(39,40,41)           107.7501                                         !
 ! A74   A(39,40,43)           114.9367                                         !
 ! A75   A(39,40,54)           105.3749                                         !
 ! A76   A(41,40,43)           116.0244                                         !
 ! A77   A(41,40,54)           103.3833                                         !
 ! A78   A(43,40,54)           108.2305                                         !
 ! A79   A(40,41,42)           123.7058                                         !
 ! A80   A(40,41,50)           117.8084                                         !
 ! A81   A(42,41,50)           118.4193                                         !
 ! A82   A(40,43,44)           112.9114                                         !
 ! A83   A(40,43,55)           107.0684                                         !
 ! A84   A(40,43,56)           108.5937                                         !
 ! A85   A(44,43,55)           111.2718                                         !
 ! A86   A(44,43,56)           110.2165                                         !
 ! A87   A(55,43,56)           106.5144                                         !
 ! A88   A(43,44,45)           110.2721                                         !
 ! A89   A(43,44,57)           111.5589                                         !
 ! A90   A(43,44,58)           110.1018                                         !
 ! A91   A(45,44,57)           109.1719                                         !
 ! A92   A(45,44,58)           109.7494                                         !
 ! A93   A(57,44,58)           105.8873                                         !
 ! A94   A(44,45,46)           115.2915                                         !
 ! A95   A(44,45,59)           107.8328                                         !
 ! A96   A(44,45,60)           110.8785                                         !
 ! A97   A(46,45,59)           109.4799                                         !
 ! A98   A(46,45,60)           106.756                                          !
 ! A99   A(59,45,60)           106.24                                           !
 ! A100  A(45,46,47)           122.6265                                         !
 ! A101  A(45,46,61)           116.9263                                         !
 ! A102  A(47,46,61)           116.9056                                         !
 ! A103  A(46,47,48)           126.2179                                         !
 ! A104  A(46,47,49)           114.1038                                         !
 ! A105  A(48,47,49)           119.6511                                         !
 ! A106  A(47,48,52)           107.1735                                         !
 ! A107  A(47,48,62)           109.7163                                         !
 ! A108  A(52,48,62)           106.8001                                         !
 ! A109  A(47,49,63)           114.1513                                         !
 ! A110  A(47,49,64)           118.0541                                         !
 ! A111  A(63,49,64)           114.6472                                         !
 ! A112  A(41,50,51)           113.5371                                         !
 ! D1    D(13,1,2,3)           167.1388                                         !
 ! D2    D(13,1,2,5)           -61.7078                                         !
 ! D3    D(13,1,2,14)           57.9333                                         !
 ! D4    D(21,1,2,3)           -71.6123                                         !
 ! D5    D(21,1,2,5)            59.5411                                         !
 ! D6    D(21,1,2,14)          179.1822                                         !
 ! D7    D(22,1,2,3)            44.9497                                         !
 ! D8    D(22,1,2,5)           176.1031                                         !
 ! D9    D(22,1,2,14)          -64.2558                                         !
 ! D10   D(1,2,3,4)            -44.5813                                         !
 ! D11   D(1,2,3,23)           134.3748                                         !
 ! D12   D(5,2,3,4)           -169.6551                                         !
 ! D13   D(5,2,3,23)             9.3011                                         !
 ! D14   D(14,2,3,4)            65.1868                                         !
 ! D15   D(14,2,3,23)         -115.8571                                         !
 ! D16   D(1,2,5,6)            -43.8281                                         !
 ! D17   D(1,2,5,15)            78.6933                                         !
 ! D18   D(1,2,5,16)          -169.3244                                         !
 ! D19   D(3,2,5,6)             76.3156                                         !
 ! D20   D(3,2,5,15)          -161.163                                          !
 ! D21   D(3,2,5,16)           -49.1808                                         !
 ! D22   D(14,2,5,6)          -160.8882                                         !
 ! D23   D(14,2,5,15)          -38.3668                                         !
 ! D24   D(14,2,5,16)           73.6155                                         !
 ! D25   D(2,3,23,24)         -166.7138                                         !
 ! D26   D(2,3,23,30)          -14.8804                                         !
 ! D27   D(4,3,23,24)           12.1526                                         !
 ! D28   D(4,3,23,30)          163.986                                          !
 ! D29   D(2,5,6,7)            -94.1666                                         !
 ! D30   D(2,5,6,8)             79.2916                                         !
 ! D31   D(15,5,6,7)           144.7151                                         !
 ! D32   D(15,5,6,8)           -41.8267                                         !
 ! D33   D(16,5,6,7)            28.1848                                         !
 ! D34   D(16,5,6,8)          -158.357                                          !
 ! D35   D(5,6,7,9)            167.0307                                         !
 ! D36   D(5,6,7,17)           -10.86                                           !
 ! D37   D(8,6,7,9)             -6.4465                                         !
 ! D38   D(8,6,7,17)           175.6628                                         !
 ! D39   D(5,6,8,10)          -167.9459                                         !
 ! D40   D(5,6,8,18)            12.6453                                         !
 ! D41   D(7,6,8,10)             5.9032                                         !
 ! D42   D(7,6,8,18)          -173.5055                                         !
 ! D43   D(6,7,9,11)             0.0509                                         !
 ! D44   D(6,7,9,19)          -176.4791                                         !
 ! D45   D(17,7,9,11)          178.0068                                         !
 ! D46   D(17,7,9,19)            1.4767                                         !
 ! D47   D(6,8,10,11)            1.0935                                         !
 ! D48   D(6,8,10,20)          179.7666                                         !
 ! D49   D(18,8,10,11)        -179.4934                                         !
 ! D50   D(18,8,10,20)          -0.8203                                         !
 ! D51   D(7,9,11,10)            7.0198                                         !
 ! D52   D(7,9,11,12)         -171.834                                          !
 ! D53   D(19,9,11,10)        -176.3675                                         !
 ! D54   D(19,9,11,12)           4.7787                                         !
 ! D55   D(8,10,11,9)           -7.5624                                         !
 ! D56   D(8,10,11,12)         171.2412                                         !
 ! D57   D(20,10,11,9)         173.7543                                         !
 ! D58   D(20,10,11,12)         -7.442                                          !
 ! D59   D(3,23,24,25)          68.0797                                         !
 ! D60   D(3,23,24,27)        -167.0439                                         !
 ! D61   D(3,23,24,31)         -47.7236                                         !
 ! D62   D(30,23,24,25)        -84.1224                                         !
 ! D63   D(30,23,24,27)         40.754                                          !
 ! D64   D(30,23,24,31)        160.0744                                         !
 ! D65   D(23,24,25,26)         70.0399                                         !
 ! D66   D(23,24,25,39)       -100.3867                                         !
 ! D67   D(27,24,25,26)        -52.7178                                         !
 ! D68   D(27,24,25,39)        136.8556                                         !
 ! D69   D(31,24,25,26)       -176.7398                                         !
 ! D70   D(31,24,25,39)         12.8335                                         !
 ! D71   D(23,24,27,28)        -50.1426                                         !
 ! D72   D(23,24,27,29)       -175.0616                                         !
 ! D73   D(23,24,27,32)         68.9182                                         !
 ! D74   D(25,24,27,28)         67.5021                                         !
 ! D75   D(25,24,27,29)        -57.4168                                         !
 ! D76   D(25,24,27,32)       -173.437                                          !
 ! D77   D(31,24,27,28)       -167.9535                                         !
 ! D78   D(31,24,27,29)         67.1275                                         !
 ! D79   D(31,24,27,32)        -48.8926                                         !
 ! D80   D(24,25,39,40)        154.138                                          !
 ! D81   D(24,25,39,53)          4.3582                                         !
 ! D82   D(26,25,39,40)        -16.0324                                         !
 ! D83   D(26,25,39,53)       -165.8122                                         !
 ! D84   D(24,27,28,33)        -59.8747                                         !
 ! D85   D(24,27,28,34)         62.5455                                         !
 ! D86   D(24,27,28,35)       -179.804                                          !
 ! D87   D(29,27,28,33)         63.9982                                         !
 ! D88   D(29,27,28,34)       -173.5816                                         !
 ! D89   D(29,27,28,35)        -55.9312                                         !
 ! D90   D(32,27,28,33)       -177.3897                                         !
 ! D91   D(32,27,28,34)        -54.9695                                         !
 ! D92   D(32,27,28,35)         62.6809                                         !
 ! D93   D(24,27,29,36)        -52.5123                                         !
 ! D94   D(24,27,29,37)       -172.2796                                         !
 ! D95   D(24,27,29,38)         68.4873                                         !
 ! D96   D(28,27,29,36)       -179.8119                                         !
 ! D97   D(28,27,29,37)         60.4208                                         !
 ! D98   D(28,27,29,38)        -58.8122                                         !
 ! D99   D(32,27,29,36)         61.6477                                         !
 ! D100  D(32,27,29,37)        -58.1196                                         !
 ! D101  D(32,27,29,38)       -177.3526                                         !
 ! D102  D(25,39,40,41)        -62.8342                                         !
 ! D103  D(25,39,40,43)         68.2286                                         !
 ! D104  D(25,39,40,54)       -172.7156                                         !
 ! D105  D(53,39,40,41)         86.9699                                         !
 ! D106  D(53,39,40,43)       -141.9674                                         !
 ! D107  D(53,39,40,54)        -22.9115                                         !
 ! D108  D(39,40,41,42)       -114.9967                                         !
 ! D109  D(39,40,41,50)         61.986                                          !
 ! D110  D(43,40,41,42)        114.542                                          !
 ! D111  D(43,40,41,50)        -68.4753                                         !
 ! D112  D(54,40,41,42)         -3.754                                          !
 ! D113  D(54,40,41,50)        173.2286                                         !
 ! D114  D(39,40,43,44)       -162.2605                                         !
 ! D115  D(39,40,43,55)         74.9345                                         !
 ! D116  D(39,40,43,56)        -39.7121                                         !
 ! D117  D(41,40,43,44)        -35.3069                                         !
 ! D118  D(41,40,43,55)       -158.1119                                         !
 ! D119  D(41,40,43,56)         87.2415                                         !
 ! D120  D(54,40,43,44)         80.2884                                         !
 ! D121  D(54,40,43,55)        -42.5165                                         !
 ! D122  D(54,40,43,56)       -157.1632                                         !
 ! D123  D(40,41,50,51)         -0.8009                                         !
 ! D124  D(42,41,50,51)        176.3451                                         !
 ! D125  D(40,43,44,45)        103.2102                                         !
 ! D126  D(40,43,44,57)        -18.2802                                         !
 ! D127  D(40,43,44,58)       -135.5404                                         !
 ! D128  D(55,43,44,45)       -136.3593                                         !
 ! D129  D(55,43,44,57)        102.1503                                         !
 ! D130  D(55,43,44,58)        -15.1098                                         !
 ! D131  D(56,43,44,45)        -18.4267                                         !
 ! D132  D(56,43,44,57)       -139.9171                                         !
 ! D133  D(56,43,44,58)        102.8227                                         !
 ! D134  D(43,44,45,46)       -173.7694                                         !
 ! D135  D(43,44,45,59)         63.5842                                         !
 ! D136  D(43,44,45,60)        -52.3364                                         !
 ! D137  D(57,44,45,46)        -50.8716                                         !
 ! D138  D(57,44,45,59)       -173.5179                                         !
 ! D139  D(57,44,45,60)         70.5615                                         !
 ! D140  D(58,44,45,46)         64.7714                                         !
 ! D141  D(58,44,45,59)        -57.8749                                         !
 ! D142  D(58,44,45,60)       -173.7956                                         !
 ! D143  D(44,45,46,47)        123.2052                                         !
 ! D144  D(44,45,46,61)        -78.7018                                         !
 ! D145  D(59,45,46,47)       -115.0315                                         !
 ! D146  D(59,45,46,61)         43.0615                                         !
 ! D147  D(60,45,46,47)         -0.4307                                         !
 ! D148  D(60,45,46,61)        157.6623                                         !
 ! D149  D(45,46,47,48)        -30.9961                                         !
 ! D150  D(45,46,47,49)        150.923                                          !
 ! D151  D(61,46,47,48)        170.9066                                         !
 ! D152  D(61,46,47,49)         -7.1742                                         !
 ! D153  D(46,47,48,52)        103.7643                                         !
 ! D154  D(46,47,48,62)        -11.8375                                         !
 ! D155  D(49,47,48,52)        -78.2515                                         !
 ! D156  D(49,47,48,62)        166.1467                                         !
 ! D157  D(46,47,49,63)        177.5277                                         !
 ! D158  D(46,47,49,64)        -43.2855                                         !
 ! D159  D(48,47,49,63)         -0.6907                                         !
 ! D160  D(48,47,49,64)        138.4961                                         !
 --------------------------------------------------------------------------------
 Symmetry turned off by external request.
 Stoichiometry    C20H33N6O5(1+)
 Framework group  C1[X(C20H33N6O5)]
 Deg. of freedom   186
 Full point group                 C1      NOp   1
                          Input orientation:                          
 ---------------------------------------------------------------------
 Center     Atomic      Atomic             Coordinates (Angstroms)
 Number     Number       Type             X           Y           Z
 ---------------------------------------------------------------------
      1          7           0       32.312475  -33.310645   42.391739
      2          6           0       33.532907  -34.050415   41.877653
      3          6           0       33.974866  -33.143554   40.701865
      4          8           0       33.080953  -32.742101   39.950962
      5          6           0       34.508379  -34.425662   43.020124
      6          6           0       34.735872  -33.314603   44.013100
      7          6           0       35.797839  -32.406647   43.933355
      8          6           0       33.758172  -33.094654   44.995902
      9          6           0       35.810843  -31.252221   44.709467
     10          6           0       33.766302  -31.953681   45.783648
     11          6           0       34.753086  -30.978656   45.590993
     12          8           0       34.717076  -29.774623   46.201123
     13          1           0       31.757783  -33.870867   43.043241
     14          1           0       33.147781  -34.958625   41.402245
     15          1           0       34.105064  -35.310268   43.526252
     16          1           0       35.435439  -34.775605   42.551079
     17          1           0       36.618996  -32.563308   43.240971
     18          1           0       32.978001  -33.837726   45.154894
     19          1           0       36.604227  -30.520031   44.607969
     20          1           0       33.000952  -31.800316   46.534241
     21          1           0       32.603216  -32.437791   42.871188
     22          1           0       31.739657  -33.033388   41.579687
     23          7           0       35.272755  -32.829033   40.573138
     24          6           0       35.694940  -31.747548   39.657829
     25          6           0       35.135581  -30.478322   40.340062
     26          8           0       35.620044  -30.058022   41.400165
     27          6           0       37.216420  -31.751919   39.409565
     28          6           0       38.080123  -31.807628   40.680138
     29          6           0       37.582674  -30.529453   38.553563
     30          1           0       35.874393  -33.000693   41.365232
     31          1           0       35.178663  -31.922778   38.711670
     32          1           0       37.414080  -32.657459   38.820500
     33          1           0       37.889548  -30.949994   41.329214
     34          1           0       37.921512  -32.728365   41.256307
     35          1           0       39.137910  -31.803083   40.400146
     36          1           0       36.972731  -30.473411   37.644457
     37          1           0       38.631541  -30.581160   38.248109
     38          1           0       37.445177  -29.601466   39.119690
     39          7           0       33.978337  -30.005365   39.808277
     40          6           0       32.982948  -29.202623   40.546989
     41          6           0       32.432715  -30.076639   41.697724
     42          8           0       31.285113  -30.445719   41.769119
     43          6           0       33.450099  -27.787428   40.937035
     44          6           0       32.584391  -27.152970   42.056770
     45          6           0       33.324464  -27.212306   43.398564
     46          7           0       32.555938  -26.775579   44.550866
     47          6           0       32.345532  -27.577608   45.650200
     48          7           0       32.255003  -28.871019   45.648823
     49          7           0       32.185530  -26.882101   46.834129
     50          8           0       33.310539  -30.499948   42.650146
     51          1           0       34.248023  -30.199693   42.489425
     52          1           0       33.773665  -29.497797   46.269414
     53          1           0       33.587365  -30.583108   39.073729
     54          1           0       32.130745  -29.106980   39.872895
     55          1           0       33.429353  -27.180047   40.026846
     56          1           0       34.495406  -27.839884   41.251761
     57          1           0       31.617526  -27.661626   42.155831
     58          1           0       32.351553  -26.112377   41.808386
     59          1           0       34.232878  -26.598679   43.309601
     60          1           0       33.662061  -28.228388   43.612120
     61          1           0       32.462521  -25.778469   44.687532
     62          1           0       32.166251  -29.209007   44.689703
     63          1           0       31.991827  -27.467903   47.635102
     64          1           0       32.809278  -26.107776   47.018909
 ---------------------------------------------------------------------
 Rotational constants (GHZ):           0.1984147           0.1227192           0.1032956
 Standard basis: 6-31G(d) (6D, 7F)
   531 basis functions,  1000 primitive gaussians,   531 cartesian basis functions
   117 alpha electrons      117 beta electrons
       nuclear repulsion energy      3593.7630181164 Hartrees.
 NAtoms=   64 NActive=   64 NUniq=   64 SFac= 1.00D+00 NAtFMM=   60 NAOKFM=T Big=T
 Integral buffers will be    131072 words long.
 Raffenetti 2 integral format.
 Two-electron integral symmetry is turned off.
 Nuclear repulsion after empirical dispersion term =     3593.6655996907 Hartrees.
 One-electron integrals computed using PRISM.
 NBasis=   531 RedAO= T EigKep=  4.25D-04  NBF=   531
 NBsUse=   531 1.00D-06 EigRej= -1.00D+00 NBFU=   531
 Initial guess from the checkpoint file:  "conf-14.chk"
 B after Tr=     0.000000    0.000000    0.000000
         Rot=    1.000000    0.000000    0.000000    0.000000 Ang=   0.00 deg.
 Requested convergence on RMS density matrix=1.00D-08 within 128 cycles.
 Requested convergence on MAX density matrix=1.00D-06.
 Requested convergence on             energy=1.00D-06.
 No special actions if energy rises.
 SCF Done:  E(RB3LYP) =  -1486.55507400     A.U. after    1 cycles
            NFock=  1  Conv=0.27D-08     -V/T= 2.0093

 **********************************************************************

            Population analysis using the SCF Density.

 **********************************************************************

 Alpha  occ. eigenvalues --  -19.31367 -19.27157 -19.26288 -19.25731 -19.23427
 Alpha  occ. eigenvalues --  -14.59309 -14.51255 -14.49859 -14.44593 -14.43110
 Alpha  occ. eigenvalues --  -14.37802 -10.44473 -10.44394 -10.42639 -10.40799
 Alpha  occ. eigenvalues --  -10.37854 -10.36677 -10.36637 -10.34018 -10.33964
 Alpha  occ. eigenvalues --  -10.31917 -10.31188 -10.30504 -10.30285 -10.29926
 Alpha  occ. eigenvalues --  -10.29903 -10.28984 -10.28344 -10.28229 -10.27964
 Alpha  occ. eigenvalues --  -10.27770  -1.22227  -1.19716  -1.17362  -1.13833
 Alpha  occ. eigenvalues --   -1.13646  -1.12597  -1.07707  -1.07043  -1.06048
 Alpha  occ. eigenvalues --   -0.98032  -0.96651  -0.93605  -0.93331  -0.91623
 Alpha  occ. eigenvalues --   -0.91063  -0.86154  -0.85295  -0.85073  -0.82501
 Alpha  occ. eigenvalues --   -0.79300  -0.78698  -0.77840  -0.74700  -0.73777
 Alpha  occ. eigenvalues --   -0.73517  -0.72213  -0.71680  -0.71269  -0.70691
 Alpha  occ. eigenvalues --   -0.69573  -0.69107  -0.67962  -0.67379  -0.64950
 Alpha  occ. eigenvalues --   -0.64312  -0.63739  -0.63405  -0.62023  -0.61311
 Alpha  occ. eigenvalues --   -0.60745  -0.60163  -0.58934  -0.58710  -0.57910
 Alpha  occ. eigenvalues --   -0.57079  -0.56541  -0.56406  -0.55489  -0.55115
 Alpha  occ. eigenvalues --   -0.54654  -0.54204  -0.53863  -0.53712  -0.53253
 Alpha  occ. eigenvalues --   -0.52624  -0.52349  -0.51935  -0.51750  -0.51217
 Alpha  occ. eigenvalues --   -0.50955  -0.50103  -0.49722  -0.49466  -0.48489
 Alpha  occ. eigenvalues --   -0.47883  -0.47010  -0.46446  -0.45631  -0.45272
 Alpha  occ. eigenvalues --   -0.44947  -0.44940  -0.44530  -0.44338  -0.43797
 Alpha  occ. eigenvalues --   -0.43439  -0.42239  -0.41885  -0.40901  -0.40337
 Alpha  occ. eigenvalues --   -0.38338  -0.37561  -0.36341  -0.35560  -0.34669
 Alpha  occ. eigenvalues --   -0.32391  -0.31061
 Alpha virt. eigenvalues --   -0.14715  -0.13532  -0.11133  -0.10848  -0.10000
 Alpha virt. eigenvalues --   -0.08413  -0.04860  -0.04509  -0.04427  -0.03097
 Alpha virt. eigenvalues --   -0.02617  -0.02112  -0.01461  -0.00596   0.01004
 Alpha virt. eigenvalues --    0.01188   0.01272   0.01901   0.02286   0.02409
 Alpha virt. eigenvalues --    0.02620   0.03547   0.03648   0.03994   0.04341
 Alpha virt. eigenvalues --    0.04637   0.05064   0.05477   0.05521   0.05740
 Alpha virt. eigenvalues --    0.06390   0.06489   0.07138   0.07351   0.08134
 Alpha virt. eigenvalues --    0.08460   0.08540   0.09063   0.09350   0.09988
 Alpha virt. eigenvalues --    0.10008   0.10748   0.11330   0.11588   0.12091
 Alpha virt. eigenvalues --    0.12815   0.13201   0.13473   0.13678   0.14640
 Alpha virt. eigenvalues --    0.14874   0.15474   0.16770   0.17164   0.17690
 Alpha virt. eigenvalues --    0.18763   0.20829   0.21361   0.22157   0.23101
 Alpha virt. eigenvalues --    0.23651   0.24394   0.25737   0.26299   0.27469
 Alpha virt. eigenvalues --    0.27930   0.28452   0.30782   0.33125   0.34218
 Alpha virt. eigenvalues --    0.36516   0.37195   0.37899   0.38890   0.38988
 Alpha virt. eigenvalues --    0.40258   0.41061   0.41146   0.41458   0.42205
 Alpha virt. eigenvalues --    0.42469   0.43064   0.43466   0.44184   0.45012
 Alpha virt. eigenvalues --    0.45259   0.45977   0.46889   0.47377   0.47514
 Alpha virt. eigenvalues --    0.47919   0.48494   0.48913   0.49326   0.49705
 Alpha virt. eigenvalues --    0.49806   0.50960   0.51448   0.51674   0.52287
 Alpha virt. eigenvalues --    0.52768   0.53464   0.53721   0.53989   0.54806
 Alpha virt. eigenvalues --    0.55521   0.56064   0.56297   0.56838   0.57269
 Alpha virt. eigenvalues --    0.58688   0.59235   0.59676   0.60669   0.60836
 Alpha virt. eigenvalues --    0.61739   0.62546   0.63051   0.63506   0.63801
 Alpha virt. eigenvalues --    0.64660   0.65700   0.66069   0.67295   0.67846
 Alpha virt. eigenvalues --    0.68267   0.68797   0.69262   0.70009   0.70540
 Alpha virt. eigenvalues --    0.70894   0.71528   0.71976   0.72495   0.73005
 Alpha virt. eigenvalues --    0.73633   0.73967   0.74730   0.74998   0.75657
 Alpha virt. eigenvalues --    0.75830   0.76220   0.76569   0.76830   0.77507
 Alpha virt. eigenvalues --    0.77789   0.78509   0.78751   0.79131   0.79214
 Alpha virt. eigenvalues --    0.79583   0.79797   0.80661   0.81083   0.81426
 Alpha virt. eigenvalues --    0.81826   0.82278   0.82836   0.83263   0.83495
 Alpha virt. eigenvalues --    0.84152   0.84238   0.85418   0.85730   0.86438
 Alpha virt. eigenvalues --    0.86789   0.87446   0.87971   0.88691   0.89600
 Alpha virt. eigenvalues --    0.89730   0.90691   0.91278   0.91666   0.92468
 Alpha virt. eigenvalues --    0.93858   0.94556   0.95243   0.95991   0.97269
 Alpha virt. eigenvalues --    0.97879   0.98175   1.00492   1.01061   1.01131
 Alpha virt. eigenvalues --    1.02275   1.03052   1.03780   1.04987   1.05638
 Alpha virt. eigenvalues --    1.06245   1.07524   1.07831   1.08813   1.09034
 Alpha virt. eigenvalues --    1.12026   1.12420   1.12647   1.14357   1.15285
 Alpha virt. eigenvalues --    1.15930   1.16705   1.17665   1.18855   1.20284
 Alpha virt. eigenvalues --    1.21371   1.21910   1.23635   1.24539   1.25292
 Alpha virt. eigenvalues --    1.26138   1.27273   1.27745   1.28242   1.29416
 Alpha virt. eigenvalues --    1.30352   1.31301   1.32418   1.33017   1.34818
 Alpha virt. eigenvalues --    1.35978   1.36748   1.37361   1.38493   1.39487
 Alpha virt. eigenvalues --    1.40361   1.40750   1.41164   1.42115   1.43492
 Alpha virt. eigenvalues --    1.44005   1.44640   1.46383   1.47894   1.48915
 Alpha virt. eigenvalues --    1.50645   1.51704   1.52755   1.54114   1.55550
 Alpha virt. eigenvalues --    1.56556   1.58093   1.59413   1.59875   1.61185
 Alpha virt. eigenvalues --    1.62567   1.62998   1.64683   1.65919   1.66806
 Alpha virt. eigenvalues --    1.67055   1.67413   1.67839   1.68630   1.68707
 Alpha virt. eigenvalues --    1.69667   1.70550   1.70984   1.71958   1.72335
 Alpha virt. eigenvalues --    1.72633   1.72841   1.73882   1.74645   1.75183
 Alpha virt. eigenvalues --    1.76062   1.76732   1.78359   1.78538   1.79140
 Alpha virt. eigenvalues --    1.79622   1.80716   1.81361   1.81704   1.82321
 Alpha virt. eigenvalues --    1.82767   1.83463   1.84344   1.85223   1.85747
 Alpha virt. eigenvalues --    1.86404   1.87316   1.87473   1.87990   1.89170
 Alpha virt. eigenvalues --    1.89849   1.91046   1.92559   1.93306   1.94149
 Alpha virt. eigenvalues --    1.94719   1.94829   1.95725   1.96874   1.97967
 Alpha virt. eigenvalues --    1.98667   1.99591   2.00691   2.01430   2.02389
 Alpha virt. eigenvalues --    2.02516   2.04470   2.04746   2.05970   2.06739
 Alpha virt. eigenvalues --    2.07763   2.08411   2.09278   2.09770   2.11762
 Alpha virt. eigenvalues --    2.14140   2.14342   2.15018   2.16723   2.18003
 Alpha virt. eigenvalues --    2.18270   2.18657   2.20003   2.20714   2.21572
 Alpha virt. eigenvalues --    2.22015   2.24589   2.25212   2.25979   2.27288
 Alpha virt. eigenvalues --    2.27464   2.27960   2.29783   2.31326   2.32559
 Alpha virt. eigenvalues --    2.33099   2.34644   2.35666   2.35990   2.37108
 Alpha virt. eigenvalues --    2.37995   2.39787   2.40084   2.40634   2.41703
 Alpha virt. eigenvalues --    2.42209   2.43529   2.44502   2.45227   2.46096
 Alpha virt. eigenvalues --    2.47087   2.49878   2.50829   2.51521   2.52568
 Alpha virt. eigenvalues --    2.53485   2.53688   2.56521   2.57314   2.57637
 Alpha virt. eigenvalues --    2.58428   2.60279   2.60930   2.62069   2.62736
 Alpha virt. eigenvalues --    2.65401   2.66464   2.68080   2.68434   2.68791
 Alpha virt. eigenvalues --    2.69180   2.70539   2.77321   2.77828   2.80127
 Alpha virt. eigenvalues --    2.80667   2.81454   2.87667   2.88875   2.89755
 Alpha virt. eigenvalues --    2.90793   2.92058   2.97176   2.99989   3.00827
 Alpha virt. eigenvalues --    3.02033   3.03410   3.31209   3.69416   3.72257
 Alpha virt. eigenvalues --    3.83235   3.88215   3.91159   3.94304   3.95481
 Alpha virt. eigenvalues --    3.98359   4.02674   4.04135   4.05664   4.07501
 Alpha virt. eigenvalues --    4.08589   4.11659   4.14292   4.17388   4.19370
 Alpha virt. eigenvalues --    4.19809   4.25136   4.25556   4.28746   4.31830
 Alpha virt. eigenvalues --    4.32907   4.34031   4.39541   4.40417   4.45994
 Alpha virt. eigenvalues --    4.51976   4.59080   4.60709   4.69768
          Condensed to atoms (all electrons):
 Mulliken charges:
               1
     1  N   -0.756312
     2  C   -0.108510
     3  C    0.637235
     4  O   -0.537766
     5  C   -0.414556
     6  C    0.160799
     7  C   -0.201224
     8  C   -0.242941
     9  C   -0.177540
    10  C   -0.158068
    11  C    0.357640
    12  O   -0.672103
    13  H    0.407995
    14  H    0.230280
    15  H    0.193234
    16  H    0.189511
    17  H    0.133880
    18  H    0.124984
    19  H    0.163373
    20  H    0.169133
    21  H    0.456235
    22  H    0.432667
    23  N   -0.605815
    24  C   -0.052020
    25  C    0.600083
    26  O   -0.556154
    27  C   -0.099634
    28  C   -0.483338
    29  C   -0.468510
    30  H    0.368084
    31  H    0.186527
    32  H    0.161777
    33  H    0.195088
    34  H    0.134189
    35  H    0.178856
    36  H    0.155396
    37  H    0.178978
    38  H    0.169072
    39  N   -0.567417
    40  C   -0.075872
    41  C    0.613301
    42  O   -0.464534
    43  C   -0.294548
    44  C   -0.288111
    45  C   -0.158266
    46  N   -0.590552
    47  C    0.644531
    48  N   -0.736652
    49  N   -0.741040
    50  O   -0.644813
    51  H    0.477854
    52  H    0.452036
    53  H    0.370694
    54  H    0.204918
    55  H    0.179783
    56  H    0.185439
    57  H    0.173751
    58  H    0.166399
    59  H    0.164251
    60  H    0.157799
    61  H    0.333646
    62  H    0.297630
    63  H    0.353426
    64  H    0.335823
 Sum of Mulliken charges =   1.00000
 Mulliken charges with hydrogens summed into heavy atoms:
               1
     1  N    0.540586
     2  C    0.121770
     3  C    0.637235
     4  O   -0.537766
     5  C   -0.031811
     6  C    0.160799
     7  C   -0.067344
     8  C   -0.117957
     9  C   -0.014167
    10  C    0.011064
    11  C    0.357640
    12  O   -0.220066
    23  N   -0.237732
    24  C    0.134506
    25  C    0.600083
    26  O   -0.556154
    27  C    0.062143
    28  C    0.024794
    29  C    0.034936
    39  N   -0.196723
    40  C    0.129047
    41  C    0.613301
    42  O   -0.464534
    43  C    0.070673
    44  C    0.052039
    45  C    0.163784
    46  N   -0.256907
    47  C    0.644531
    48  N   -0.439022
    49  N   -0.051791
    50  O   -0.166959
 Electronic spatial extent (au):  <R**2>=        3282749.1555
 Charge=              1.0000 electrons
 Dipole moment (field-independent basis, Debye):
    X=            163.0141    Y=           -150.7702    Z=            200.7617  Tot=            299.3502
 Quadrupole moment (field-independent basis, Debye-Ang):
   XX=           5362.6976   YY=           4619.4145   ZZ=           8235.9161
   XY=          -5115.4721   XZ=           6797.6272   YZ=          -6291.6896
 Traceless Quadrupole moment (field-independent basis, Debye-Ang):
   XX=           -709.9785   YY=          -1453.2615   ZZ=           2163.2400
   XY=          -5115.4721   XZ=           6797.6272   YZ=          -6291.6896
 Octapole moment (field-independent basis, Debye-Ang**2):
  XXX=         170423.8759  YYY=        -138087.3169  ZZZ=         330915.5692  XYY=         156583.6339
  XXY=        -168406.4752  XXZ=         222891.6441  XZZ=         278118.4793  YZZ=        -257687.1097
  YYZ=         192452.6368  XYZ=        -212962.0691
 Hexadecapole moment (field-independent basis, Debye-Ang**3):
 XXXX=        5188361.6908 YYYY=        4013448.0157 ZZZZ=       12969245.8584 XXXY=       -5361323.1245
 XXXZ=        7051281.1078 YYYX=       -4672104.1548 YYYZ=       -5742773.8073 ZZZX=       11139670.4591
 ZZZY=      -10336046.9744 XXYY=        5149675.4621 XXZZ=        9078789.4352 YYZZ=        7863941.4606
 XXYZ=       -6987782.0591 YYXZ=        6507488.6290 ZZXY=       -8698366.7974
 N-N= 3.593665599691D+03 E-N=-1.062234495173D+04  KE= 1.472812064449D+03
 Unable to Open any file for archive entry.
 1\1\GINC-LAC-315\SP\RB3LYP\6-31G(d)\C20H33N6O5(1+)\KENGMITH\31-May-202
 2\0\\# B3LYP/6-31G* empiricaldispersion=gd3 guess=read geom=check nosy
 mm integral(ultrafinegrid)\\Candidate Structure: Conf:14 Charge calc i
 n gas phase\\1,1\N,0,32.3124749996,-33.3106452644,42.3917394252\C,0,33
 .5329071183,-34.05041519,41.8776531499\C,0,33.9748658315,-33.143553649
 9,40.7018652772\O,0,33.0809531668,-32.742100657,39.9509615303\C,0,34.5
 083786806,-34.4256623124,43.0201244573\C,0,34.7358719516,-33.314603262
 ,44.0130995405\C,0,35.797838539,-32.4066466863,43.933354697\C,0,33.758
 1724029,-33.0946535364,44.9959023254\C,0,35.8108429484,-31.2522212153,
 44.7094669374\C,0,33.7663015776,-31.9536814135,45.7836482274\C,0,34.75
 30864445,-30.9786557754,45.5909927183\O,0,34.7170759241,-29.7746227087
 ,46.201122877\H,0,31.7577832382,-33.8708671216,43.043241016\H,0,33.147
 7805371,-34.9586247677,41.4022452348\H,0,34.1050637696,-35.31026804,43
 .5262522802\H,0,35.4354385224,-34.7756051471,42.551079115\H,0,36.61899
 559,-32.5633075255,43.2409706542\H,0,32.9780011331,-33.8377259037,45.1
 548942379\H,0,36.6042271642,-30.5200314883,44.6079688417\H,0,33.000952
 1774,-31.800316342,46.5342410573\H,0,32.6032160493,-32.4377907574,42.8
 711875122\H,0,31.7396571678,-33.0333875523,41.5796869014\N,0,35.272754
 6588,-32.8290329881,40.5731380042\C,0,35.6949397056,-31.7475479143,39.
 6578287848\C,0,35.1355811242,-30.4783217775,40.3400616029\O,0,35.62004
 38047,-30.0580223008,41.4001654556\C,0,37.2164197654,-31.7519186667,39
 .4095649034\C,0,38.0801232548,-31.8076280581,40.6801381218\C,0,37.5826
 736612,-30.5294532565,38.5535628444\H,0,35.8743934933,-33.0006928045,4
 1.3652323615\H,0,35.1786629053,-31.9227776672,38.7116696259\H,0,37.414
 0804977,-32.6574586593,38.8205003656\H,0,37.8895479133,-30.9499943292,
 41.3292137332\H,0,37.9215119008,-32.7283649876,41.2563073714\H,0,39.13
 79103659,-31.8030833435,40.4001459667\H,0,36.9727309002,-30.4734114453
 ,37.6444574089\H,0,38.6315411186,-30.5811596974,38.2481086233\H,0,37.4
 451773152,-29.6014660155,39.1196901303\N,0,33.978337123,-30.0053649311
 ,39.8082767718\C,0,32.9829478927,-29.2026232541,40.5469888581\C,0,32.4
 327149173,-30.0766388447,41.6977239035\O,0,31.2851129673,-30.445719361
 ,41.7691193065\C,0,33.4500987562,-27.7874282771,40.9370350277\C,0,32.5
 843912462,-27.152970454,42.0567699811\C,0,33.3244643352,-27.2123064196
 ,43.3985640927\N,0,32.5559382075,-26.7755785336,44.5508664079\C,0,32.3
 455323137,-27.5776078633,45.6502004123\N,0,32.2550031784,-28.871019354
 ,45.6488231953\N,0,32.185529592,-26.8821013576,46.8341287188\O,0,33.31
 05392278,-30.4999476832,42.650145506\H,0,34.2480231605,-30.199693129,4
 2.4894245667\H,0,33.773665302,-29.4977972767,46.2694144183\H,0,33.5873
 645366,-30.583107807,39.0737286138\H,0,32.1307452738,-29.1069796638,39
 .8728949232\H,0,33.4293532665,-27.1800467291,40.0268463528\H,0,34.4954
 060584,-27.8398842428,41.2517613577\H,0,31.6175261939,-27.6616256049,4
 2.1558305986\H,0,32.3515526823,-26.1123769359,41.8083859113\H,0,34.232
 8776971,-26.5986785824,43.3096008421\H,0,33.6620611488,-28.2283876432,
 43.6121204583\H,0,32.4625214965,-25.778469475,44.6875315466\H,0,32.166
 2507505,-29.2090067685,44.6897032904\H,0,31.9918271993,-27.4679027611,
 47.6351021317\H,0,32.8092777773,-26.1077762988,47.0189085793\\Version=
 ES64L-G16RevC.01\HF=-1486.555074\RMSD=2.725e-09\Dipole=-0.3592756,-1.3
 637394,-1.3883888\Quadrupole=-527.8516196,-1080.46432,1608.3159395,-38
 03.2281111,5053.8692412,-4677.7169826\PG=C01 [X(C20H33N6O5)]\\@
 The archive entry for this job was punched.


 ROSE IS A RED
 TY COBB IS BLUE
 'CAUSE PETE JUST HIT
 NO. 4592.
 Job cpu time:       0 days  0 hours  1 minutes 51.5 seconds.
 Elapsed time:       0 days  0 hours  0 minutes 28.6 seconds.
 File lengths (MBytes):  RWF=    264 Int=      0 D2E=      0 Chk=     40 Scr=     16
 Normal termination of Gaussian 16 at Tue May 31 11:50:38 2022.
