 Entering Gaussian System, Link 0=/opt/software/Gaussian/g16-AVX2-C.01/g16/g16
 Input=charge-conf-472.com
 Output=charge-conf-472.log
 Initial command:
 /opt/software/Gaussian/g16-AVX2-C.01/g16/l1.exe "/mnt/gs18/scratch/users/kengmith/Gau-27581.inp" -scrdir="/mnt/gs18/scratch/users/kengmith/"
 Entering Link 1 = /opt/software/Gaussian/g16-AVX2-C.01/g16/l1.exe PID=     27591.
  
 Copyright (c) 1988-2019, Gaussian, Inc.  All Rights Reserved.
  
 This is part of the Gaussian(R) 16 program.  It is based on
 the Gaussian(R) 09 system (copyright 2009, Gaussian, Inc.),
 the Gaussian(R) 03 system (copyright 2003, Gaussian, Inc.),
 the Gaussian(R) 98 system (copyright 1998, Gaussian, Inc.),
 the Gaussian(R) 94 system (copyright 1995, Gaussian, Inc.),
 the Gaussian 92(TM) system (copyright 1992, Gaussian, Inc.),
 the Gaussian 90(TM) system (copyright 1990, Gaussian, Inc.),
 the Gaussian 88(TM) system (copyright 1988, Gaussian, Inc.),
 the Gaussian 86(TM) system (copyright 1986, Carnegie Mellon
 University), and the Gaussian 82(TM) system (copyright 1983,
 Carnegie Mellon University). Gaussian is a federally registered
 trademark of Gaussian, Inc.
  
 This software contains proprietary and confidential information,
 including trade secrets, belonging to Gaussian, Inc.
  
 This software is provided under written license and may be
 used, copied, transmitted, or stored only in accord with that
 written license.
  
 The following legend is applicable only to US Government
 contracts under FAR:
  
                    RESTRICTED RIGHTS LEGEND
  
 Use, reproduction and disclosure by the US Government is
 subject to restrictions as set forth in subparagraphs (a)
 and (c) of the Commercial Computer Software - Restricted
 Rights clause in FAR 52.227-19.
  
 Gaussian, Inc.
 340 Quinnipiac St., Bldg. 40, Wallingford CT 06492
  
  
 ---------------------------------------------------------------
 Warning -- This program may not be used in any manner that
 competes with the business of Gaussian, Inc. or will provide
 assistance to any competitor of Gaussian, Inc.  The licensee
 of this program is prohibited from giving any competitor of
 Gaussian, Inc. access to this program.  By using this program,
 the user acknowledges that Gaussian, Inc. is engaged in the
 business of creating and licensing software in the field of
 computational chemistry and represents and warrants to the
 licensee that it is not a competitor of Gaussian, Inc. and that
 it will not use this program in any manner prohibited above.
 ---------------------------------------------------------------
  

 Cite this work as:
 Gaussian 16, Revision C.01,
 M. J. Frisch, G. W. Trucks, H. B. Schlegel, G. E. Scuseria, 
 M. A. Robb, J. R. Cheeseman, G. Scalmani, V. Barone, 
 G. A. Petersson, H. Nakatsuji, X. Li, M. Caricato, A. V. Marenich, 
 J. Bloino, B. G. Janesko, R. Gomperts, B. Mennucci, H. P. Hratchian, 
 J. V. Ortiz, A. F. Izmaylov, J. L. Sonnenberg, D. Williams-Young, 
 F. Ding, F. Lipparini, F. Egidi, J. Goings, B. Peng, A. Petrone, 
 T. Henderson, D. Ranasinghe, V. G. Zakrzewski, J. Gao, N. Rega, 
 G. Zheng, W. Liang, M. Hada, M. Ehara, K. Toyota, R. Fukuda, 
 J. Hasegawa, M. Ishida, T. Nakajima, Y. Honda, O. Kitao, H. Nakai, 
 T. Vreven, K. Throssell, J. A. Montgomery, Jr., J. E. Peralta, 
 F. Ogliaro, M. J. Bearpark, J. J. Heyd, E. N. Brothers, K. N. Kudin, 
 V. N. Staroverov, T. A. Keith, R. Kobayashi, J. Normand, 
 K. Raghavachari, A. P. Rendell, J. C. Burant, S. S. Iyengar, 
 J. Tomasi, M. Cossi, J. M. Millam, M. Klene, C. Adamo, R. Cammi, 
 J. W. Ochterski, R. L. Martin, K. Morokuma, O. Farkas, 
 J. B. Foresman, and D. J. Fox, Gaussian, Inc., Wallingford CT, 2019.
 
 ******************************************
 Gaussian 16:  ES64L-G16RevC.01  3-Jul-2019
                31-May-2022 
 ******************************************
 %mem=8gb
 %nproc=4
 Will use up to    4 processors via shared memory.
 %chk=conf-472.chk
 ----------------------------------------------------------------------
 # B3LYP/6-31G* empiricaldispersion=gd3 guess=read geom=check nosymm in
 tegral(ultrafinegrid)
 ----------------------------------------------------------------------
 1/29=2,38=1,172=1/1;
 2/12=2,15=1,40=1/2;
 3/5=1,6=6,7=1,11=2,14=-4,25=1,30=1,74=-5,75=-5,116=-2,124=31/1,2,3;
 4/5=1/1;
 5/5=2,38=6/2;
 6/7=2,8=2,9=2,10=2,28=1/1;
 99/5=1,9=1/99;
 ------------------------------------------------------
 Candidate Structure: Conf:472 Charge calc in gas phase
 ------------------------------------------------------
 Structure from the checkpoint file:  "conf-472.chk"
 Charge =  1 Multiplicity = 1
 Redundant internal coordinates found in file.  (old form).
 N,0,35.83674322,-30.5181741383,45.9936768541
 C,0,35.1995734458,-31.8958381823,45.9394786909
 C,0,33.8317347079,-31.5835485919,45.2804842244
 O,0,33.3072643996,-30.5029402684,45.5577601717
 C,0,36.1629174184,-32.9396297797,45.3224149352
 C,0,36.473384984,-32.7307780381,43.8649512638
 C,0,35.7761155671,-33.4437644803,42.8589760873
 C,0,37.3760490993,-31.7506557966,43.4251235299
 C,0,35.8389761147,-33.0992911431,41.5237303486
 C,0,37.4502974007,-31.3569174653,42.0886752667
 C,0,36.6319564034,-31.9734168405,41.0528822298
 O,0,36.5865744909,-31.5545910177,39.8712979252
 H,0,35.1172279542,-29.8655627218,46.3442076754
 H,0,34.9896909024,-32.1566911728,46.9840426778
 H,0,37.0710417855,-32.9353386843,45.9439118206
 H,0,35.7026365646,-33.921791951,45.4933772239
 H,0,35.1892901081,-34.3210956488,43.1475231397
 H,0,38.0234642183,-31.253043895,44.151049398
 H,0,35.3167532406,-33.6802140734,40.7684805038
 H,0,38.1950483895,-30.6329990224,41.7655633708
 H,0,36.6732245337,-30.4947932865,46.5825447258
 H,0,36.0690227956,-30.1680450029,45.0371563839
 N,0,33.2673455843,-32.4787579223,44.4459518524
 C,0,32.0375686568,-32.1181864838,43.7349905344
 C,0,32.2462958461,-30.9152088569,42.7987027892
 O,0,31.2555125521,-30.2441788454,42.4648805038
 C,0,31.4074394957,-33.343167008,43.0184839756
 C,0,32.1362924275,-33.7138038062,41.7189127815
 C,0,29.9108180711,-33.1151195294,42.7633916337
 H,0,33.8113009695,-33.2626786141,44.1115545055
 H,0,31.332800473,-31.7428905259,44.482222152
 H,0,31.5064048775,-34.1765715688,43.7277162821
 H,0,33.2129634102,-33.8433677024,41.855368278
 H,0,31.7346093528,-34.6475584701,41.3140653813
 H,0,31.9956399452,-32.9371523327,40.9566470423
 H,0,29.7526010292,-32.2593500176,42.1002913032
 H,0,29.3700535035,-32.9226135642,43.6962759639
 H,0,29.4724464893,-34.0011783224,42.2933549881
 N,0,33.4973280304,-30.6397194262,42.3661814391
 C,0,33.8950938563,-29.2949667872,41.9240166731
 C,0,34.6832268565,-28.6634270743,43.0859694835
 O,0,34.2752439014,-27.7334134188,43.7303885359
 C,0,34.6290505142,-29.2743468255,40.5714481155
 C,0,33.9174744229,-30.0323210154,39.4395587121
 C,0,32.7131218212,-29.319578361,38.8151424213
 N,0,31.6056080773,-29.1762542413,39.7787026799
 C,0,30.8563535399,-28.0926017422,39.9741102976
 N,0,30.7509969849,-27.1424888764,39.0269136844
 N,0,30.2206167152,-27.9380921291,41.1449041548
 O,0,35.8516569626,-29.2755618784,43.43076603
 H,0,36.2171741731,-29.9353197244,42.7732870523
 H,0,30.3453139719,-26.2418158279,39.2345191184
 H,0,34.2329444929,-31.3256496765,42.5233868193
 H,0,32.9822744433,-28.7067272025,41.8767203278
 H,0,35.6208668234,-29.7250411642,40.6538632848
 H,0,34.7790329555,-28.2216870789,40.2966135412
 H,0,33.6258526547,-31.030628315,39.7878572152
 H,0,34.6517093706,-30.2159158633,38.6503002973
 H,0,32.3589889549,-29.8753774002,37.9392138188
 H,0,33.0092013329,-28.3174877499,38.4850713013
 H,0,31.5254560746,-29.8742602457,40.5181845364
 H,0,31.0348886101,-27.3203732166,38.0753483667
 H,0,29.4295752432,-27.3167172815,41.2302656353
 H,0,30.4046036382,-28.6098079163,41.8899784335
 Recover connectivity data from disk.
                           ----------------------------
                           !    Current Parameters    !
                           ! (Angstroms and Degrees)  !
 --------------------------                            --------------------------
 ! Name  Definition              Value                                          !
 --------------------------------------------------------------------------------
 ! R1    R(1,2)                  1.5188                                         !
 ! R2    R(1,13)                 1.0327                                         !
 ! R3    R(1,21)                 1.0232                                         !
 ! R4    R(1,22)                 1.0447                                         !
 ! R5    R(2,3)                  1.5501                                         !
 ! R6    R(2,5)                  1.5486                                         !
 ! R7    R(2,14)                 1.0969                                         !
 ! R8    R(3,4)                  1.2327                                         !
 ! R9    R(3,23)                 1.3477                                         !
 ! R10   R(5,6)                  1.5047                                         !
 ! R11   R(5,15)                 1.1004                                         !
 ! R12   R(5,16)                 1.0981                                         !
 ! R13   R(6,7)                  1.4165                                         !
 ! R14   R(6,8)                  1.4032                                         !
 ! R15   R(7,9)                  1.3804                                         !
 ! R16   R(7,17)                 1.0942                                         !
 ! R17   R(8,10)                 1.3952                                         !
 ! R18   R(8,18)                 1.0926                                         !
 ! R19   R(9,11)                 1.4554                                         !
 ! R20   R(9,19)                 1.0865                                         !
 ! R21   R(10,11)                1.4569                                         !
 ! R22   R(10,20)                1.0877                                         !
 ! R23   R(11,12)                1.2544                                         !
 ! R24   R(23,24)                1.4655                                         !
 ! R25   R(23,30)                1.0111                                         !
 ! R26   R(24,25)                1.5386                                         !
 ! R27   R(24,27)                1.5527                                         !
 ! R28   R(24,31)                1.0936                                         !
 ! R29   R(25,26)                1.2423                                         !
 ! R30   R(25,39)                1.3521                                         !
 ! R31   R(27,28)                1.5354                                         !
 ! R32   R(27,29)                1.5352                                         !
 ! R33   R(27,32)                1.0988                                         !
 ! R34   R(28,33)                1.093                                          !
 ! R35   R(28,34)                1.0941                                         !
 ! R36   R(28,35)                1.0973                                         !
 ! R37   R(29,36)                1.0941                                         !
 ! R38   R(29,37)                1.0953                                         !
 ! R39   R(29,38)                1.0946                                         !
 ! R40   R(39,40)                1.4704                                         !
 ! R41   R(39,53)                1.018                                          !
 ! R42   R(40,41)                1.5395                                         !
 ! R43   R(40,43)                1.539                                          !
 ! R44   R(40,54)                1.087                                          !
 ! R45   R(41,42)                1.2028                                         !
 ! R46   R(41,50)                1.3634                                         !
 ! R47   R(43,44)                1.5369                                         !
 ! R48   R(43,55)                1.0925                                         !
 ! R49   R(43,56)                1.0982                                         !
 ! R50   R(44,45)                1.5324                                         !
 ! R51   R(44,57)                1.0968                                         !
 ! R52   R(44,58)                1.0935                                         !
 ! R53   R(45,46)                1.475                                          !
 ! R54   R(45,59)                1.0962                                         !
 ! R55   R(45,60)                1.0958                                         !
 ! R56   R(46,47)                1.3319                                         !
 ! R57   R(46,61)                1.02                                           !
 ! R58   R(47,48)                1.3457                                         !
 ! R59   R(47,49)                1.3412                                         !
 ! R60   R(48,52)                1.0094                                         !
 ! R61   R(48,62)                1.0088                                         !
 ! R62   R(49,63)                1.0095                                         !
 ! R63   R(49,64)                1.0199                                         !
 ! R64   R(50,51)                1.0006                                         !
 ! A1    A(2,1,13)             107.0395                                         !
 ! A2    A(2,1,21)             112.5944                                         !
 ! A3    A(2,1,22)             111.3821                                         !
 ! A4    A(13,1,21)            111.0871                                         !
 ! A5    A(13,1,22)            104.7077                                         !
 ! A6    A(21,1,22)            109.724                                          !
 ! A7    A(1,2,3)              101.6901                                         !
 ! A8    A(1,2,5)              111.3838                                         !
 ! A9    A(1,2,14)             105.1882                                         !
 ! A10   A(3,2,5)              121.0182                                         !
 ! A11   A(3,2,14)             106.4938                                         !
 ! A12   A(5,2,14)             109.7661                                         !
 ! A13   A(2,3,4)              117.1554                                         !
 ! A14   A(2,3,23)             119.9312                                         !
 ! A15   A(4,3,23)             122.9133                                         !
 ! A16   A(2,5,6)              114.8811                                         !
 ! A17   A(2,5,15)             106.5995                                         !
 ! A18   A(2,5,16)             106.2647                                         !
 ! A19   A(6,5,15)             112.0998                                         !
 ! A20   A(6,5,16)             111.1887                                         !
 ! A21   A(15,5,16)            105.1577                                         !
 ! A22   A(5,6,7)              121.0939                                         !
 ! A23   A(5,6,8)              122.2279                                         !
 ! A24   A(7,6,8)              116.4642                                         !
 ! A25   A(6,7,9)              122.6104                                         !
 ! A26   A(6,7,17)             118.7037                                         !
 ! A27   A(9,7,17)             118.6578                                         !
 ! A28   A(6,8,10)             122.114                                          !
 ! A29   A(6,8,18)             119.4104                                         !
 ! A30   A(10,8,18)            118.4482                                         !
 ! A31   A(7,9,11)             122.0597                                         !
 ! A32   A(7,9,19)             121.1344                                         !
 ! A33   A(11,9,19)            116.7822                                         !
 ! A34   A(8,10,11)            122.1199                                         !
 ! A35   A(8,10,20)            120.584                                          !
 ! A36   A(11,10,20)           117.0664                                         !
 ! A37   A(9,11,10)            113.7901                                         !
 ! A38   A(9,11,12)            122.9092                                         !
 ! A39   A(10,11,12)           123.2777                                         !
 ! A40   A(3,23,24)            119.2333                                         !
 ! A41   A(3,23,30)            119.6374                                         !
 ! A42   A(24,23,30)           118.8008                                         !
 ! A43   A(23,24,25)           111.9459                                         !
 ! A44   A(23,24,27)           111.7333                                         !
 ! A45   A(23,24,31)           107.0822                                         !
 ! A46   A(25,24,27)           113.0209                                         !
 ! A47   A(25,24,31)           103.5862                                         !
 ! A48   A(27,24,31)           108.9359                                         !
 ! A49   A(24,25,26)           118.5311                                         !
 ! A50   A(24,25,39)           118.6525                                         !
 ! A51   A(26,25,39)           122.8143                                         !
 ! A52   A(24,27,28)           112.8528                                         !
 ! A53   A(24,27,29)           110.7992                                         !
 ! A54   A(24,27,32)           105.3057                                         !
 ! A55   A(28,27,29)           110.976                                          !
 ! A56   A(28,27,32)           108.6916                                         !
 ! A57   A(29,27,32)           107.9215                                         !
 ! A58   A(27,28,33)           112.989                                          !
 ! A59   A(27,28,34)           110.1767                                         !
 ! A60   A(27,28,35)           110.8718                                         !
 ! A61   A(33,28,34)           107.8587                                         !
 ! A62   A(33,28,35)           107.2716                                         !
 ! A63   A(34,28,35)           107.4541                                         !
 ! A64   A(27,29,36)           110.9686                                         !
 ! A65   A(27,29,37)           111.4612                                         !
 ! A66   A(27,29,38)           109.9691                                         !
 ! A67   A(36,29,37)           107.8978                                         !
 ! A68   A(36,29,38)           108.3591                                         !
 ! A69   A(37,29,38)           108.0754                                         !
 ! A70   A(25,39,40)           122.1978                                         !
 ! A71   A(25,39,53)           118.8109                                         !
 ! A72   A(40,39,53)           117.8513                                         !
 ! A73   A(39,40,41)           106.6598                                         !
 ! A74   A(39,40,43)           113.9251                                         !
 ! A75   A(39,40,54)           106.3103                                         !
 ! A76   A(41,40,43)           114.436                                          !
 ! A77   A(41,40,54)           103.9311                                         !
 ! A78   A(43,40,54)           110.7936                                         !
 ! A79   A(40,41,42)           123.2245                                         !
 ! A80   A(40,41,50)           116.4504                                         !
 ! A81   A(42,41,50)           120.1567                                         !
 ! A82   A(40,43,44)           114.8249                                         !
 ! A83   A(40,43,55)           111.1687                                         !
 ! A84   A(40,43,56)           107.3318                                         !
 ! A85   A(44,43,55)           105.8084                                         !
 ! A86   A(44,43,56)           110.5879                                         !
 ! A87   A(55,43,56)           106.8762                                         !
 ! A88   A(43,44,45)           115.7586                                         !
 ! A89   A(43,44,57)           109.7627                                         !
 ! A90   A(43,44,58)           107.6676                                         !
 ! A91   A(45,44,57)           110.1068                                         !
 ! A92   A(45,44,58)           108.1612                                         !
 ! A93   A(57,44,58)           104.7686                                         !
 ! A94   A(44,45,46)           111.6613                                         !
 ! A95   A(44,45,59)           110.1008                                         !
 ! A96   A(44,45,60)           109.616                                          !
 ! A97   A(46,45,59)           109.1904                                         !
 ! A98   A(46,45,60)           108.1069                                         !
 ! A99   A(59,45,60)           108.0756                                         !
 ! A100  A(45,46,47)           126.6777                                         !
 ! A101  A(45,46,61)           117.7815                                         !
 ! A102  A(47,46,61)           113.9663                                         !
 ! A103  A(46,47,48)           121.0119                                         !
 ! A104  A(46,47,49)           119.24                                           !
 ! A105  A(48,47,49)           119.7346                                         !
 ! A106  A(47,48,52)           121.1093                                         !
 ! A107  A(47,48,62)           121.1569                                         !
 ! A108  A(52,48,62)           117.6737                                         !
 ! A109  A(47,49,63)           121.0741                                         !
 ! A110  A(47,49,64)           118.4467                                         !
 ! A111  A(63,49,64)           119.0104                                         !
 ! A112  A(41,50,51)           116.2914                                         !
 ! D1    D(13,1,2,3)            45.4179                                         !
 ! D2    D(13,1,2,5)           175.6698                                         !
 ! D3    D(13,1,2,14)          -65.473                                          !
 ! D4    D(21,1,2,3)           167.7707                                         !
 ! D5    D(21,1,2,5)           -61.9774                                         !
 ! D6    D(21,1,2,14)           56.8798                                         !
 ! D7    D(22,1,2,3)           -68.484                                          !
 ! D8    D(22,1,2,5)            61.7678                                         !
 ! D9    D(22,1,2,14)         -179.375                                          !
 ! D10   D(1,2,3,4)            -34.6098                                         !
 ! D11   D(1,2,3,23)           145.4732                                         !
 ! D12   D(5,2,3,4)           -158.5879                                         !
 ! D13   D(5,2,3,23)            21.4951                                         !
 ! D14   D(14,2,3,4)            75.2846                                         !
 ! D15   D(14,2,3,23)         -104.6324                                         !
 ! D16   D(1,2,5,6)            -66.9092                                         !
 ! D17   D(1,2,5,15)            57.9111                                         !
 ! D18   D(1,2,5,16)           169.7004                                         !
 ! D19   D(3,2,5,6)             52.3889                                         !
 ! D20   D(3,2,5,15)           177.2091                                         !
 ! D21   D(3,2,5,16)           -71.0015                                         !
 ! D22   D(14,2,5,6)           177.0069                                         !
 ! D23   D(14,2,5,15)          -58.1729                                         !
 ! D24   D(14,2,5,16)           53.6165                                         !
 ! D25   D(2,3,23,24)         -174.3643                                         !
 ! D26   D(2,3,23,30)          -11.8894                                         !
 ! D27   D(4,3,23,24)            5.7236                                         !
 ! D28   D(4,3,23,30)          168.1985                                         !
 ! D29   D(2,5,6,7)            -97.3019                                         !
 ! D30   D(2,5,6,8)             77.1938                                         !
 ! D31   D(15,5,6,7)           140.8141                                         !
 ! D32   D(15,5,6,8)           -44.6902                                         !
 ! D33   D(16,5,6,7)            23.4219                                         !
 ! D34   D(16,5,6,8)          -162.0824                                         !
 ! D35   D(5,6,7,9)            166.9217                                         !
 ! D36   D(5,6,7,17)           -15.0324                                         !
 ! D37   D(8,6,7,9)             -7.8779                                         !
 ! D38   D(8,6,7,17)           170.168                                          !
 ! D39   D(5,6,8,10)          -165.7455                                         !
 ! D40   D(5,6,8,18)            12.3189                                         !
 ! D41   D(7,6,8,10)             8.9901                                         !
 ! D42   D(7,6,8,18)          -172.9456                                         !
 ! D43   D(6,7,9,11)             0.0648                                         !
 ! D44   D(6,7,9,19)           178.2412                                         !
 ! D45   D(17,7,9,11)         -177.982                                          !
 ! D46   D(17,7,9,19)            0.1945                                         !
 ! D47   D(6,8,10,11)           -2.4127                                         !
 ! D48   D(6,8,10,20)         -176.7429                                         !
 ! D49   D(18,8,10,11)         179.505                                          !
 ! D50   D(18,8,10,20)           5.1748                                         !
 ! D51   D(7,9,11,10)            6.4086                                         !
 ! D52   D(7,9,11,12)         -171.8954                                         !
 ! D53   D(19,9,11,10)        -171.8431                                         !
 ! D54   D(19,9,11,12)           9.853                                          !
 ! D55   D(8,10,11,9)           -5.2807                                         !
 ! D56   D(8,10,11,12)         173.0161                                         !
 ! D57   D(20,10,11,9)         169.2385                                         !
 ! D58   D(20,10,11,12)        -12.4647                                         !
 ! D59   D(3,23,24,25)          61.8504                                         !
 ! D60   D(3,23,24,27)        -170.2342                                         !
 ! D61   D(3,23,24,31)         -51.0275                                         !
 ! D62   D(30,23,24,25)       -100.7716                                         !
 ! D63   D(30,23,24,27)         27.1438                                         !
 ! D64   D(30,23,24,31)        146.3505                                         !
 ! D65   D(23,24,25,26)       -157.7022                                         !
 ! D66   D(23,24,25,39)         22.8078                                         !
 ! D67   D(27,24,25,26)         75.0714                                         !
 ! D68   D(27,24,25,39)       -104.4185                                         !
 ! D69   D(31,24,25,26)        -42.6665                                         !
 ! D70   D(31,24,25,39)        137.8436                                         !
 ! D71   D(23,24,27,28)        -77.1123                                         !
 ! D72   D(23,24,27,29)        157.7435                                         !
 ! D73   D(23,24,27,32)         41.3057                                         !
 ! D74   D(25,24,27,28)         50.226                                          !
 ! D75   D(25,24,27,29)        -74.9183                                         !
 ! D76   D(25,24,27,32)        168.644                                          !
 ! D77   D(31,24,27,28)        164.7839                                         !
 ! D78   D(31,24,27,29)         39.6396                                         !
 ! D79   D(31,24,27,32)        -76.7981                                         !
 ! D80   D(24,25,39,40)       -156.1603                                         !
 ! D81   D(24,25,39,53)         11.3678                                         !
 ! D82   D(26,25,39,40)         24.3729                                         !
 ! D83   D(26,25,39,53)       -168.099                                          !
 ! D84   D(24,27,28,33)         52.5765                                         !
 ! D85   D(24,27,28,34)        173.2938                                         !
 ! D86   D(24,27,28,35)        -67.8831                                         !
 ! D87   D(29,27,28,33)        177.6247                                         !
 ! D88   D(29,27,28,34)        -61.6579                                         !
 ! D89   D(29,27,28,35)         57.1651                                         !
 ! D90   D(32,27,28,33)        -63.846                                          !
 ! D91   D(32,27,28,34)         56.8713                                         !
 ! D92   D(32,27,28,35)        175.6944                                         !
 ! D93   D(24,27,29,36)         62.2993                                         !
 ! D94   D(24,27,29,37)        -57.9852                                         !
 ! D95   D(24,27,29,38)       -177.8237                                         !
 ! D96   D(28,27,29,36)        -63.8968                                         !
 ! D97   D(28,27,29,37)        175.8186                                         !
 ! D98   D(28,27,29,38)         55.9801                                         !
 ! D99   D(32,27,29,36)        177.1097                                         !
 ! D100  D(32,27,29,37)         56.8251                                         !
 ! D101  D(32,27,29,38)        -63.0133                                         !
 ! D102  D(25,39,40,41)        101.6037                                         !
 ! D103  D(25,39,40,43)       -131.1561                                         !
 ! D104  D(25,39,40,54)         -8.8474                                         !
 ! D105  D(53,39,40,41)        -66.0384                                         !
 ! D106  D(53,39,40,43)         61.2019                                         !
 ! D107  D(53,39,40,54)       -176.4894                                         !
 ! D108  D(39,40,41,42)       -111.7674                                         !
 ! D109  D(39,40,41,50)         63.5144                                         !
 ! D110  D(43,40,41,42)        121.2959                                         !
 ! D111  D(43,40,41,50)        -63.4224                                         !
 ! D112  D(54,40,41,42)          0.3347                                         !
 ! D113  D(54,40,41,50)        175.6165                                         !
 ! D114  D(39,40,43,44)         50.7331                                         !
 ! D115  D(39,40,43,55)        -69.3341                                         !
 ! D116  D(39,40,43,56)        174.1165                                         !
 ! D117  D(41,40,43,44)        173.8321                                         !
 ! D118  D(41,40,43,55)         53.7649                                         !
 ! D119  D(41,40,43,56)        -62.7845                                         !
 ! D120  D(54,40,43,44)        -69.0765                                         !
 ! D121  D(54,40,43,55)        170.8563                                         !
 ! D122  D(54,40,43,56)         54.3069                                         !
 ! D123  D(40,41,50,51)         14.6192                                         !
 ! D124  D(42,41,50,51)       -169.9452                                         !
 ! D125  D(40,43,44,45)         76.3485                                         !
 ! D126  D(40,43,44,57)        -49.0285                                         !
 ! D127  D(40,43,44,58)       -162.5265                                         !
 ! D128  D(55,43,44,45)       -160.6612                                         !
 ! D129  D(55,43,44,57)         73.9617                                         !
 ! D130  D(55,43,44,58)        -39.5363                                         !
 ! D131  D(56,43,44,45)        -45.2791                                         !
 ! D132  D(56,43,44,57)       -170.6561                                         !
 ! D133  D(56,43,44,58)         75.8459                                         !
 ! D134  D(43,44,45,46)        -65.8985                                         !
 ! D135  D(43,44,45,59)        172.6367                                         !
 ! D136  D(43,44,45,60)         53.8741                                         !
 ! D137  D(57,44,45,46)         59.3022                                         !
 ! D138  D(57,44,45,59)        -62.1626                                         !
 ! D139  D(57,44,45,60)        179.0748                                         !
 ! D140  D(58,44,45,46)        173.2422                                         !
 ! D141  D(58,44,45,59)         51.7774                                         !
 ! D142  D(58,44,45,60)        -66.9852                                         !
 ! D143  D(44,45,46,47)        136.4563                                         !
 ! D144  D(44,45,46,61)        -28.3028                                         !
 ! D145  D(59,45,46,47)       -101.5533                                         !
 ! D146  D(59,45,46,61)         93.6876                                         !
 ! D147  D(60,45,46,47)         15.7984                                         !
 ! D148  D(60,45,46,61)       -148.9607                                         !
 ! D149  D(45,46,47,48)         21.3583                                         !
 ! D150  D(45,46,47,49)       -157.3012                                         !
 ! D151  D(61,46,47,48)       -173.3868                                         !
 ! D152  D(61,46,47,49)          7.9537                                         !
 ! D153  D(46,47,48,52)       -167.3778                                         !
 ! D154  D(46,47,48,62)         15.5072                                         !
 ! D155  D(49,47,48,52)         11.2752                                         !
 ! D156  D(49,47,48,62)       -165.8398                                         !
 ! D157  D(46,47,49,63)       -159.9108                                         !
 ! D158  D(46,47,49,64)          6.1241                                         !
 ! D159  D(48,47,49,63)         21.4122                                         !
 ! D160  D(48,47,49,64)       -172.5528                                         !
 --------------------------------------------------------------------------------
 Symmetry turned off by external request.
 Stoichiometry    C20H33N6O5(1+)
 Framework group  C1[X(C20H33N6O5)]
 Deg. of freedom   186
 Full point group                 C1      NOp   1
                          Input orientation:                          
 ---------------------------------------------------------------------
 Center     Atomic      Atomic             Coordinates (Angstroms)
 Number     Number       Type             X           Y           Z
 ---------------------------------------------------------------------
      1          7           0       35.836743  -30.518174   45.993677
      2          6           0       35.199573  -31.895838   45.939479
      3          6           0       33.831735  -31.583549   45.280484
      4          8           0       33.307264  -30.502940   45.557760
      5          6           0       36.162917  -32.939630   45.322415
      6          6           0       36.473385  -32.730778   43.864951
      7          6           0       35.776116  -33.443764   42.858976
      8          6           0       37.376049  -31.750656   43.425124
      9          6           0       35.838976  -33.099291   41.523730
     10          6           0       37.450297  -31.356917   42.088675
     11          6           0       36.631956  -31.973417   41.052882
     12          8           0       36.586574  -31.554591   39.871298
     13          1           0       35.117228  -29.865563   46.344208
     14          1           0       34.989691  -32.156691   46.984043
     15          1           0       37.071042  -32.935339   45.943912
     16          1           0       35.702637  -33.921792   45.493377
     17          1           0       35.189290  -34.321096   43.147523
     18          1           0       38.023464  -31.253044   44.151049
     19          1           0       35.316753  -33.680214   40.768481
     20          1           0       38.195048  -30.632999   41.765563
     21          1           0       36.673225  -30.494793   46.582545
     22          1           0       36.069023  -30.168045   45.037156
     23          7           0       33.267346  -32.478758   44.445952
     24          6           0       32.037569  -32.118186   43.734991
     25          6           0       32.246296  -30.915209   42.798703
     26          8           0       31.255513  -30.244179   42.464881
     27          6           0       31.407439  -33.343167   43.018484
     28          6           0       32.136292  -33.713804   41.718913
     29          6           0       29.910818  -33.115120   42.763392
     30          1           0       33.811301  -33.262679   44.111555
     31          1           0       31.332800  -31.742891   44.482222
     32          1           0       31.506405  -34.176572   43.727716
     33          1           0       33.212963  -33.843368   41.855368
     34          1           0       31.734609  -34.647558   41.314065
     35          1           0       31.995640  -32.937152   40.956647
     36          1           0       29.752601  -32.259350   42.100291
     37          1           0       29.370054  -32.922614   43.696276
     38          1           0       29.472446  -34.001178   42.293355
     39          7           0       33.497328  -30.639719   42.366181
     40          6           0       33.895094  -29.294967   41.924017
     41          6           0       34.683227  -28.663427   43.085969
     42          8           0       34.275244  -27.733413   43.730389
     43          6           0       34.629051  -29.274347   40.571448
     44          6           0       33.917474  -30.032321   39.439559
     45          6           0       32.713122  -29.319578   38.815142
     46          7           0       31.605608  -29.176254   39.778703
     47          6           0       30.856354  -28.092602   39.974110
     48          7           0       30.750997  -27.142489   39.026914
     49          7           0       30.220617  -27.938092   41.144904
     50          8           0       35.851657  -29.275562   43.430766
     51          1           0       36.217174  -29.935320   42.773287
     52          1           0       30.345314  -26.241816   39.234519
     53          1           0       34.232944  -31.325650   42.523387
     54          1           0       32.982274  -28.706727   41.876720
     55          1           0       35.620867  -29.725041   40.653863
     56          1           0       34.779033  -28.221687   40.296614
     57          1           0       33.625853  -31.030628   39.787857
     58          1           0       34.651709  -30.215916   38.650300
     59          1           0       32.358989  -29.875377   37.939214
     60          1           0       33.009201  -28.317488   38.485071
     61          1           0       31.525456  -29.874260   40.518185
     62          1           0       31.034889  -27.320373   38.075348
     63          1           0       29.429575  -27.316717   41.230266
     64          1           0       30.404604  -28.609808   41.889978
 ---------------------------------------------------------------------
 Rotational constants (GHZ):           0.2007636           0.1241109           0.1122183
 Standard basis: 6-31G(d) (6D, 7F)
   531 basis functions,  1000 primitive gaussians,   531 cartesian basis functions
   117 alpha electrons      117 beta electrons
       nuclear repulsion energy      3625.9222810887 Hartrees.
 NAtoms=   64 NActive=   64 NUniq=   64 SFac= 1.00D+00 NAtFMM=   60 NAOKFM=T Big=T
 Integral buffers will be    131072 words long.
 Raffenetti 2 integral format.
 Two-electron integral symmetry is turned off.
 Nuclear repulsion after empirical dispersion term =     3625.8199097609 Hartrees.
 One-electron integrals computed using PRISM.
 NBasis=   531 RedAO= T EigKep=  4.90D-04  NBF=   531
 NBsUse=   531 1.00D-06 EigRej= -1.00D+00 NBFU=   531
 Initial guess from the checkpoint file:  "conf-472.chk"
 B after Tr=     0.000000    0.000000    0.000000
         Rot=    1.000000    0.000000    0.000000    0.000000 Ang=   0.00 deg.
 Requested convergence on RMS density matrix=1.00D-08 within 128 cycles.
 Requested convergence on MAX density matrix=1.00D-06.
 Requested convergence on             energy=1.00D-06.
 No special actions if energy rises.
 SCF Done:  E(RB3LYP) =  -1486.54085974     A.U. after    1 cycles
            NFock=  1  Conv=0.51D-08     -V/T= 2.0094

 **********************************************************************

            Population analysis using the SCF Density.

 **********************************************************************

 Alpha  occ. eigenvalues --  -19.29663 -19.25465 -19.25227 -19.24057 -19.13579
 Alpha  occ. eigenvalues --  -14.57697 -14.51765 -14.50540 -14.50302 -14.49481
 Alpha  occ. eigenvalues --  -14.48635 -10.47405 -10.42810 -10.42332 -10.42050
 Alpha  occ. eigenvalues --  -10.39168 -10.35286 -10.35043 -10.35042 -10.32029
 Alpha  occ. eigenvalues --  -10.30853 -10.29767 -10.29125 -10.28981 -10.27715
 Alpha  occ. eigenvalues --  -10.27655 -10.27595 -10.27002 -10.26875 -10.24721
 Alpha  occ. eigenvalues --  -10.24358  -1.20019  -1.18143  -1.16659  -1.15784
 Alpha  occ. eigenvalues --   -1.12344  -1.11757  -1.06421  -1.05168  -1.04575
 Alpha  occ. eigenvalues --   -1.03941  -1.03486  -0.93831  -0.92004  -0.90856
 Alpha  occ. eigenvalues --   -0.89328  -0.86885  -0.83213  -0.82237  -0.81235
 Alpha  occ. eigenvalues --   -0.79972  -0.78478  -0.77591  -0.75499  -0.73586
 Alpha  occ. eigenvalues --   -0.73307  -0.72644  -0.71824  -0.71541  -0.70960
 Alpha  occ. eigenvalues --   -0.69737  -0.69167  -0.68406  -0.67764  -0.66335
 Alpha  occ. eigenvalues --   -0.65110  -0.64702  -0.64520  -0.64003  -0.61844
 Alpha  occ. eigenvalues --   -0.60403  -0.60131  -0.59612  -0.58753  -0.57520
 Alpha  occ. eigenvalues --   -0.57298  -0.56560  -0.56175  -0.55418  -0.54697
 Alpha  occ. eigenvalues --   -0.54637  -0.54359  -0.53798  -0.53255  -0.52596
 Alpha  occ. eigenvalues --   -0.52367  -0.51932  -0.51374  -0.50878  -0.49609
 Alpha  occ. eigenvalues --   -0.49481  -0.49195  -0.48680  -0.48503  -0.47736
 Alpha  occ. eigenvalues --   -0.46981  -0.45971  -0.45784  -0.45204  -0.44668
 Alpha  occ. eigenvalues --   -0.44581  -0.44126  -0.43825  -0.42421  -0.42266
 Alpha  occ. eigenvalues --   -0.41873  -0.41661  -0.41077  -0.40366  -0.39583
 Alpha  occ. eigenvalues --   -0.39446  -0.37808  -0.37304  -0.36096  -0.33328
 Alpha  occ. eigenvalues --   -0.27325  -0.25295
 Alpha virt. eigenvalues --   -0.12868  -0.12234  -0.11508  -0.09123  -0.08659
 Alpha virt. eigenvalues --   -0.07702  -0.06978  -0.05880  -0.03513  -0.03293
 Alpha virt. eigenvalues --   -0.02614  -0.02129  -0.01539  -0.01156  -0.00094
 Alpha virt. eigenvalues --    0.00050   0.00817   0.01728   0.02182   0.02376
 Alpha virt. eigenvalues --    0.02881   0.03437   0.03812   0.04225   0.04820
 Alpha virt. eigenvalues --    0.04916   0.05380   0.05853   0.06269   0.06593
 Alpha virt. eigenvalues --    0.07027   0.07225   0.07468   0.07764   0.08209
 Alpha virt. eigenvalues --    0.08536   0.09090   0.09684   0.09893   0.10513
 Alpha virt. eigenvalues --    0.11138   0.11406   0.11796   0.12270   0.12398
 Alpha virt. eigenvalues --    0.12815   0.13053   0.13407   0.13907   0.14500
 Alpha virt. eigenvalues --    0.15231   0.16259   0.17154   0.18079   0.18979
 Alpha virt. eigenvalues --    0.19073   0.21502   0.22573   0.23296   0.24029
 Alpha virt. eigenvalues --    0.24593   0.25095   0.26036   0.26369   0.27289
 Alpha virt. eigenvalues --    0.28216   0.29790   0.31011   0.31637   0.36368
 Alpha virt. eigenvalues --    0.37142   0.37642   0.38826   0.38936   0.39633
 Alpha virt. eigenvalues --    0.39952   0.40143   0.40923   0.41042   0.41790
 Alpha virt. eigenvalues --    0.42400   0.43053   0.44115   0.44230   0.45142
 Alpha virt. eigenvalues --    0.45693   0.45912   0.46865   0.47107   0.47523
 Alpha virt. eigenvalues --    0.48408   0.48799   0.48956   0.50333   0.50909
 Alpha virt. eigenvalues --    0.51245   0.51715   0.51876   0.53018   0.53088
 Alpha virt. eigenvalues --    0.53569   0.54016   0.54646   0.54971   0.55380
 Alpha virt. eigenvalues --    0.56171   0.56723   0.57091   0.57874   0.58507
 Alpha virt. eigenvalues --    0.59001   0.60100   0.60382   0.60689   0.61031
 Alpha virt. eigenvalues --    0.61727   0.63119   0.63380   0.64168   0.64865
 Alpha virt. eigenvalues --    0.65856   0.66867   0.67456   0.67738   0.68032
 Alpha virt. eigenvalues --    0.69006   0.69266   0.69716   0.70047   0.70427
 Alpha virt. eigenvalues --    0.71309   0.71970   0.72291   0.72494   0.72841
 Alpha virt. eigenvalues --    0.72977   0.73698   0.74175   0.75089   0.75115
 Alpha virt. eigenvalues --    0.75585   0.76684   0.76911   0.77415   0.77948
 Alpha virt. eigenvalues --    0.78690   0.78917   0.79099   0.79845   0.80128
 Alpha virt. eigenvalues --    0.80607   0.81038   0.81478   0.81799   0.82123
 Alpha virt. eigenvalues --    0.82818   0.83398   0.84045   0.84524   0.84981
 Alpha virt. eigenvalues --    0.85003   0.85681   0.86671   0.87347   0.88259
 Alpha virt. eigenvalues --    0.88856   0.89271   0.90385   0.90583   0.91949
 Alpha virt. eigenvalues --    0.92608   0.93171   0.93450   0.94926   0.95611
 Alpha virt. eigenvalues --    0.95997   0.96826   0.97520   0.99002   0.99862
 Alpha virt. eigenvalues --    1.00150   1.01170   1.01838   1.02093   1.03127
 Alpha virt. eigenvalues --    1.03977   1.04239   1.05148   1.05655   1.07585
 Alpha virt. eigenvalues --    1.09065   1.09926   1.12025   1.12305   1.12701
 Alpha virt. eigenvalues --    1.13052   1.14220   1.15092   1.16658   1.17209
 Alpha virt. eigenvalues --    1.18380   1.18605   1.19652   1.19940   1.20707
 Alpha virt. eigenvalues --    1.21590   1.22402   1.22963   1.23829   1.24730
 Alpha virt. eigenvalues --    1.25794   1.28232   1.29017   1.29460   1.31457
 Alpha virt. eigenvalues --    1.32750   1.33569   1.34934   1.35923   1.37279
 Alpha virt. eigenvalues --    1.37902   1.38567   1.39038   1.39684   1.40862
 Alpha virt. eigenvalues --    1.41400   1.43302   1.44307   1.45429   1.46262
 Alpha virt. eigenvalues --    1.46970   1.48377   1.49019   1.50347   1.50938
 Alpha virt. eigenvalues --    1.52233   1.52622   1.52919   1.54254   1.55875
 Alpha virt. eigenvalues --    1.56279   1.57191   1.58401   1.59807   1.60785
 Alpha virt. eigenvalues --    1.63635   1.64339   1.65162   1.66164   1.66492
 Alpha virt. eigenvalues --    1.67561   1.68637   1.68807   1.68978   1.69853
 Alpha virt. eigenvalues --    1.70862   1.71037   1.71514   1.71575   1.72814
 Alpha virt. eigenvalues --    1.73514   1.74934   1.75710   1.76203   1.76996
 Alpha virt. eigenvalues --    1.77390   1.78645   1.79241   1.79498   1.80008
 Alpha virt. eigenvalues --    1.80834   1.81247   1.82292   1.83068   1.83630
 Alpha virt. eigenvalues --    1.84450   1.85028   1.86366   1.87091   1.87419
 Alpha virt. eigenvalues --    1.88233   1.88883   1.89992   1.90083   1.90560
 Alpha virt. eigenvalues --    1.91440   1.92065   1.92642   1.93260   1.94297
 Alpha virt. eigenvalues --    1.94843   1.95716   1.96356   1.96952   1.97498
 Alpha virt. eigenvalues --    1.98442   1.98989   1.99958   2.00465   2.01930
 Alpha virt. eigenvalues --    2.02270   2.03972   2.04951   2.05937   2.06790
 Alpha virt. eigenvalues --    2.06920   2.07330   2.08114   2.09426   2.11514
 Alpha virt. eigenvalues --    2.13087   2.13224   2.16196   2.16589   2.17314
 Alpha virt. eigenvalues --    2.17927   2.19558   2.19912   2.20368   2.20829
 Alpha virt. eigenvalues --    2.22981   2.24310   2.25088   2.25703   2.26312
 Alpha virt. eigenvalues --    2.27269   2.28177   2.28688   2.29572   2.30342
 Alpha virt. eigenvalues --    2.30889   2.32537   2.33961   2.34876   2.36401
 Alpha virt. eigenvalues --    2.36812   2.37062   2.39742   2.40132   2.42855
 Alpha virt. eigenvalues --    2.43160   2.43782   2.45534   2.45976   2.46530
 Alpha virt. eigenvalues --    2.48420   2.49650   2.50701   2.52256   2.53568
 Alpha virt. eigenvalues --    2.54346   2.55383   2.56020   2.56627   2.57329
 Alpha virt. eigenvalues --    2.58952   2.59448   2.60280   2.62166   2.63040
 Alpha virt. eigenvalues --    2.64811   2.66761   2.67981   2.68766   2.68847
 Alpha virt. eigenvalues --    2.70900   2.74101   2.78302   2.79931   2.82456
 Alpha virt. eigenvalues --    2.83541   2.85512   2.89494   2.90025   2.90415
 Alpha virt. eigenvalues --    2.94399   2.97495   2.97992   3.02052   3.03723
 Alpha virt. eigenvalues --    3.06048   3.09598   3.28813   3.66552   3.73372
 Alpha virt. eigenvalues --    3.74982   3.87798   3.92197   3.93761   3.97943
 Alpha virt. eigenvalues --    4.00386   4.03305   4.05699   4.06337   4.10193
 Alpha virt. eigenvalues --    4.12293   4.15866   4.17683   4.18788   4.21006
 Alpha virt. eigenvalues --    4.22503   4.25419   4.28642   4.30219   4.34762
 Alpha virt. eigenvalues --    4.38269   4.41526   4.45663   4.46599   4.49249
 Alpha virt. eigenvalues --    4.51141   4.59389   4.65540   4.77589
          Condensed to atoms (all electrons):
 Mulliken charges:
               1
     1  N   -0.763692
     2  C   -0.120550
     3  C    0.644907
     4  O   -0.524584
     5  C   -0.403555
     6  C    0.155152
     7  C   -0.241895
     8  C   -0.200993
     9  C   -0.228262
    10  C   -0.332951
    11  C    0.441454
    12  O   -0.620721
    13  H    0.425860
    14  H    0.218952
    15  H    0.173875
    16  H    0.182268
    17  H    0.126620
    18  H    0.108091
    19  H    0.136571
    20  H    0.151595
    21  H    0.403138
    22  H    0.454887
    23  N   -0.637440
    24  C   -0.025357
    25  C    0.643723
    26  O   -0.576632
    27  C   -0.120249
    28  C   -0.480376
    29  C   -0.449208
    30  H    0.354063
    31  H    0.211859
    32  H    0.158344
    33  H    0.157346
    34  H    0.178119
    35  H    0.148340
    36  H    0.159161
    37  H    0.159232
    38  H    0.166407
    39  N   -0.608047
    40  C   -0.092504
    41  C    0.621774
    42  O   -0.422976
    43  C   -0.312482
    44  C   -0.301734
    45  C   -0.159678
    46  N   -0.608546
    47  C    0.792828
    48  N   -0.759241
    49  N   -0.780229
    50  O   -0.651366
    51  H    0.427635
    52  H    0.380982
    53  H    0.367141
    54  H    0.178766
    55  H    0.217705
    56  H    0.155913
    57  H    0.169948
    58  H    0.217959
    59  H    0.189912
    60  H    0.168418
    61  H    0.390811
    62  H    0.386489
    63  H    0.369453
    64  H    0.427571
 Sum of Mulliken charges =   1.00000
 Mulliken charges with hydrogens summed into heavy atoms:
               1
     1  N    0.520194
     2  C    0.098402
     3  C    0.644907
     4  O   -0.524584
     5  C   -0.047413
     6  C    0.155152
     7  C   -0.115274
     8  C   -0.092903
     9  C   -0.091691
    10  C   -0.181356
    11  C    0.441454
    12  O   -0.620721
    23  N   -0.283377
    24  C    0.186502
    25  C    0.643723
    26  O   -0.576632
    27  C    0.038096
    28  C    0.003429
    29  C    0.035591
    39  N   -0.240906
    40  C    0.086262
    41  C    0.621774
    42  O   -0.422976
    43  C    0.061136
    44  C    0.086173
    45  C    0.198652
    46  N   -0.217735
    47  C    0.792828
    48  N    0.008230
    49  N    0.016796
    50  O   -0.223731
 Electronic spatial extent (au):  <R**2>=        3265353.9880
 Charge=              1.0000 electrons
 Dipole moment (field-independent basis, Debye):
    X=            154.2244    Y=           -142.7934    Z=            206.2859  Tot=            294.4979
 Quadrupole moment (field-independent basis, Debye-Ang):
   XX=           4792.0422   YY=           4096.8952   ZZ=           8740.4666
   XY=          -4597.6804   XZ=           6687.1739   YZ=          -6180.7313
 Traceless Quadrupole moment (field-independent basis, Debye-Ang):
   XX=          -1084.4258   YY=          -1779.5728   ZZ=           2863.9986
   XY=          -4597.6804   XZ=           6687.1739   YZ=          -6180.7313
 Octapole moment (field-independent basis, Debye-Ang**2):
  XXX=         142659.5164  YYY=        -112390.6127  ZZZ=         365388.1580  XYY=         131923.4150
  XXY=        -143013.5278  XXZ=         210204.9874  XZZ=         285831.7364  YZZ=        -263689.8690
  YYZ=         178870.1691  XYZ=        -200953.8343
 Hexadecapole moment (field-independent basis, Debye-Ang**3):
 XXXX=        3986935.6575 YYYY=        2890276.6574 ZZZZ=       15059628.6012 XXXY=       -4252879.6578
 XXXZ=        6354663.1931 YYYX=       -3606963.3088 YYYZ=       -4959440.2563 ZZZX=       12049008.9061
 ZZZY=      -11092059.8924 XXYY=        4088263.6915 XXZZ=        9074197.2641 YYZZ=        7683784.6512
 XXYZ=       -6326511.0964 YYXZ=        5819422.0635 ZZXY=       -8649154.0569
 N-N= 3.625819909761D+03 E-N=-1.068739187759D+04  KE= 1.472711911257D+03
 Unable to Open any file for archive entry.
 1\1\GINC-LAC-307\SP\RB3LYP\6-31G(d)\C20H33N6O5(1+)\KENGMITH\31-May-202
 2\0\\# B3LYP/6-31G* empiricaldispersion=gd3 guess=read geom=check nosy
 mm integral(ultrafinegrid)\\Candidate Structure: Conf:472 Charge calc 
 in gas phase\\1,1\N,0,35.83674322,-30.5181741383,45.9936768541\C,0,35.
 1995734458,-31.8958381823,45.9394786909\C,0,33.8317347079,-31.58354859
 19,45.2804842244\O,0,33.3072643996,-30.5029402684,45.5577601717\C,0,36
 .1629174184,-32.9396297797,45.3224149352\C,0,36.473384984,-32.73077803
 81,43.8649512638\C,0,35.7761155671,-33.4437644803,42.8589760873\C,0,37
 .3760490993,-31.7506557966,43.4251235299\C,0,35.8389761147,-33.0992911
 431,41.5237303486\C,0,37.4502974007,-31.3569174653,42.0886752667\C,0,3
 6.6319564034,-31.9734168405,41.0528822298\O,0,36.5865744909,-31.554591
 0177,39.8712979252\H,0,35.1172279542,-29.8655627218,46.3442076754\H,0,
 34.9896909024,-32.1566911728,46.9840426778\H,0,37.0710417855,-32.93533
 86843,45.9439118206\H,0,35.7026365646,-33.921791951,45.4933772239\H,0,
 35.1892901081,-34.3210956488,43.1475231397\H,0,38.0234642183,-31.25304
 3895,44.151049398\H,0,35.3167532406,-33.6802140734,40.7684805038\H,0,3
 8.1950483895,-30.6329990224,41.7655633708\H,0,36.6732245337,-30.494793
 2865,46.5825447258\H,0,36.0690227956,-30.1680450029,45.0371563839\N,0,
 33.2673455843,-32.4787579223,44.4459518524\C,0,32.0375686568,-32.11818
 64838,43.7349905344\C,0,32.2462958461,-30.9152088569,42.7987027892\O,0
 ,31.2555125521,-30.2441788454,42.4648805038\C,0,31.4074394957,-33.3431
 67008,43.0184839756\C,0,32.1362924275,-33.7138038062,41.7189127815\C,0
 ,29.9108180711,-33.1151195294,42.7633916337\H,0,33.8113009695,-33.2626
 786141,44.1115545055\H,0,31.332800473,-31.7428905259,44.482222152\H,0,
 31.5064048775,-34.1765715688,43.7277162821\H,0,33.2129634102,-33.84336
 77024,41.855368278\H,0,31.7346093528,-34.6475584701,41.3140653813\H,0,
 31.9956399452,-32.9371523327,40.9566470423\H,0,29.7526010292,-32.25935
 00176,42.1002913032\H,0,29.3700535035,-32.9226135642,43.6962759639\H,0
 ,29.4724464893,-34.0011783224,42.2933549881\N,0,33.4973280304,-30.6397
 194262,42.3661814391\C,0,33.8950938563,-29.2949667872,41.9240166731\C,
 0,34.6832268565,-28.6634270743,43.0859694835\O,0,34.2752439014,-27.733
 4134188,43.7303885359\C,0,34.6290505142,-29.2743468255,40.5714481155\C
 ,0,33.9174744229,-30.0323210154,39.4395587121\C,0,32.7131218212,-29.31
 9578361,38.8151424213\N,0,31.6056080773,-29.1762542413,39.7787026799\C
 ,0,30.8563535399,-28.0926017422,39.9741102976\N,0,30.7509969849,-27.14
 24888764,39.0269136844\N,0,30.2206167152,-27.9380921291,41.1449041548\
 O,0,35.8516569626,-29.2755618784,43.43076603\H,0,36.2171741731,-29.935
 3197244,42.7732870523\H,0,30.3453139719,-26.2418158279,39.2345191184\H
 ,0,34.2329444929,-31.3256496765,42.5233868193\H,0,32.9822744433,-28.70
 67272025,41.8767203278\H,0,35.6208668234,-29.7250411642,40.6538632848\
 H,0,34.7790329555,-28.2216870789,40.2966135412\H,0,33.6258526547,-31.0
 30628315,39.7878572152\H,0,34.6517093706,-30.2159158633,38.6503002973\
 H,0,32.3589889549,-29.8753774002,37.9392138188\H,0,33.0092013329,-28.3
 174877499,38.4850713013\H,0,31.5254560746,-29.8742602457,40.5181845364
 \H,0,31.0348886101,-27.3203732166,38.0753483667\H,0,29.4295752432,-27.
 3167172815,41.2302656353\H,0,30.4046036382,-28.6098079163,41.889978433
 5\\Version=ES64L-G16RevC.01\HF=-1486.5408597\RMSD=5.066e-09\Dipole=-3.
 1741339,2.0212651,0.9090268\Quadrupole=-806.2439906,-1323.0687804,2129
 .312771,-3418.2626568,4971.7499274,-4595.2222615\PG=C01 [X(C20H33N6O5)
 ]\\@
 The archive entry for this job was punched.


 GARLIC THEN HAVE POWER TO SAVE FROM DEATH
 BEAR WITH IT THOUGH IT MAKETH UNSAVORY BREATH,
 AND SCORN NOT GARLIC LIKE SOME THAT THINK
 IT ONLY MAKETH MEN WINK AND DRINK AND STINK.
   --  SIR JOHN HARRINGTON,
       "THE ENGLISHMAN'S DOCTOR", 1609
 Job cpu time:       0 days  0 hours  1 minutes 48.4 seconds.
 Elapsed time:       0 days  0 hours  0 minutes 27.7 seconds.
 File lengths (MBytes):  RWF=    264 Int=      0 D2E=      0 Chk=     40 Scr=     16
 Normal termination of Gaussian 16 at Tue May 31 11:50:37 2022.
