 Entering Gaussian System, Link 0=/opt/software/Gaussian/g16-AVX2-C.01/g16/g16
 Input=charge-conf-584.com
 Output=charge-conf-584.log
 Initial command:
 /opt/software/Gaussian/g16-AVX2-C.01/g16/l1.exe "/mnt/gs18/scratch/users/kengmith/Gau-31329.inp" -scrdir="/mnt/gs18/scratch/users/kengmith/"
 Entering Link 1 = /opt/software/Gaussian/g16-AVX2-C.01/g16/l1.exe PID=     31339.
  
 Copyright (c) 1988-2019, Gaussian, Inc.  All Rights Reserved.
  
 This is part of the Gaussian(R) 16 program.  It is based on
 the Gaussian(R) 09 system (copyright 2009, Gaussian, Inc.),
 the Gaussian(R) 03 system (copyright 2003, Gaussian, Inc.),
 the Gaussian(R) 98 system (copyright 1998, Gaussian, Inc.),
 the Gaussian(R) 94 system (copyright 1995, Gaussian, Inc.),
 the Gaussian 92(TM) system (copyright 1992, Gaussian, Inc.),
 the Gaussian 90(TM) system (copyright 1990, Gaussian, Inc.),
 the Gaussian 88(TM) system (copyright 1988, Gaussian, Inc.),
 the Gaussian 86(TM) system (copyright 1986, Carnegie Mellon
 University), and the Gaussian 82(TM) system (copyright 1983,
 Carnegie Mellon University). Gaussian is a federally registered
 trademark of Gaussian, Inc.
  
 This software contains proprietary and confidential information,
 including trade secrets, belonging to Gaussian, Inc.
  
 This software is provided under written license and may be
 used, copied, transmitted, or stored only in accord with that
 written license.
  
 The following legend is applicable only to US Government
 contracts under FAR:
  
                    RESTRICTED RIGHTS LEGEND
  
 Use, reproduction and disclosure by the US Government is
 subject to restrictions as set forth in subparagraphs (a)
 and (c) of the Commercial Computer Software - Restricted
 Rights clause in FAR 52.227-19.
  
 Gaussian, Inc.
 340 Quinnipiac St., Bldg. 40, Wallingford CT 06492
  
  
 ---------------------------------------------------------------
 Warning -- This program may not be used in any manner that
 competes with the business of Gaussian, Inc. or will provide
 assistance to any competitor of Gaussian, Inc.  The licensee
 of this program is prohibited from giving any competitor of
 Gaussian, Inc. access to this program.  By using this program,
 the user acknowledges that Gaussian, Inc. is engaged in the
 business of creating and licensing software in the field of
 computational chemistry and represents and warrants to the
 licensee that it is not a competitor of Gaussian, Inc. and that
 it will not use this program in any manner prohibited above.
 ---------------------------------------------------------------
  

 Cite this work as:
 Gaussian 16, Revision C.01,
 M. J. Frisch, G. W. Trucks, H. B. Schlegel, G. E. Scuseria, 
 M. A. Robb, J. R. Cheeseman, G. Scalmani, V. Barone, 
 G. A. Petersson, H. Nakatsuji, X. Li, M. Caricato, A. V. Marenich, 
 J. Bloino, B. G. Janesko, R. Gomperts, B. Mennucci, H. P. Hratchian, 
 J. V. Ortiz, A. F. Izmaylov, J. L. Sonnenberg, D. Williams-Young, 
 F. Ding, F. Lipparini, F. Egidi, J. Goings, B. Peng, A. Petrone, 
 T. Henderson, D. Ranasinghe, V. G. Zakrzewski, J. Gao, N. Rega, 
 G. Zheng, W. Liang, M. Hada, M. Ehara, K. Toyota, R. Fukuda, 
 J. Hasegawa, M. Ishida, T. Nakajima, Y. Honda, O. Kitao, H. Nakai, 
 T. Vreven, K. Throssell, J. A. Montgomery, Jr., J. E. Peralta, 
 F. Ogliaro, M. J. Bearpark, J. J. Heyd, E. N. Brothers, K. N. Kudin, 
 V. N. Staroverov, T. A. Keith, R. Kobayashi, J. Normand, 
 K. Raghavachari, A. P. Rendell, J. C. Burant, S. S. Iyengar, 
 J. Tomasi, M. Cossi, J. M. Millam, M. Klene, C. Adamo, R. Cammi, 
 J. W. Ochterski, R. L. Martin, K. Morokuma, O. Farkas, 
 J. B. Foresman, and D. J. Fox, Gaussian, Inc., Wallingford CT, 2019.
 
 ******************************************
 Gaussian 16:  ES64L-G16RevC.01  3-Jul-2019
                31-May-2022 
 ******************************************
 %mem=8gb
 %nproc=4
 Will use up to    4 processors via shared memory.
 %chk=conf-584.chk
 ----------------------------------------------------------------------
 # B3LYP/6-31G* empiricaldispersion=gd3 guess=read geom=check nosymm in
 tegral(ultrafinegrid)
 ----------------------------------------------------------------------
 1/29=2,38=1,172=1/1;
 2/12=2,15=1,40=1/2;
 3/5=1,6=6,7=1,11=2,14=-4,25=1,30=1,74=-5,75=-5,116=-2,124=31/1,2,3;
 4/5=1/1;
 5/5=2,38=6/2;
 6/7=2,8=2,9=2,10=2,28=1/1;
 99/5=1,9=1/99;
 ------------------------------------------------------
 Candidate Structure: Conf:584 Charge calc in gas phase
 ------------------------------------------------------
 Structure from the checkpoint file:  "conf-584.chk"
 Charge =  1 Multiplicity = 1
 Redundant internal coordinates found in file.  (old form).
 N,0,34.4292312535,-31.0412630588,46.1648088601
 C,0,35.9411240245,-31.0236448684,45.9549786903
 C,0,36.4070466732,-31.792663882,44.6892720379
 O,0,37.5590784221,-32.2046481001,44.6917436189
 C,0,36.4587680271,-29.5633814842,46.0061756904
 C,0,35.7083783307,-28.6731536565,45.048175267
 C,0,36.1021810312,-28.5603467822,43.7099876329
 C,0,34.4995552804,-28.0770897479,45.4361760606
 C,0,35.2625340246,-27.9791095945,42.7594607827
 C,0,33.6522406747,-27.4954793663,44.5031897427
 C,0,34.0040508735,-27.5053120086,43.1477018084
 O,0,33.1332657474,-27.0844632847,42.1858075304
 H,0,34.1848759079,-30.4985432689,46.9985258669
 H,0,36.3663160083,-31.5844136709,46.7909789385
 H,0,36.3635961598,-29.2022553353,47.0387204381
 H,0,37.5291883933,-29.6141288512,45.7827751518
 H,0,37.066738618,-28.9561295869,43.4061133549
 H,0,34.2022809726,-28.0850277514,46.4843570615
 H,0,35.5512040543,-27.9167063456,41.7143601047
 H,0,32.691127772,-27.091178176,44.8009833584
 H,0,33.8274639538,-30.6599426002,45.3472209728
 H,0,34.0985097543,-31.9993478851,46.3121869196
 N,0,35.5107640842,-31.9117463829,43.6857121059
 C,0,35.6527458001,-32.7310296329,42.4705678847
 C,0,34.3827034122,-32.4501340148,41.6559678871
 O,0,33.7360879559,-33.3822971485,41.1456542367
 C,0,36.9662192382,-32.54632612,41.6575269216
 C,0,37.1643241705,-31.1269219606,41.1175061549
 C,0,37.01863526,-33.5824422162,40.5251196498
 H,0,34.5685578834,-31.5141738189,43.8021611306
 H,0,35.589777156,-33.7908482953,42.7437358135
 H,0,37.7697014951,-32.7584241035,42.3682718664
 H,0,37.1022312161,-30.3827901125,41.9148494247
 H,0,38.1532214496,-31.0372926114,40.6572592588
 H,0,36.4198608202,-30.8759705702,40.3518765996
 H,0,36.9221018106,-34.6051940888,40.9062999357
 H,0,37.9738388115,-33.5103108795,39.9957042075
 H,0,36.2174974427,-33.4207752415,39.7936339353
 N,0,33.9894587301,-31.1572930154,41.5612020129
 C,0,32.5722860495,-30.7606209317,41.6532192564
 C,0,32.3280203385,-30.1776160277,43.094410767
 O,0,32.9883538826,-30.7969966593,44.0110790269
 C,0,32.1526843027,-29.804141361,40.5337610356
 C,0,32.3417519641,-30.3209389169,39.0985405707
 C,0,31.4057091556,-31.4526402904,38.6510240327
 N,0,31.7835575917,-32.730488315,39.2689975857
 C,0,31.0219857567,-33.8126504875,39.3589280463
 N,0,29.887706926,-33.9322273092,38.6448485927
 N,0,31.3819623464,-34.8014128849,40.2001401184
 O,0,31.5385274226,-29.2411647706,43.2311717921
 H,0,32.2485979009,-27.3973796099,42.4567712715
 H,0,29.2078215008,-34.6453026888,38.8637394822
 H,0,34.6173764252,-30.4760756434,41.9792917762
 H,0,31.9893678842,-31.6850047707,41.6077775063
 H,0,32.7238501372,-28.8763907314,40.6426329732
 H,0,31.1058942556,-29.5336761437,40.7090060099
 H,0,33.3827809584,-30.6340716057,38.9415719188
 H,0,32.1706402505,-29.4857776971,38.4103062009
 H,0,31.4520499174,-31.5545211825,37.5588533674
 H,0,30.3702304968,-31.2135416794,38.9281511902
 H,0,32.6578536245,-32.7874230866,39.8076716173
 H,0,29.6328847808,-33.2435620115,37.9533911251
 H,0,31.0520523517,-35.7432536584,40.0457338345
 H,0,32.237253916,-34.6795365079,40.7379469369
 Recover connectivity data from disk.
                           ----------------------------
                           !    Current Parameters    !
                           ! (Angstroms and Degrees)  !
 --------------------------                            --------------------------
 ! Name  Definition              Value                                          !
 --------------------------------------------------------------------------------
 ! R1    R(1,2)                  1.5265                                         !
 ! R2    R(1,13)                 1.0244                                         !
 ! R3    R(1,21)                 1.0844                                         !
 ! R4    R(1,22)                 1.0242                                         !
 ! R5    R(2,3)                  1.5526                                         !
 ! R6    R(2,5)                  1.5501                                         !
 ! R7    R(2,14)                 1.0928                                         !
 ! R8    R(3,4)                  1.2235                                         !
 ! R9    R(3,23)                 1.3508                                         !
 ! R10   R(5,6)                  1.5078                                         !
 ! R11   R(5,15)                 1.098                                          !
 ! R12   R(5,16)                 1.0947                                         !
 ! R13   R(6,7)                  1.3995                                         !
 ! R14   R(6,8)                  1.4025                                         !
 ! R15   R(7,9)                  1.3951                                         !
 ! R16   R(7,17)                 1.086                                          !
 ! R17   R(8,10)                 1.388                                          !
 ! R18   R(8,18)                 1.0895                                         !
 ! R19   R(9,11)                 1.3996                                         !
 ! R20   R(9,19)                 1.086                                          !
 ! R21   R(10,11)                1.4004                                         !
 ! R22   R(10,20)                1.0844                                         !
 ! R23   R(11,12)                1.364                                          !
 ! R24   R(23,24)                1.4724                                         !
 ! R25   R(23,30)                1.0293                                         !
 ! R26   R(24,25)                1.5348                                         !
 ! R27   R(24,27)                1.5558                                         !
 ! R28   R(24,31)                1.0963                                         !
 ! R29   R(25,26)                1.244                                          !
 ! R30   R(25,39)                1.3546                                         !
 ! R31   R(27,28)                1.5315                                         !
 ! R32   R(27,29)                1.5358                                         !
 ! R33   R(27,32)                1.0935                                         !
 ! R34   R(28,33)                1.0924                                         !
 ! R35   R(28,34)                1.0944                                         !
 ! R36   R(28,35)                1.097                                          !
 ! R37   R(29,36)                1.0957                                         !
 ! R38   R(29,37)                1.0945                                         !
 ! R39   R(29,38)                1.0968                                         !
 ! R40   R(39,40)                1.4745                                         !
 ! R41   R(39,53)                1.0164                                         !
 ! R42   R(40,41)                1.5737                                         !
 ! R43   R(40,43)                1.531                                          !
 ! R44   R(40,54)                1.0938                                         !
 ! R45   R(41,42)                1.2884                                         !
 ! R46   R(41,50)                1.2325                                         !
 ! R47   R(43,44)                1.5371                                         !
 ! R48   R(43,55)                1.0949                                         !
 ! R49   R(43,56)                1.0953                                         !
 ! R50   R(44,45)                1.5353                                         !
 ! R51   R(44,57)                1.0984                                         !
 ! R52   R(44,58)                1.0956                                         !
 ! R53   R(45,46)                1.4689                                         !
 ! R54   R(45,59)                1.0979                                         !
 ! R55   R(45,60)                1.0983                                         !
 ! R56   R(46,47)                1.3263                                         !
 ! R57   R(46,61)                1.0285                                         !
 ! R58   R(47,48)                1.3457                                         !
 ! R59   R(47,49)                1.3472                                         !
 ! R60   R(48,52)                1.0093                                         !
 ! R61   R(48,62)                1.0086                                         !
 ! R62   R(49,63)                1.0098                                         !
 ! R63   R(49,64)                1.0177                                         !
 ! R64   R(50,51)                2.1221                                         !
 ! A1    A(2,1,13)             110.0001                                         !
 ! A2    A(2,1,21)             116.2264                                         !
 ! A3    A(2,1,22)             110.5112                                         !
 ! A4    A(13,1,21)            107.1543                                         !
 ! A5    A(13,1,22)            107.5453                                         !
 ! A6    A(21,1,22)            104.9651                                         !
 ! A7    A(1,2,3)              113.8017                                         !
 ! A8    A(1,2,5)              109.6987                                         !
 ! A9    A(1,2,14)             105.9199                                         !
 ! A10   A(3,2,5)              113.1607                                         !
 ! A11   A(3,2,14)             104.6391                                         !
 ! A12   A(5,2,14)             109.1602                                         !
 ! A13   A(2,3,4)              116.597                                          !
 ! A14   A(2,3,23)             116.7574                                         !
 ! A15   A(4,3,23)             126.626                                          !
 ! A16   A(2,5,6)              111.655                                          !
 ! A17   A(2,5,15)             108.176                                          !
 ! A18   A(2,5,16)             106.0292                                         !
 ! A19   A(6,5,15)             111.1108                                         !
 ! A20   A(6,5,16)             112.6043                                         !
 ! A21   A(15,5,16)            106.9729                                         !
 ! A22   A(5,6,7)              121.004                                          !
 ! A23   A(5,6,8)              120.2717                                         !
 ! A24   A(7,6,8)              118.2161                                         !
 ! A25   A(6,7,9)              121.045                                          !
 ! A26   A(6,7,17)             119.2166                                         !
 ! A27   A(9,7,17)             119.719                                          !
 ! A28   A(6,8,10)             121.2154                                         !
 ! A29   A(6,8,18)             119.8811                                         !
 ! A30   A(10,8,18)            118.8905                                         !
 ! A31   A(7,9,11)             119.5506                                         !
 ! A32   A(7,9,19)             121.3064                                         !
 ! A33   A(11,9,19)            119.1093                                         !
 ! A34   A(8,10,11)            119.6231                                         !
 ! A35   A(8,10,20)            120.8426                                         !
 ! A36   A(11,10,20)           119.4118                                         !
 ! A37   A(9,11,10)            119.7845                                         !
 ! A38   A(9,11,12)            118.8708                                         !
 ! A39   A(10,11,12)           121.3327                                         !
 ! A40   A(3,23,24)            126.7416                                         !
 ! A41   A(3,23,30)            119.2943                                         !
 ! A42   A(24,23,30)           113.3643                                         !
 ! A43   A(23,24,25)           104.8564                                         !
 ! A44   A(23,24,27)           116.5287                                         !
 ! A45   A(23,24,31)           109.0713                                         !
 ! A46   A(25,24,27)           113.5494                                         !
 ! A47   A(25,24,31)           105.1687                                         !
 ! A48   A(27,24,31)           107.0671                                         !
 ! A49   A(24,25,26)           120.7128                                         !
 ! A50   A(24,25,39)           116.8738                                         !
 ! A51   A(26,25,39)           122.3823                                         !
 ! A52   A(24,27,28)           113.7978                                         !
 ! A53   A(24,27,29)           109.5153                                         !
 ! A54   A(24,27,32)           104.9306                                         !
 ! A55   A(28,27,29)           111.1526                                         !
 ! A56   A(28,27,32)           108.2945                                         !
 ! A57   A(29,27,32)           108.864                                          !
 ! A58   A(27,28,33)           111.5062                                         !
 ! A59   A(27,28,34)           109.9415                                         !
 ! A60   A(27,28,35)           111.7358                                         !
 ! A61   A(33,28,34)           107.6091                                         !
 ! A62   A(33,28,35)           108.3618                                         !
 ! A63   A(34,28,35)           107.5153                                         !
 ! A64   A(27,29,36)           111.728                                          !
 ! A65   A(27,29,37)           109.9981                                         !
 ! A66   A(27,29,38)           111.5539                                         !
 ! A67   A(36,29,37)           107.8589                                         !
 ! A68   A(36,29,38)           107.772                                          !
 ! A69   A(37,29,38)           107.7676                                         !
 ! A70   A(25,39,40)           122.099                                          !
 ! A71   A(25,39,53)           115.564                                          !
 ! A72   A(40,39,53)           112.8161                                         !
 ! A73   A(39,40,41)           107.8178                                         !
 ! A74   A(39,40,43)           112.6957                                         !
 ! A75   A(39,40,54)           106.3956                                         !
 ! A76   A(41,40,43)           113.3048                                         !
 ! A77   A(41,40,54)           105.57                                           !
 ! A78   A(43,40,54)           110.5813                                         !
 ! A79   A(40,41,42)           113.1985                                         !
 ! A80   A(40,41,50)           118.8513                                         !
 ! A81   A(42,41,50)           127.9261                                         !
 ! A82   A(40,43,44)           116.0373                                         !
 ! A83   A(40,43,55)           108.2811                                         !
 ! A84   A(40,43,56)           107.4101                                         !
 ! A85   A(44,43,55)           108.2744                                         !
 ! A86   A(44,43,56)           110.4859                                         !
 ! A87   A(55,43,56)           105.8677                                         !
 ! A88   A(43,44,45)           116.4233                                         !
 ! A89   A(43,44,57)           110.2348                                         !
 ! A90   A(43,44,58)           108.1211                                         !
 ! A91   A(45,44,57)           109.0289                                         !
 ! A92   A(45,44,58)           106.4726                                         !
 ! A93   A(57,44,58)           105.9954                                         !
 ! A94   A(44,45,46)           111.2104                                         !
 ! A95   A(44,45,59)           109.4286                                         !
 ! A96   A(44,45,60)           109.9254                                         !
 ! A97   A(46,45,59)           109.0829                                         !
 ! A98   A(46,45,60)           109.0121                                         !
 ! A99   A(59,45,60)           108.1205                                         !
 ! A100  A(45,46,47)           126.2014                                         !
 ! A101  A(45,46,61)           119.1554                                         !
 ! A102  A(47,46,61)           114.0434                                         !
 ! A103  A(46,47,48)           121.3672                                         !
 ! A104  A(46,47,49)           119.1926                                         !
 ! A105  A(48,47,49)           119.4307                                         !
 ! A106  A(47,48,52)           121.0319                                         !
 ! A107  A(47,48,62)           121.0694                                         !
 ! A108  A(52,48,62)           117.4447                                         !
 ! A109  A(47,49,63)           120.117                                          !
 ! A110  A(47,49,64)           117.8186                                         !
 ! A111  A(63,49,64)           117.8452                                         !
 ! A112  A(41,50,51)           113.9118                                         !
 ! D1    D(13,1,2,3)          -178.5123                                         !
 ! D2    D(13,1,2,5)           -50.5957                                         !
 ! D3    D(13,1,2,14)           67.091                                          !
 ! D4    D(21,1,2,3)           -56.5609                                         !
 ! D5    D(21,1,2,5)            71.3557                                         !
 ! D6    D(21,1,2,14)         -170.9577                                         !
 ! D7    D(22,1,2,3)            62.888                                          !
 ! D8    D(22,1,2,5)          -169.1953                                         !
 ! D9    D(22,1,2,14)          -51.5087                                         !
 ! D10   D(1,2,3,4)           -156.061                                          !
 ! D11   D(1,2,3,23)            25.4384                                         !
 ! D12   D(5,2,3,4)             77.825                                          !
 ! D13   D(5,2,3,23)          -100.6757                                         !
 ! D14   D(14,2,3,4)           -40.9062                                         !
 ! D15   D(14,2,3,23)          140.5932                                         !
 ! D16   D(1,2,5,6)            -53.2823                                         !
 ! D17   D(1,2,5,15)            69.2809                                         !
 ! D18   D(1,2,5,16)          -176.2625                                         !
 ! D19   D(3,2,5,6)             74.9896                                         !
 ! D20   D(3,2,5,15)          -162.4472                                         !
 ! D21   D(3,2,5,16)           -47.9906                                         !
 ! D22   D(14,2,5,6)          -168.9293                                         !
 ! D23   D(14,2,5,15)          -46.3661                                         !
 ! D24   D(14,2,5,16)           68.0905                                         !
 ! D25   D(2,3,23,24)         -171.6895                                         !
 ! D26   D(2,3,23,30)           -1.1914                                         !
 ! D27   D(4,3,23,24)            9.9811                                         !
 ! D28   D(4,3,23,30)         -179.5208                                         !
 ! D29   D(2,5,6,7)            -86.2745                                         !
 ! D30   D(2,5,6,8)             85.4019                                         !
 ! D31   D(15,5,6,7)           152.8576                                         !
 ! D32   D(15,5,6,8)           -35.4659                                         !
 ! D33   D(16,5,6,7)            32.8771                                         !
 ! D34   D(16,5,6,8)          -155.4464                                         !
 ! D35   D(5,6,7,9)            166.074                                          !
 ! D36   D(5,6,7,17)           -12.322                                          !
 ! D37   D(8,6,7,9)             -5.7692                                         !
 ! D38   D(8,6,7,17)           175.8348                                         !
 ! D39   D(5,6,8,10)          -166.113                                          !
 ! D40   D(5,6,8,18)            12.5604                                         !
 ! D41   D(7,6,8,10)             5.7921                                         !
 ! D42   D(7,6,8,18)          -175.5345                                         !
 ! D43   D(6,7,9,11)            -0.2408                                         !
 ! D44   D(6,7,9,19)          -178.1114                                         !
 ! D45   D(17,7,9,11)          178.1473                                         !
 ! D46   D(17,7,9,19)            0.2767                                         !
 ! D47   D(6,8,10,11)            0.2172                                         !
 ! D48   D(6,8,10,20)          176.1707                                         !
 ! D49   D(18,8,10,11)        -178.469                                          !
 ! D50   D(18,8,10,20)          -2.5155                                         !
 ! D51   D(7,9,11,10)            6.3794                                         !
 ! D52   D(7,9,11,12)         -172.382                                          !
 ! D53   D(19,9,11,10)        -175.703                                          !
 ! D54   D(19,9,11,12)           5.5356                                         !
 ! D55   D(8,10,11,9)           -6.3716                                         !
 ! D56   D(8,10,11,12)         172.3586                                         !
 ! D57   D(20,10,11,9)         177.6166                                         !
 ! D58   D(20,10,11,12)         -3.6533                                         !
 ! D59   D(3,23,24,25)        -177.638                                          !
 ! D60   D(3,23,24,27)         -51.1664                                         !
 ! D61   D(3,23,24,31)          70.1435                                         !
 ! D62   D(30,23,24,25)         11.3849                                         !
 ! D63   D(30,23,24,27)        137.8564                                         !
 ! D64   D(30,23,24,31)       -100.8337                                         !
 ! D65   D(23,24,25,26)       -133.73                                           !
 ! D66   D(23,24,25,39)         44.2868                                         !
 ! D67   D(27,24,25,26)         97.9767                                         !
 ! D68   D(27,24,25,39)        -84.0065                                         !
 ! D69   D(31,24,25,26)        -18.7588                                         !
 ! D70   D(31,24,25,39)        159.258                                          !
 ! D71   D(23,24,27,28)        -61.3544                                         !
 ! D72   D(23,24,27,29)        173.5653                                         !
 ! D73   D(23,24,27,32)         56.8523                                         !
 ! D74   D(25,24,27,28)         60.6631                                         !
 ! D75   D(25,24,27,29)        -64.4172                                         !
 ! D76   D(25,24,27,32)        178.8698                                         !
 ! D77   D(31,24,27,28)        176.2825                                         !
 ! D78   D(31,24,27,29)         51.2022                                         !
 ! D79   D(31,24,27,32)        -65.5108                                         !
 ! D80   D(24,25,39,40)       -139.1111                                         !
 ! D81   D(24,25,39,53)          4.7395                                         !
 ! D82   D(26,25,39,40)         38.8699                                         !
 ! D83   D(26,25,39,53)       -177.2795                                         !
 ! D84   D(24,27,28,33)         54.3217                                         !
 ! D85   D(24,27,28,34)        173.5874                                         !
 ! D86   D(24,27,28,35)        -67.1177                                         !
 ! D87   D(29,27,28,33)        178.5238                                         !
 ! D88   D(29,27,28,34)        -62.2105                                         !
 ! D89   D(29,27,28,35)         57.0844                                         !
 ! D90   D(32,27,28,33)        -61.9343                                         !
 ! D91   D(32,27,28,34)         57.3314                                         !
 ! D92   D(32,27,28,35)        176.6263                                         !
 ! D93   D(24,27,29,36)        -55.9176                                         !
 ! D94   D(24,27,29,37)       -175.676                                          !
 ! D95   D(24,27,29,38)         64.7923                                         !
 ! D96   D(28,27,29,36)        177.4867                                         !
 ! D97   D(28,27,29,37)         57.7283                                         !
 ! D98   D(28,27,29,38)        -61.8034                                         !
 ! D99   D(32,27,29,36)         58.2849                                         !
 ! D100  D(32,27,29,37)        -61.4735                                         !
 ! D101  D(32,27,29,38)        178.9949                                         !
 ! D102  D(25,39,40,41)        102.3107                                         !
 ! D103  D(25,39,40,43)       -131.8968                                         !
 ! D104  D(25,39,40,54)        -10.5479                                         !
 ! D105  D(53,39,40,41)        -42.4271                                         !
 ! D106  D(53,39,40,43)         83.3654                                         !
 ! D107  D(53,39,40,54)       -155.2857                                         !
 ! D108  D(39,40,41,42)        -37.0865                                         !
 ! D109  D(39,40,41,50)        144.5584                                         !
 ! D110  D(43,40,41,42)       -162.5181                                         !
 ! D111  D(43,40,41,50)         19.1269                                         !
 ! D112  D(54,40,41,42)         76.3255                                         !
 ! D113  D(54,40,41,50)       -102.0295                                         !
 ! D114  D(39,40,43,44)         58.2414                                         !
 ! D115  D(39,40,43,55)        -63.6916                                         !
 ! D116  D(39,40,43,56)       -177.6056                                         !
 ! D117  D(41,40,43,44)       -178.9869                                         !
 ! D118  D(41,40,43,55)         59.0801                                         !
 ! D119  D(41,40,43,56)        -54.8339                                         !
 ! D120  D(54,40,43,44)        -60.6965                                         !
 ! D121  D(54,40,43,55)        177.3705                                         !
 ! D122  D(54,40,43,56)         63.4565                                         !
 ! D123  D(40,41,50,51)        -71.064                                          !
 ! D124  D(42,41,50,51)        110.8528                                         !
 ! D125  D(40,43,44,45)         69.9689                                         !
 ! D126  D(40,43,44,57)        -54.865                                          !
 ! D127  D(40,43,44,58)       -170.31                                           !
 ! D128  D(55,43,44,45)       -168.0945                                         !
 ! D129  D(55,43,44,57)         67.0716                                         !
 ! D130  D(55,43,44,58)        -48.3735                                         !
 ! D131  D(56,43,44,45)        -52.5793                                         !
 ! D132  D(56,43,44,57)       -177.4132                                         !
 ! D133  D(56,43,44,58)         67.1418                                         !
 ! D134  D(43,44,45,46)        -74.0304                                         !
 ! D135  D(43,44,45,59)        165.3888                                         !
 ! D136  D(43,44,45,60)         46.7913                                         !
 ! D137  D(57,44,45,46)         51.4146                                         !
 ! D138  D(57,44,45,59)        -69.1662                                         !
 ! D139  D(57,44,45,60)        172.2364                                         !
 ! D140  D(58,44,45,46)        165.3651                                         !
 ! D141  D(58,44,45,59)         44.7843                                         !
 ! D142  D(58,44,45,60)        -73.8132                                         !
 ! D143  D(44,45,46,47)        162.6461                                         !
 ! D144  D(44,45,46,61)         -7.916                                          !
 ! D145  D(59,45,46,47)        -76.5697                                         !
 ! D146  D(59,45,46,61)        112.8682                                         !
 ! D147  D(60,45,46,47)         41.2889                                         !
 ! D148  D(60,45,46,61)       -129.2733                                         !
 ! D149  D(45,46,47,48)         13.4143                                         !
 ! D150  D(45,46,47,49)       -165.4557                                         !
 ! D151  D(61,46,47,48)       -175.6073                                         !
 ! D152  D(61,46,47,49)          5.5227                                         !
 ! D153  D(46,47,48,52)       -165.9069                                         !
 ! D154  D(46,47,48,62)          6.1639                                         !
 ! D155  D(49,47,48,52)         12.9604                                         !
 ! D156  D(49,47,48,62)       -174.9688                                         !
 ! D157  D(46,47,49,63)       -156.6834                                         !
 ! D158  D(46,47,49,64)         -0.2464                                         !
 ! D159  D(48,47,49,63)         24.4244                                         !
 ! D160  D(48,47,49,64)       -179.1386                                         !
 --------------------------------------------------------------------------------
 Symmetry turned off by external request.
 Stoichiometry    C20H33N6O5(1+)
 Framework group  C1[X(C20H33N6O5)]
 Deg. of freedom   186
 Full point group                 C1      NOp   1
                          Input orientation:                          
 ---------------------------------------------------------------------
 Center     Atomic      Atomic             Coordinates (Angstroms)
 Number     Number       Type             X           Y           Z
 ---------------------------------------------------------------------
      1          7           0       34.429231  -31.041263   46.164809
      2          6           0       35.941124  -31.023645   45.954979
      3          6           0       36.407047  -31.792664   44.689272
      4          8           0       37.559078  -32.204648   44.691744
      5          6           0       36.458768  -29.563381   46.006176
      6          6           0       35.708378  -28.673154   45.048175
      7          6           0       36.102181  -28.560347   43.709988
      8          6           0       34.499555  -28.077090   45.436176
      9          6           0       35.262534  -27.979110   42.759461
     10          6           0       33.652241  -27.495479   44.503190
     11          6           0       34.004051  -27.505312   43.147702
     12          8           0       33.133266  -27.084463   42.185808
     13          1           0       34.184876  -30.498543   46.998526
     14          1           0       36.366316  -31.584414   46.790979
     15          1           0       36.363596  -29.202255   47.038720
     16          1           0       37.529188  -29.614129   45.782775
     17          1           0       37.066739  -28.956130   43.406113
     18          1           0       34.202281  -28.085028   46.484357
     19          1           0       35.551204  -27.916706   41.714360
     20          1           0       32.691128  -27.091178   44.800983
     21          1           0       33.827464  -30.659943   45.347221
     22          1           0       34.098510  -31.999348   46.312187
     23          7           0       35.510764  -31.911746   43.685712
     24          6           0       35.652746  -32.731030   42.470568
     25          6           0       34.382703  -32.450134   41.655968
     26          8           0       33.736088  -33.382297   41.145654
     27          6           0       36.966219  -32.546326   41.657527
     28          6           0       37.164324  -31.126922   41.117506
     29          6           0       37.018635  -33.582442   40.525120
     30          1           0       34.568558  -31.514174   43.802161
     31          1           0       35.589777  -33.790848   42.743736
     32          1           0       37.769701  -32.758424   42.368272
     33          1           0       37.102231  -30.382790   41.914849
     34          1           0       38.153221  -31.037293   40.657259
     35          1           0       36.419861  -30.875971   40.351877
     36          1           0       36.922102  -34.605194   40.906300
     37          1           0       37.973839  -33.510311   39.995704
     38          1           0       36.217497  -33.420775   39.793634
     39          7           0       33.989459  -31.157293   41.561202
     40          6           0       32.572286  -30.760621   41.653219
     41          6           0       32.328020  -30.177616   43.094411
     42          8           0       32.988354  -30.796997   44.011079
     43          6           0       32.152684  -29.804141   40.533761
     44          6           0       32.341752  -30.320939   39.098541
     45          6           0       31.405709  -31.452640   38.651024
     46          7           0       31.783558  -32.730488   39.268998
     47          6           0       31.021986  -33.812650   39.358928
     48          7           0       29.887707  -33.932227   38.644849
     49          7           0       31.381962  -34.801413   40.200140
     50          8           0       31.538527  -29.241165   43.231172
     51          1           0       32.248598  -27.397380   42.456771
     52          1           0       29.207822  -34.645303   38.863739
     53          1           0       34.617376  -30.476076   41.979292
     54          1           0       31.989368  -31.685005   41.607778
     55          1           0       32.723850  -28.876391   40.642633
     56          1           0       31.105894  -29.533676   40.709006
     57          1           0       33.382781  -30.634072   38.941572
     58          1           0       32.170640  -29.485778   38.410306
     59          1           0       31.452050  -31.554521   37.558853
     60          1           0       30.370230  -31.213542   38.928151
     61          1           0       32.657854  -32.787423   39.807672
     62          1           0       29.632885  -33.243562   37.953391
     63          1           0       31.052052  -35.743254   40.045734
     64          1           0       32.237254  -34.679537   40.737947
 ---------------------------------------------------------------------
 Rotational constants (GHZ):           0.2094507           0.1147886           0.0926087
 Standard basis: 6-31G(d) (6D, 7F)
   531 basis functions,  1000 primitive gaussians,   531 cartesian basis functions
   117 alpha electrons      117 beta electrons
       nuclear repulsion energy      3561.2145787595 Hartrees.
 NAtoms=   64 NActive=   64 NUniq=   64 SFac= 1.00D+00 NAtFMM=   60 NAOKFM=T Big=T
 Integral buffers will be    131072 words long.
 Raffenetti 2 integral format.
 Two-electron integral symmetry is turned off.
 Nuclear repulsion after empirical dispersion term =     3561.1163898621 Hartrees.
 One-electron integrals computed using PRISM.
 NBasis=   531 RedAO= T EigKep=  4.27D-04  NBF=   531
 NBsUse=   531 1.00D-06 EigRej= -1.00D+00 NBFU=   531
 Initial guess from the checkpoint file:  "conf-584.chk"
 B after Tr=     0.000000    0.000000    0.000000
         Rot=    1.000000    0.000000    0.000000    0.000000 Ang=   0.00 deg.
 Requested convergence on RMS density matrix=1.00D-08 within 128 cycles.
 Requested convergence on MAX density matrix=1.00D-06.
 Requested convergence on             energy=1.00D-06.
 No special actions if energy rises.
 SCF Done:  E(RB3LYP) =  -1486.58396714     A.U. after    1 cycles
            NFock=  1  Conv=0.77D-08     -V/T= 2.0094

 **********************************************************************

            Population analysis using the SCF Density.

 **********************************************************************

 Alpha  occ. eigenvalues --  -19.24893 -19.24532 -19.21689 -19.20401 -19.18866
 Alpha  occ. eigenvalues --  -14.55782 -14.51601 -14.50071 -14.49852 -14.46868
 Alpha  occ. eigenvalues --  -14.45851 -10.47030 -10.40990 -10.39757 -10.37597
 Alpha  occ. eigenvalues --  -10.37085 -10.35223 -10.33731 -10.33091 -10.32553
 Alpha  occ. eigenvalues --  -10.30854 -10.29821 -10.28666 -10.28433 -10.28360
 Alpha  occ. eigenvalues --  -10.28235 -10.27865 -10.27475 -10.27217 -10.26122
 Alpha  occ. eigenvalues --  -10.25918  -1.16197  -1.15442  -1.13969  -1.13143
 Alpha  occ. eigenvalues --   -1.12483  -1.10390  -1.05025  -1.04835  -1.03835
 Alpha  occ. eigenvalues --   -1.03493  -1.01888  -0.94821  -0.90934  -0.90182
 Alpha  occ. eigenvalues --   -0.89098  -0.85428  -0.83890  -0.83188  -0.81222
 Alpha  occ. eigenvalues --   -0.79013  -0.77191  -0.76795  -0.75741  -0.73007
 Alpha  occ. eigenvalues --   -0.71555  -0.70833  -0.70149  -0.69888  -0.69628
 Alpha  occ. eigenvalues --   -0.68774  -0.68285  -0.67482  -0.66111  -0.64133
 Alpha  occ. eigenvalues --   -0.63912  -0.63721  -0.63227  -0.62421  -0.60996
 Alpha  occ. eigenvalues --   -0.60047  -0.59189  -0.58210  -0.57490  -0.57035
 Alpha  occ. eigenvalues --   -0.55875  -0.55402  -0.55228  -0.54512  -0.54278
 Alpha  occ. eigenvalues --   -0.54002  -0.53332  -0.52409  -0.52238  -0.51981
 Alpha  occ. eigenvalues --   -0.51020  -0.50875  -0.50674  -0.50115  -0.49548
 Alpha  occ. eigenvalues --   -0.49280  -0.48947  -0.47844  -0.47452  -0.46926
 Alpha  occ. eigenvalues --   -0.46481  -0.46157  -0.45517  -0.44693  -0.44234
 Alpha  occ. eigenvalues --   -0.44022  -0.43214  -0.42715  -0.42490  -0.42295
 Alpha  occ. eigenvalues --   -0.42182  -0.39813  -0.39402  -0.38882  -0.37829
 Alpha  occ. eigenvalues --   -0.36054  -0.35616  -0.35405  -0.34870  -0.33905
 Alpha  occ. eigenvalues --   -0.32411  -0.30621
 Alpha virt. eigenvalues --   -0.11638  -0.11085  -0.10058  -0.09122  -0.08139
 Alpha virt. eigenvalues --   -0.07247  -0.06927  -0.04942  -0.03399  -0.02889
 Alpha virt. eigenvalues --   -0.01516  -0.01232  -0.00190   0.00976   0.01310
 Alpha virt. eigenvalues --    0.01669   0.02204   0.02427   0.02872   0.03427
 Alpha virt. eigenvalues --    0.04253   0.04343   0.04688   0.04824   0.05149
 Alpha virt. eigenvalues --    0.05743   0.06546   0.06736   0.07070   0.07540
 Alpha virt. eigenvalues --    0.07608   0.07817   0.08347   0.08720   0.08847
 Alpha virt. eigenvalues --    0.09760   0.10060   0.10345   0.10625   0.10955
 Alpha virt. eigenvalues --    0.11422   0.11817   0.12182   0.12647   0.12921
 Alpha virt. eigenvalues --    0.14017   0.14756   0.15117   0.15583   0.16110
 Alpha virt. eigenvalues --    0.17137   0.17610   0.18168   0.18781   0.19282
 Alpha virt. eigenvalues --    0.20095   0.20784   0.22647   0.23454   0.24703
 Alpha virt. eigenvalues --    0.24814   0.25333   0.26692   0.26905   0.27395
 Alpha virt. eigenvalues --    0.28512   0.31910   0.33884   0.35337   0.37015
 Alpha virt. eigenvalues --    0.37143   0.37628   0.38748   0.40127   0.40546
 Alpha virt. eigenvalues --    0.40569   0.41287   0.42155   0.42706   0.43095
 Alpha virt. eigenvalues --    0.43343   0.43529   0.43943   0.44833   0.45173
 Alpha virt. eigenvalues --    0.45482   0.46066   0.46575   0.48034   0.48699
 Alpha virt. eigenvalues --    0.49237   0.50003   0.50429   0.50726   0.51524
 Alpha virt. eigenvalues --    0.51631   0.52289   0.52496   0.52780   0.53039
 Alpha virt. eigenvalues --    0.53429   0.53774   0.54591   0.54916   0.55604
 Alpha virt. eigenvalues --    0.55865   0.56688   0.56963   0.57866   0.58549
 Alpha virt. eigenvalues --    0.58850   0.59692   0.60240   0.61623   0.61844
 Alpha virt. eigenvalues --    0.62034   0.62465   0.63123   0.64165   0.64770
 Alpha virt. eigenvalues --    0.65503   0.66538   0.67325   0.68236   0.68661
 Alpha virt. eigenvalues --    0.69723   0.70146   0.70339   0.71013   0.71587
 Alpha virt. eigenvalues --    0.72205   0.72885   0.72988   0.73516   0.73705
 Alpha virt. eigenvalues --    0.74430   0.74528   0.75082   0.75473   0.75722
 Alpha virt. eigenvalues --    0.76268   0.76470   0.77177   0.77377   0.77804
 Alpha virt. eigenvalues --    0.78501   0.79245   0.79373   0.79574   0.80298
 Alpha virt. eigenvalues --    0.80637   0.81187   0.81875   0.82849   0.82920
 Alpha virt. eigenvalues --    0.83088   0.83594   0.84699   0.85214   0.85435
 Alpha virt. eigenvalues --    0.86211   0.86452   0.86790   0.87613   0.88176
 Alpha virt. eigenvalues --    0.88951   0.89752   0.90038   0.90224   0.92702
 Alpha virt. eigenvalues --    0.92850   0.93989   0.94551   0.95882   0.96256
 Alpha virt. eigenvalues --    0.96925   0.97615   0.98989   0.99182   1.00469
 Alpha virt. eigenvalues --    1.01330   1.01996   1.02748   1.03666   1.04245
 Alpha virt. eigenvalues --    1.05133   1.05655   1.06766   1.08135   1.08681
 Alpha virt. eigenvalues --    1.10710   1.11442   1.12146   1.12727   1.13322
 Alpha virt. eigenvalues --    1.14790   1.15029   1.15556   1.17186   1.17803
 Alpha virt. eigenvalues --    1.18713   1.19229   1.19732   1.20135   1.20640
 Alpha virt. eigenvalues --    1.21925   1.23264   1.24758   1.25147   1.26528
 Alpha virt. eigenvalues --    1.27890   1.30011   1.30120   1.30919   1.32534
 Alpha virt. eigenvalues --    1.33683   1.34274   1.35711   1.36962   1.37388
 Alpha virt. eigenvalues --    1.38439   1.38821   1.39749   1.39998   1.41152
 Alpha virt. eigenvalues --    1.41938   1.42950   1.43715   1.44064   1.44634
 Alpha virt. eigenvalues --    1.47083   1.47612   1.48445   1.50758   1.51964
 Alpha virt. eigenvalues --    1.52552   1.54162   1.55914   1.56343   1.57558
 Alpha virt. eigenvalues --    1.58687   1.59660   1.60546   1.61459   1.62613
 Alpha virt. eigenvalues --    1.63348   1.64824   1.65655   1.67284   1.67792
 Alpha virt. eigenvalues --    1.68725   1.69138   1.69333   1.70612   1.71256
 Alpha virt. eigenvalues --    1.72090   1.72567   1.73017   1.73234   1.73901
 Alpha virt. eigenvalues --    1.75077   1.75287   1.76222   1.76977   1.77098
 Alpha virt. eigenvalues --    1.77981   1.78496   1.79407   1.80306   1.81509
 Alpha virt. eigenvalues --    1.82313   1.82946   1.83619   1.84003   1.84823
 Alpha virt. eigenvalues --    1.86154   1.87185   1.87503   1.88439   1.88726
 Alpha virt. eigenvalues --    1.89716   1.90102   1.90473   1.90604   1.91972
 Alpha virt. eigenvalues --    1.92246   1.93064   1.93769   1.93918   1.95796
 Alpha virt. eigenvalues --    1.95916   1.96294   1.97036   1.97576   1.98508
 Alpha virt. eigenvalues --    1.99207   2.00058   2.00945   2.01810   2.03218
 Alpha virt. eigenvalues --    2.04207   2.05965   2.06492   2.08134   2.08165
 Alpha virt. eigenvalues --    2.09022   2.09471   2.09688   2.11094   2.11406
 Alpha virt. eigenvalues --    2.13915   2.14437   2.16283   2.16499   2.18027
 Alpha virt. eigenvalues --    2.18833   2.20338   2.21007   2.21589   2.22097
 Alpha virt. eigenvalues --    2.22579   2.24185   2.24762   2.26731   2.27325
 Alpha virt. eigenvalues --    2.28173   2.29025   2.29412   2.29982   2.32428
 Alpha virt. eigenvalues --    2.34754   2.34784   2.35281   2.36985   2.37871
 Alpha virt. eigenvalues --    2.38313   2.39696   2.40704   2.41387   2.42154
 Alpha virt. eigenvalues --    2.42992   2.44790   2.46100   2.46469   2.47473
 Alpha virt. eigenvalues --    2.47605   2.49857   2.51626   2.52541   2.53909
 Alpha virt. eigenvalues --    2.54226   2.55593   2.56067   2.58669   2.58880
 Alpha virt. eigenvalues --    2.59367   2.60556   2.62096   2.63084   2.63537
 Alpha virt. eigenvalues --    2.64796   2.65857   2.68306   2.69035   2.69757
 Alpha virt. eigenvalues --    2.72936   2.74942   2.79869   2.81224   2.83659
 Alpha virt. eigenvalues --    2.86240   2.88998   2.89319   2.90793   2.93074
 Alpha virt. eigenvalues --    2.93641   2.95566   2.99089   3.02131   3.03672
 Alpha virt. eigenvalues --    3.07234   3.11123   3.32606   3.66487   3.70834
 Alpha virt. eigenvalues --    3.75406   3.87412   3.93439   3.98462   4.00705
 Alpha virt. eigenvalues --    4.02491   4.03674   4.06282   4.08006   4.11071
 Alpha virt. eigenvalues --    4.13130   4.14838   4.16754   4.17242   4.20690
 Alpha virt. eigenvalues --    4.21496   4.24502   4.29366   4.34081   4.35390
 Alpha virt. eigenvalues --    4.37571   4.43116   4.43748   4.48283   4.53522
 Alpha virt. eigenvalues --    4.55770   4.64001   4.66392   4.73183
          Condensed to atoms (all electrons):
 Mulliken charges:
               1
     1  N   -0.781046
     2  C   -0.094845
     3  C    0.623577
     4  O   -0.501899
     5  C   -0.387389
     6  C    0.160078
     7  C   -0.200093
     8  C   -0.224017
     9  C   -0.198755
    10  C   -0.126030
    11  C    0.354168
    12  O   -0.664652
    13  H    0.395294
    14  H    0.209935
    15  H    0.170614
    16  H    0.211750
    17  H    0.160906
    18  H    0.125017
    19  H    0.154905
    20  H    0.160301
    21  H    0.459192
    22  H    0.398877
    23  N   -0.714180
    24  C    0.008007
    25  C    0.579939
    26  O   -0.582793
    27  C   -0.100032
    28  C   -0.483804
    29  C   -0.454098
    30  H    0.396406
    31  H    0.180596
    32  H    0.195786
    33  H    0.153258
    34  H    0.172999
    35  H    0.142873
    36  H    0.155161
    37  H    0.167689
    38  H    0.142373
    39  N   -0.575792
    40  C   -0.094592
    41  C    0.626211
    42  O   -0.639009
    43  C   -0.280336
    44  C   -0.315381
    45  C   -0.150908
    46  N   -0.623676
    47  C    0.799870
    48  N   -0.762698
    49  N   -0.781667
    50  O   -0.546295
    51  H    0.439750
    52  H    0.379947
    53  H    0.366639
    54  H    0.164157
    55  H    0.183130
    56  H    0.167770
    57  H    0.165081
    58  H    0.178458
    59  H    0.179466
    60  H    0.173904
    61  H    0.410487
    62  H    0.386455
    63  H    0.367514
    64  H    0.415448
 Sum of Mulliken charges =   1.00000
 Mulliken charges with hydrogens summed into heavy atoms:
               1
     1  N    0.472317
     2  C    0.115089
     3  C    0.623577
     4  O   -0.501899
     5  C   -0.005025
     6  C    0.160078
     7  C   -0.039187
     8  C   -0.099000
     9  C   -0.043849
    10  C    0.034270
    11  C    0.354168
    12  O   -0.224902
    23  N   -0.317774
    24  C    0.188603
    25  C    0.579939
    26  O   -0.582793
    27  C    0.095754
    28  C   -0.014674
    29  C    0.011125
    39  N   -0.209153
    40  C    0.069565
    41  C    0.626211
    42  O   -0.639009
    43  C    0.070564
    44  C    0.028157
    45  C    0.202462
    46  N   -0.213189
    47  C    0.799870
    48  N    0.003704
    49  N    0.001295
    50  O   -0.546295
 Electronic spatial extent (au):  <R**2>=        3284570.6610
 Charge=              1.0000 electrons
 Dipole moment (field-independent basis, Debye):
    X=            155.6310    Y=           -157.8033    Z=            200.8954  Tot=            299.1352
 Quadrupole moment (field-independent basis, Debye-Ang):
   XX=           4885.7603   YY=           5016.8124   ZZ=           8306.2099
   XY=          -5090.7182   XZ=           6547.3781   YZ=          -6577.5089
 Traceless Quadrupole moment (field-independent basis, Debye-Ang):
   XX=          -1183.8339   YY=          -1052.7818   ZZ=           2236.6157
   XY=          -5090.7182   XZ=           6547.3781   YZ=          -6577.5089
 Octapole moment (field-independent basis, Debye-Ang**2):
  XXX=         147154.4041  YYY=        -154939.2419  ZZZ=         339264.9271  XYY=         160768.9888
  XXY=        -159397.2358  XXZ=         206649.5025  XZZ=         272056.4106  YZZ=        -271220.5675
  YYZ=         208258.1382  XYZ=        -213397.9927
 Hexadecapole moment (field-independent basis, Debye-Ang**3):
 XXXX=        4169913.1054 YYYY=        4649763.8161 ZZZZ=       13668948.9087 XXXY=       -4798037.7295
 XXXZ=        6256522.2378 YYYX=       -4918995.3217 YYYZ=       -6400515.2822 ZZZX=       11158569.6780
 ZZZY=      -11056747.7689 XXYY=        5000939.0822 XXZZ=        8619302.6624 YYZZ=        8553484.8851
 XXYZ=       -6716528.5202 YYXZ=        6711324.8924 ZZXY=       -8841954.7500
 N-N= 3.561116389862D+03 E-N=-1.056000037521D+04  KE= 1.472708345042D+03
 Unable to Open any file for archive entry.
 1\1\GINC-LAC-310\SP\RB3LYP\6-31G(d)\C20H33N6O5(1+)\KENGMITH\31-May-202
 2\0\\# B3LYP/6-31G* empiricaldispersion=gd3 guess=read geom=check nosy
 mm integral(ultrafinegrid)\\Candidate Structure: Conf:584 Charge calc 
 in gas phase\\1,1\N,0,34.4292312535,-31.0412630588,46.1648088601\C,0,3
 5.9411240245,-31.0236448684,45.9549786903\C,0,36.4070466732,-31.792663
 882,44.6892720379\O,0,37.5590784221,-32.2046481001,44.6917436189\C,0,3
 6.4587680271,-29.5633814842,46.0061756904\C,0,35.7083783307,-28.673153
 6565,45.048175267\C,0,36.1021810312,-28.5603467822,43.7099876329\C,0,3
 4.4995552804,-28.0770897479,45.4361760606\C,0,35.2625340246,-27.979109
 5945,42.7594607827\C,0,33.6522406747,-27.4954793663,44.5031897427\C,0,
 34.0040508735,-27.5053120086,43.1477018084\O,0,33.1332657474,-27.08446
 32847,42.1858075304\H,0,34.1848759079,-30.4985432689,46.9985258669\H,0
 ,36.3663160083,-31.5844136709,46.7909789385\H,0,36.3635961598,-29.2022
 553353,47.0387204381\H,0,37.5291883933,-29.6141288512,45.7827751518\H,
 0,37.066738618,-28.9561295869,43.4061133549\H,0,34.2022809726,-28.0850
 277514,46.4843570615\H,0,35.5512040543,-27.9167063456,41.7143601047\H,
 0,32.691127772,-27.091178176,44.8009833584\H,0,33.8274639538,-30.65994
 26002,45.3472209728\H,0,34.0985097543,-31.9993478851,46.3121869196\N,0
 ,35.5107640842,-31.9117463829,43.6857121059\C,0,35.6527458001,-32.7310
 296329,42.4705678847\C,0,34.3827034122,-32.4501340148,41.6559678871\O,
 0,33.7360879559,-33.3822971485,41.1456542367\C,0,36.9662192382,-32.546
 32612,41.6575269216\C,0,37.1643241705,-31.1269219606,41.1175061549\C,0
 ,37.01863526,-33.5824422162,40.5251196498\H,0,34.5685578834,-31.514173
 8189,43.8021611306\H,0,35.589777156,-33.7908482953,42.7437358135\H,0,3
 7.7697014951,-32.7584241035,42.3682718664\H,0,37.1022312161,-30.382790
 1125,41.9148494247\H,0,38.1532214496,-31.0372926114,40.6572592588\H,0,
 36.4198608202,-30.8759705702,40.3518765996\H,0,36.9221018106,-34.60519
 40888,40.9062999357\H,0,37.9738388115,-33.5103108795,39.9957042075\H,0
 ,36.2174974427,-33.4207752415,39.7936339353\N,0,33.9894587301,-31.1572
 930154,41.5612020129\C,0,32.5722860495,-30.7606209317,41.6532192564\C,
 0,32.3280203385,-30.1776160277,43.094410767\O,0,32.9883538826,-30.7969
 966593,44.0110790269\C,0,32.1526843027,-29.804141361,40.5337610356\C,0
 ,32.3417519641,-30.3209389169,39.0985405707\C,0,31.4057091556,-31.4526
 402904,38.6510240327\N,0,31.7835575917,-32.730488315,39.2689975857\C,0
 ,31.0219857567,-33.8126504875,39.3589280463\N,0,29.887706926,-33.93222
 73092,38.6448485927\N,0,31.3819623464,-34.8014128849,40.2001401184\O,0
 ,31.5385274226,-29.2411647706,43.2311717921\H,0,32.2485979009,-27.3973
 796099,42.4567712715\H,0,29.2078215008,-34.6453026888,38.8637394822\H,
 0,34.6173764252,-30.4760756434,41.9792917762\H,0,31.9893678842,-31.685
 0047707,41.6077775063\H,0,32.7238501372,-28.8763907314,40.6426329732\H
 ,0,31.1058942556,-29.5336761437,40.7090060099\H,0,33.3827809584,-30.63
 40716057,38.9415719188\H,0,32.1706402505,-29.4857776971,38.4103062009\
 H,0,31.4520499174,-31.5545211825,37.5588533674\H,0,30.3702304968,-31.2
 135416794,38.9281511902\H,0,32.6578536245,-32.7874230866,39.8076716173
 \H,0,29.6328847808,-33.2435620115,37.9533911251\H,0,31.0520523517,-35.
 7432536584,40.0457338345\H,0,32.237253916,-34.6795365079,40.7379469369
 \\Version=ES64L-G16RevC.01\HF=-1486.5839671\RMSD=7.736e-09\Dipole=-3.1
 351479,-3.5692731,-1.0626335\Quadrupole=-880.1515036,-782.7174628,1662
 .8689664,-3784.8241961,4867.8151304,-4890.2166421\PG=C01 [X(C20H33N6O5
 )]\\@
 The archive entry for this job was punched.


 MEMORIES ARE LIKE AN ENGLISH GRAMMER LESSON -
 PRESENT TENSE, AND PAST PERFECT.
 Job cpu time:       0 days  0 hours  1 minutes 42.8 seconds.
 Elapsed time:       0 days  0 hours  0 minutes 26.3 seconds.
 File lengths (MBytes):  RWF=    264 Int=      0 D2E=      0 Chk=     40 Scr=     16
 Normal termination of Gaussian 16 at Tue May 31 11:50:36 2022.
