 Entering Gaussian System, Link 0=/opt/software/Gaussian/g16-AVX2-C.01/g16/g16
 Input=charge-conf-749.com
 Output=charge-conf-749.log
 Initial command:
 /opt/software/Gaussian/g16-AVX2-C.01/g16/l1.exe "/mnt/gs18/scratch/users/kengmith/Gau-14786.inp" -scrdir="/mnt/gs18/scratch/users/kengmith/"
 Entering Link 1 = /opt/software/Gaussian/g16-AVX2-C.01/g16/l1.exe PID=     14798.
  
 Copyright (c) 1988-2019, Gaussian, Inc.  All Rights Reserved.
  
 This is part of the Gaussian(R) 16 program.  It is based on
 the Gaussian(R) 09 system (copyright 2009, Gaussian, Inc.),
 the Gaussian(R) 03 system (copyright 2003, Gaussian, Inc.),
 the Gaussian(R) 98 system (copyright 1998, Gaussian, Inc.),
 the Gaussian(R) 94 system (copyright 1995, Gaussian, Inc.),
 the Gaussian 92(TM) system (copyright 1992, Gaussian, Inc.),
 the Gaussian 90(TM) system (copyright 1990, Gaussian, Inc.),
 the Gaussian 88(TM) system (copyright 1988, Gaussian, Inc.),
 the Gaussian 86(TM) system (copyright 1986, Carnegie Mellon
 University), and the Gaussian 82(TM) system (copyright 1983,
 Carnegie Mellon University). Gaussian is a federally registered
 trademark of Gaussian, Inc.
  
 This software contains proprietary and confidential information,
 including trade secrets, belonging to Gaussian, Inc.
  
 This software is provided under written license and may be
 used, copied, transmitted, or stored only in accord with that
 written license.
  
 The following legend is applicable only to US Government
 contracts under FAR:
  
                    RESTRICTED RIGHTS LEGEND
  
 Use, reproduction and disclosure by the US Government is
 subject to restrictions as set forth in subparagraphs (a)
 and (c) of the Commercial Computer Software - Restricted
 Rights clause in FAR 52.227-19.
  
 Gaussian, Inc.
 340 Quinnipiac St., Bldg. 40, Wallingford CT 06492
  
  
 ---------------------------------------------------------------
 Warning -- This program may not be used in any manner that
 competes with the business of Gaussian, Inc. or will provide
 assistance to any competitor of Gaussian, Inc.  The licensee
 of this program is prohibited from giving any competitor of
 Gaussian, Inc. access to this program.  By using this program,
 the user acknowledges that Gaussian, Inc. is engaged in the
 business of creating and licensing software in the field of
 computational chemistry and represents and warrants to the
 licensee that it is not a competitor of Gaussian, Inc. and that
 it will not use this program in any manner prohibited above.
 ---------------------------------------------------------------
  

 Cite this work as:
 Gaussian 16, Revision C.01,
 M. J. Frisch, G. W. Trucks, H. B. Schlegel, G. E. Scuseria, 
 M. A. Robb, J. R. Cheeseman, G. Scalmani, V. Barone, 
 G. A. Petersson, H. Nakatsuji, X. Li, M. Caricato, A. V. Marenich, 
 J. Bloino, B. G. Janesko, R. Gomperts, B. Mennucci, H. P. Hratchian, 
 J. V. Ortiz, A. F. Izmaylov, J. L. Sonnenberg, D. Williams-Young, 
 F. Ding, F. Lipparini, F. Egidi, J. Goings, B. Peng, A. Petrone, 
 T. Henderson, D. Ranasinghe, V. G. Zakrzewski, J. Gao, N. Rega, 
 G. Zheng, W. Liang, M. Hada, M. Ehara, K. Toyota, R. Fukuda, 
 J. Hasegawa, M. Ishida, T. Nakajima, Y. Honda, O. Kitao, H. Nakai, 
 T. Vreven, K. Throssell, J. A. Montgomery, Jr., J. E. Peralta, 
 F. Ogliaro, M. J. Bearpark, J. J. Heyd, E. N. Brothers, K. N. Kudin, 
 V. N. Staroverov, T. A. Keith, R. Kobayashi, J. Normand, 
 K. Raghavachari, A. P. Rendell, J. C. Burant, S. S. Iyengar, 
 J. Tomasi, M. Cossi, J. M. Millam, M. Klene, C. Adamo, R. Cammi, 
 J. W. Ochterski, R. L. Martin, K. Morokuma, O. Farkas, 
 J. B. Foresman, and D. J. Fox, Gaussian, Inc., Wallingford CT, 2019.
 
 ******************************************
 Gaussian 16:  ES64L-G16RevC.01  3-Jul-2019
                31-May-2022 
 ******************************************
 %mem=8gb
 %nproc=4
 Will use up to    4 processors via shared memory.
 %chk=conf-749.chk
 ----------------------------------------------------------------------
 # B3LYP/6-31G* empiricaldispersion=gd3 guess=read geom=check nosymm in
 tegral(ultrafinegrid)
 ----------------------------------------------------------------------
 1/29=2,38=1,172=1/1;
 2/12=2,15=1,40=1/2;
 3/5=1,6=6,7=1,11=2,14=-4,25=1,30=1,74=-5,75=-5,116=-2,124=31/1,2,3;
 4/5=1/1;
 5/5=2,38=6/2;
 6/7=2,8=2,9=2,10=2,28=1/1;
 99/5=1,9=1/99;
 ------------------------------------------------------
 Candidate Structure: Conf:749 Charge calc in gas phase
 ------------------------------------------------------
 Structure from the checkpoint file:  "conf-749.chk"
 Charge =  1 Multiplicity = 1
 Redundant internal coordinates found in file.  (old form).
 N,0,33.4968304084,-28.5978139782,44.2642439841
 C,0,34.2370840359,-27.8561151048,43.1827891059
 C,0,35.5863704293,-28.4961522696,42.834274513
 O,0,36.6586160588,-27.9563842466,43.0412224508
 C,0,33.248610386,-27.7376830541,41.9946999389
 C,0,31.9230282599,-27.2489072439,42.480086183
 C,0,30.8030783731,-28.1144893886,42.5146396352
 C,0,31.7578834173,-25.9377625355,42.9912619719
 C,0,29.589898722,-27.7216426439,43.0217249994
 C,0,30.5588582702,-25.5040536073,43.4980872197
 C,0,29.387025646,-26.3762647248,43.553326442
 O,0,28.2990713614,-26.0050636243,44.0211169641
 H,0,33.2645140847,-29.5661431079,44.0033966159
 H,0,34.4523813187,-26.855100926,43.5589608871
 H,0,33.7069959409,-27.0808918851,41.2480500041
 H,0,33.12740076,-28.7153834063,41.5189884539
 H,0,30.9167348798,-29.131566043,42.1304296464
 H,0,32.6140908604,-25.2629399874,42.9752944602
 H,0,28.7362517479,-28.3911202797,43.0449647744
 H,0,30.4388214665,-24.4978053907,43.8853691683
 H,0,33.9965028487,-28.6035725869,45.1578726433
 H,0,32.586563854,-28.0998263781,44.3469725826
 N,0,35.4486507685,-29.7369678388,42.2617234158
 C,0,36.5854799076,-30.6484067165,42.0750569134
 C,0,36.0812140718,-32.0604401468,42.3468692421
 O,0,36.7484524479,-32.8861358643,42.9555215517
 C,0,37.2789516274,-30.4482739768,40.707944646
 C,0,36.3356718808,-30.6676529887,39.5240919215
 C,0,38.5270106128,-31.3315477133,40.6047704137
 H,0,34.5546093076,-30.155853127,42.4504820404
 H,0,37.3239067409,-30.4495167751,42.8577559094
 H,0,37.590808691,-29.3979391731,40.7202945492
 H,0,35.4379696242,-30.0453829152,39.5988916595
 H,0,36.839867135,-30.4095961103,38.5886331071
 H,0,36.0326151411,-31.7196775685,39.4507994701
 H,0,38.2536054147,-32.3918018888,40.5833181018
 H,0,39.2029571935,-31.1691377499,41.4499920944
 H,0,39.0748246973,-31.1089115344,39.6849462191
 N,0,34.7855118695,-32.361282942,41.919597667
 C,0,33.879830374,-32.8970548204,42.9646200049
 C,0,33.7132243281,-31.7549758835,43.9759650005
 O,0,34.2398543607,-31.7165165638,45.0535318184
 C,0,32.5845048264,-33.4523721986,42.3770565798
 C,0,32.7892664415,-34.5022012574,41.2739463115
 C,0,33.5689253627,-35.7526771831,41.6836015327
 N,0,34.9741601355,-35.414932753,41.9485119566
 C,0,35.8832253921,-36.2248783967,42.5009114647
 N,0,35.5807434997,-37.5027650618,42.796659172
 N,0,37.1167970311,-35.7411330914,42.7079931005
 O,0,33.1132534967,-30.5972242239,43.5167293476
 H,0,32.5397651901,-30.7350208816,42.7436011433
 H,0,36.1306980067,-37.9957893986,43.4868165763
 H,0,34.3634414738,-31.6245332401,41.3691882727
 H,0,34.4261217618,-33.6656282644,43.5041690042
 H,0,31.9751441082,-32.633210189,41.9677745333
 H,0,31.9989939837,-33.881290225,43.199084725
 H,0,33.2932620286,-34.0398045534,40.4173127275
 H,0,31.8056182683,-34.8200050181,40.9144206224
 H,0,33.5011664924,-36.5023625031,40.8852404756
 H,0,33.1310092445,-36.1911984408,42.5887900833
 H,0,35.3493929505,-34.623559838,41.4386939364
 H,0,34.6311468218,-37.8254199788,42.6837792097
 H,0,37.795317183,-36.3141373682,43.1896180885
 H,0,37.1901409267,-34.7294722855,42.8433252466
 Recover connectivity data from disk.
                           ----------------------------
                           !    Current Parameters    !
                           ! (Angstroms and Degrees)  !
 --------------------------                            --------------------------
 ! Name  Definition              Value                                          !
 --------------------------------------------------------------------------------
 ! R1    R(1,2)                  1.5059                                         !
 ! R2    R(1,13)                 1.0294                                         !
 ! R3    R(1,21)                 1.0239                                         !
 ! R4    R(1,22)                 1.0409                                         !
 ! R5    R(2,3)                  1.5335                                         !
 ! R6    R(2,5)                  1.5501                                         !
 ! R7    R(2,14)                 1.0908                                         !
 ! R8    R(3,4)                  1.2181                                         !
 ! R9    R(3,23)                 1.3735                                         !
 ! R10   R(5,6)                  1.4939                                         !
 ! R11   R(5,15)                 1.095                                          !
 ! R12   R(5,16)                 1.094                                          !
 ! R13   R(6,7)                  1.4159                                         !
 ! R14   R(6,8)                  1.4169                                         !
 ! R15   R(7,9)                  1.3723                                         !
 ! R16   R(7,17)                 1.0932                                         !
 ! R17   R(8,10)                 1.3721                                         !
 ! R18   R(8,18)                 1.0903                                         !
 ! R19   R(9,11)                 1.4608                                         !
 ! R20   R(9,19)                 1.0851                                         !
 ! R21   R(10,11)                1.4618                                         !
 ! R22   R(10,20)                1.0849                                         !
 ! R23   R(11,12)                1.2411                                         !
 ! R24   R(23,24)                1.469                                          !
 ! R25   R(23,30)                1.0052                                         !
 ! R26   R(24,25)                1.5238                                         !
 ! R27   R(24,27)                1.5459                                         !
 ! R28   R(24,31)                1.0943                                         !
 ! R29   R(25,26)                1.2237                                         !
 ! R30   R(25,39)                1.3971                                         !
 ! R31   R(27,28)                1.5295                                         !
 ! R32   R(27,29)                1.5325                                         !
 ! R33   R(27,32)                1.0957                                         !
 ! R34   R(28,33)                1.0948                                         !
 ! R35   R(28,34)                1.0936                                         !
 ! R36   R(28,35)                1.0973                                         !
 ! R37   R(29,36)                1.0951                                         !
 ! R38   R(29,37)                1.0944                                         !
 ! R39   R(29,38)                1.0935                                         !
 ! R40   R(39,40)                1.483                                          !
 ! R41   R(39,53)                1.0119                                         !
 ! R42   R(40,41)                1.5346                                         !
 ! R43   R(40,43)                1.5269                                         !
 ! R44   R(40,54)                1.0864                                         !
 ! R45   R(41,42)                1.2                                            !
 ! R46   R(41,50)                1.3825                                         !
 ! R47   R(43,44)                1.5365                                         !
 ! R48   R(43,55)                1.0999                                         !
 ! R49   R(43,56)                1.0966                                         !
 ! R50   R(44,45)                1.5295                                         !
 ! R51   R(44,57)                1.0962                                         !
 ! R52   R(44,58)                1.0945                                         !
 ! R53   R(45,46)                1.4693                                         !
 ! R54   R(45,59)                1.0973                                         !
 ! R55   R(45,60)                1.097                                          !
 ! R56   R(46,47)                1.337                                          !
 ! R57   R(46,61)                1.0134                                         !
 ! R58   R(47,48)                1.3461                                         !
 ! R59   R(47,49)                1.3411                                         !
 ! R60   R(48,52)                1.0109                                         !
 ! R61   R(48,62)                1.0092                                         !
 ! R62   R(49,63)                1.0103                                         !
 ! R63   R(49,64)                1.0233                                         !
 ! R64   R(50,51)                0.9724                                         !
 ! A1    A(2,1,13)             113.0963                                         !
 ! A2    A(2,1,21)             112.9346                                         !
 ! A3    A(2,1,22)             104.5562                                         !
 ! A4    A(13,1,21)            109.0271                                         !
 ! A5    A(13,1,22)            105.8324                                         !
 ! A6    A(21,1,22)            111.1071                                         !
 ! A7    A(1,2,3)              112.9648                                         !
 ! A8    A(1,2,5)              105.9387                                         !
 ! A9    A(1,2,14)             107.5389                                         !
 ! A10   A(3,2,5)              114.7579                                         !
 ! A11   A(3,2,14)             106.7213                                         !
 ! A12   A(5,2,14)             108.6674                                         !
 ! A13   A(2,3,4)              123.4309                                         !
 ! A14   A(2,3,23)             112.5549                                         !
 ! A15   A(4,3,23)             124.0138                                         !
 ! A16   A(2,5,6)              109.9876                                         !
 ! A17   A(2,5,15)             107.5492                                         !
 ! A18   A(2,5,16)             109.6126                                         !
 ! A19   A(6,5,15)             113.3762                                         !
 ! A20   A(6,5,16)             109.595                                          !
 ! A21   A(15,5,16)            106.614                                          !
 ! A22   A(5,6,7)              120.6498                                         !
 ! A23   A(5,6,8)              121.5606                                         !
 ! A24   A(7,6,8)              117.6911                                         !
 ! A25   A(6,7,9)              122.2272                                         !
 ! A26   A(6,7,17)             118.5533                                         !
 ! A27   A(9,7,17)             119.2176                                         !
 ! A28   A(6,8,10)             121.8438                                         !
 ! A29   A(6,8,18)             118.4193                                         !
 ! A30   A(10,8,18)            119.7368                                         !
 ! A31   A(7,9,11)             121.3929                                         !
 ! A32   A(7,9,19)             121.787                                          !
 ! A33   A(11,9,19)            116.8199                                         !
 ! A34   A(8,10,11)            121.7263                                         !
 ! A35   A(8,10,20)            121.4491                                         !
 ! A36   A(11,10,20)           116.8225                                         !
 ! A37   A(9,11,10)            115.1154                                         !
 ! A38   A(9,11,12)            122.3027                                         !
 ! A39   A(10,11,12)           122.5815                                         !
 ! A40   A(3,23,24)            122.405                                          !
 ! A41   A(3,23,30)            112.7915                                         !
 ! A42   A(24,23,30)           116.976                                          !
 ! A43   A(23,24,25)           107.228                                          !
 ! A44   A(23,24,27)           112.2837                                         !
 ! A45   A(23,24,31)           108.576                                          !
 ! A46   A(25,24,27)           115.2232                                         !
 ! A47   A(25,24,31)           105.3161                                         !
 ! A48   A(27,24,31)           107.8359                                         !
 ! A49   A(24,25,26)           122.2449                                         !
 ! A50   A(24,25,39)           116.865                                          !
 ! A51   A(26,25,39)           120.8308                                         !
 ! A52   A(24,27,28)           112.9083                                         !
 ! A53   A(24,27,29)           110.5023                                         !
 ! A54   A(24,27,32)           103.9926                                         !
 ! A55   A(28,27,29)           111.5604                                         !
 ! A56   A(28,27,32)           108.7681                                         !
 ! A57   A(29,27,32)           108.7515                                         !
 ! A58   A(27,28,33)           111.7939                                         !
 ! A59   A(27,28,34)           110.1154                                         !
 ! A60   A(27,28,35)           111.0728                                         !
 ! A61   A(33,28,34)           107.5992                                         !
 ! A62   A(33,28,35)           108.8466                                         !
 ! A63   A(34,28,35)           107.2446                                         !
 ! A64   A(27,29,36)           110.8552                                         !
 ! A65   A(27,29,37)           111.4376                                         !
 ! A66   A(27,29,38)           110.3211                                         !
 ! A67   A(36,29,37)           108.2401                                         !
 ! A68   A(36,29,38)           107.8005                                         !
 ! A69   A(37,29,38)           108.0604                                         !
 ! A70   A(25,39,40)           115.3827                                         !
 ! A71   A(25,39,53)           113.354                                          !
 ! A72   A(40,39,53)           113.0543                                         !
 ! A73   A(39,40,41)           105.1786                                         !
 ! A74   A(39,40,43)           112.2287                                         !
 ! A75   A(39,40,54)           107.3647                                         !
 ! A76   A(41,40,43)           115.6051                                         !
 ! A77   A(41,40,54)           104.7023                                         !
 ! A78   A(43,40,54)           111.1247                                         !
 ! A79   A(40,41,42)           124.6117                                         !
 ! A80   A(40,41,50)           116.8367                                         !
 ! A81   A(42,41,50)           117.5106                                         !
 ! A82   A(40,43,44)           114.3114                                         !
 ! A83   A(40,43,55)           110.0174                                         !
 ! A84   A(40,43,56)           107.8632                                         !
 ! A85   A(44,43,55)           108.3928                                         !
 ! A86   A(44,43,56)           110.0036                                         !
 ! A87   A(55,43,56)           105.9277                                         !
 ! A88   A(43,44,45)           115.7374                                         !
 ! A89   A(43,44,57)           109.5173                                         !
 ! A90   A(43,44,58)           108.3286                                         !
 ! A91   A(45,44,57)           108.6511                                         !
 ! A92   A(45,44,58)           107.9821                                         !
 ! A93   A(57,44,58)           106.2005                                         !
 ! A94   A(44,45,46)           110.3571                                         !
 ! A95   A(44,45,59)           109.4045                                         !
 ! A96   A(44,45,60)           110.1411                                         !
 ! A97   A(46,45,59)           110.3214                                         !
 ! A98   A(46,45,60)           108.9592                                         !
 ! A99   A(59,45,60)           107.6137                                         !
 ! A100  A(45,46,47)           125.8392                                         !
 ! A101  A(45,46,61)           116.2902                                         !
 ! A102  A(47,46,61)           115.4145                                         !
 ! A103  A(46,47,48)           120.8698                                         !
 ! A104  A(46,47,49)           118.0792                                         !
 ! A105  A(48,47,49)           121.0105                                         !
 ! A106  A(47,48,52)           119.391                                          !
 ! A107  A(47,48,62)           119.364                                          !
 ! A108  A(52,48,62)           115.6153                                         !
 ! A109  A(47,49,63)           119.1294                                         !
 ! A110  A(47,49,64)           116.292                                          !
 ! A111  A(63,49,64)           116.7136                                         !
 ! A112  A(41,50,51)           113.6642                                         !
 ! D1    D(13,1,2,3)           -61.4577                                         !
 ! D2    D(13,1,2,5)            64.9862                                         !
 ! D3    D(13,1,2,14)         -178.9508                                         !
 ! D4    D(21,1,2,3)            62.9648                                         !
 ! D5    D(21,1,2,5)          -170.5912                                         !
 ! D6    D(21,1,2,14)          -54.5283                                         !
 ! D7    D(22,1,2,3)          -176.1137                                         !
 ! D8    D(22,1,2,5)           -49.6697                                         !
 ! D9    D(22,1,2,14)           66.3932                                         !
 ! D10   D(1,2,3,4)           -114.1181                                         !
 ! D11   D(1,2,3,23)            66.097                                          !
 ! D12   D(5,2,3,4)            124.2905                                         !
 ! D13   D(5,2,3,23)           -55.4944                                         !
 ! D14   D(14,2,3,4)             3.8543                                         !
 ! D15   D(14,2,3,23)         -175.9306                                         !
 ! D16   D(1,2,5,6)             48.2041                                         !
 ! D17   D(1,2,5,15)           172.1101                                         !
 ! D18   D(1,2,5,16)           -72.3566                                         !
 ! D19   D(3,2,5,6)            173.5521                                         !
 ! D20   D(3,2,5,15)           -62.5419                                         !
 ! D21   D(3,2,5,16)            52.9915                                         !
 ! D22   D(14,2,5,6)           -67.0916                                         !
 ! D23   D(14,2,5,15)           56.8144                                         !
 ! D24   D(14,2,5,16)          172.3477                                         !
 ! D25   D(2,3,23,24)         -168.1861                                         !
 ! D26   D(2,3,23,30)          -20.0291                                         !
 ! D27   D(4,3,23,24)           12.0305                                         !
 ! D28   D(4,3,23,30)          160.1875                                         !
 ! D29   D(2,5,6,7)           -109.115                                          !
 ! D30   D(2,5,6,8)             67.1928                                         !
 ! D31   D(15,5,6,7)           130.4368                                         !
 ! D32   D(15,5,6,8)           -53.2554                                         !
 ! D33   D(16,5,6,7)            11.4563                                         !
 ! D34   D(16,5,6,8)          -172.2359                                         !
 ! D35   D(5,6,7,9)            176.3725                                         !
 ! D36   D(5,6,7,17)            -3.1229                                         !
 ! D37   D(8,6,7,9)             -0.0747                                         !
 ! D38   D(8,6,7,17)          -179.57                                           !
 ! D39   D(5,6,8,10)          -176.8                                            !
 ! D40   D(5,6,8,18)             3.2702                                         !
 ! D41   D(7,6,8,10)            -0.3871                                         !
 ! D42   D(7,6,8,18)           179.683                                          !
 ! D43   D(6,7,9,11)             0.2049                                         !
 ! D44   D(6,7,9,19)          -179.9813                                         !
 ! D45   D(17,7,9,11)          179.697                                          !
 ! D46   D(17,7,9,19)           -0.4892                                         !
 ! D47   D(6,8,10,11)            0.7132                                         !
 ! D48   D(6,8,10,20)         -179.8287                                         !
 ! D49   D(18,8,10,11)        -179.3579                                         !
 ! D50   D(18,8,10,20)           0.1003                                         !
 ! D51   D(7,9,11,10)            0.0966                                         !
 ! D52   D(7,9,11,12)         -179.6806                                         !
 ! D53   D(19,9,11,10)        -179.7261                                         !
 ! D54   D(19,9,11,12)           0.4968                                         !
 ! D55   D(8,10,11,9)           -0.5499                                         !
 ! D56   D(8,10,11,12)         179.2266                                         !
 ! D57   D(20,10,11,9)         179.9681                                         !
 ! D58   D(20,10,11,12)         -0.2554                                         !
 ! D59   D(3,23,24,25)         142.2082                                         !
 ! D60   D(3,23,24,27)         -90.2567                                         !
 ! D61   D(3,23,24,31)          28.8821                                         !
 ! D62   D(30,23,24,25)         -4.7136                                         !
 ! D63   D(30,23,24,27)        122.8215                                         !
 ! D64   D(30,23,24,31)       -118.0397                                         !
 ! D65   D(23,24,25,26)       -140.0623                                         !
 ! D66   D(23,24,25,39)         37.1553                                         !
 ! D67   D(27,24,25,26)         94.1405                                         !
 ! D68   D(27,24,25,39)        -88.6419                                         !
 ! D69   D(31,24,25,26)        -24.5483                                         !
 ! D70   D(31,24,25,39)        152.6693                                         !
 ! D71   D(23,24,27,28)        -59.1144                                         !
 ! D72   D(23,24,27,29)        175.1572                                         !
 ! D73   D(23,24,27,32)         58.6136                                         !
 ! D74   D(25,24,27,28)         64.037                                          !
 ! D75   D(25,24,27,29)        -61.6914                                         !
 ! D76   D(25,24,27,32)       -178.235                                          !
 ! D77   D(31,24,27,28)       -178.686                                          !
 ! D78   D(31,24,27,29)         55.5856                                         !
 ! D79   D(31,24,27,32)        -60.958                                          !
 ! D80   D(24,25,39,40)       -125.5721                                         !
 ! D81   D(24,25,39,53)          7.0371                                         !
 ! D82   D(26,25,39,40)         51.6874                                         !
 ! D83   D(26,25,39,53)       -175.7035                                         !
 ! D84   D(24,27,28,33)         54.2949                                         !
 ! D85   D(24,27,28,34)        173.8481                                         !
 ! D86   D(24,27,28,35)        -67.5017                                         !
 ! D87   D(29,27,28,33)        179.4518                                         !
 ! D88   D(29,27,28,34)        -60.9951                                         !
 ! D89   D(29,27,28,35)         57.6552                                         !
 ! D90   D(32,27,28,33)        -60.5927                                         !
 ! D91   D(32,27,28,34)         58.9604                                         !
 ! D92   D(32,27,28,35)        177.6107                                         !
 ! D93   D(24,27,29,36)         66.8091                                         !
 ! D94   D(24,27,29,37)        -53.8166                                         !
 ! D95   D(24,27,29,38)       -173.8548                                         !
 ! D96   D(28,27,29,36)        -59.6748                                         !
 ! D97   D(28,27,29,37)        179.6995                                         !
 ! D98   D(28,27,29,38)         59.6613                                         !
 ! D99   D(32,27,29,36)       -179.6401                                         !
 ! D100  D(32,27,29,37)         59.7342                                         !
 ! D101  D(32,27,29,38)        -60.3041                                         !
 ! D102  D(25,39,40,41)         64.6474                                         !
 ! D103  D(25,39,40,43)       -168.8678                                         !
 ! D104  D(25,39,40,54)        -46.475                                          !
 ! D105  D(53,39,40,41)        -68.101                                          !
 ! D106  D(53,39,40,43)         58.3838                                         !
 ! D107  D(53,39,40,54)       -179.2234                                         !
 ! D108  D(39,40,41,42)       -104.9157                                         !
 ! D109  D(39,40,41,50)         63.0877                                         !
 ! D110  D(43,40,41,42)        130.7044                                         !
 ! D111  D(43,40,41,50)        -61.2922                                         !
 ! D112  D(54,40,41,42)          8.0944                                         !
 ! D113  D(54,40,41,50)        176.0978                                         !
 ! D114  D(39,40,43,44)         53.9723                                         !
 ! D115  D(39,40,43,55)        -68.2412                                         !
 ! D116  D(39,40,43,56)        176.6541                                         !
 ! D117  D(41,40,43,44)        174.603                                          !
 ! D118  D(41,40,43,55)         52.3895                                         !
 ! D119  D(41,40,43,56)        -62.7152                                         !
 ! D120  D(54,40,43,44)        -66.2622                                         !
 ! D121  D(54,40,43,55)        171.5243                                         !
 ! D122  D(54,40,43,56)         56.4196                                         !
 ! D123  D(40,41,50,51)         24.001                                          !
 ! D124  D(42,41,50,51)       -167.1197                                         !
 ! D125  D(40,43,44,45)         59.4764                                         !
 ! D126  D(40,43,44,57)        -63.7223                                         !
 ! D127  D(40,43,44,58)       -179.1422                                         !
 ! D128  D(55,43,44,45)       -177.4271                                         !
 ! D129  D(55,43,44,57)         59.3742                                         !
 ! D130  D(55,43,44,58)        -56.0457                                         !
 ! D131  D(56,43,44,45)        -62.0347                                         !
 ! D132  D(56,43,44,57)        174.7666                                         !
 ! D133  D(56,43,44,58)         59.3467                                         !
 ! D134  D(43,44,45,46)        -68.4577                                         !
 ! D135  D(43,44,45,59)        169.9798                                         !
 ! D136  D(43,44,45,60)         51.8866                                         !
 ! D137  D(57,44,45,46)         55.1951                                         !
 ! D138  D(57,44,45,59)        -66.3675                                         !
 ! D139  D(57,44,45,60)        175.5394                                         !
 ! D140  D(58,44,45,46)        169.9753                                         !
 ! D141  D(58,44,45,59)         48.4128                                         !
 ! D142  D(58,44,45,60)        -69.6804                                         !
 ! D143  D(44,45,46,47)        170.1604                                         !
 ! D144  D(44,45,46,61)        -28.5258                                         !
 ! D145  D(59,45,46,47)        -68.8222                                         !
 ! D146  D(59,45,46,61)         92.4916                                         !
 ! D147  D(60,45,46,47)         49.1091                                         !
 ! D148  D(60,45,46,61)       -149.5771                                         !
 ! D149  D(45,46,47,48)          4.2222                                         !
 ! D150  D(45,46,47,49)       -178.0701                                         !
 ! D151  D(61,46,47,48)       -157.2345                                         !
 ! D152  D(61,46,47,49)         20.4731                                         !
 ! D153  D(46,47,48,52)       -158.465                                          !
 ! D154  D(46,47,48,62)         -6.0588                                         !
 ! D155  D(49,47,48,52)         23.8948                                         !
 ! D156  D(49,47,48,62)        176.3011                                         !
 ! D157  D(46,47,49,63)        175.2632                                         !
 ! D158  D(46,47,49,64)         27.1252                                         !
 ! D159  D(48,47,49,63)         -7.0325                                         !
 ! D160  D(48,47,49,64)       -155.1705                                         !
 --------------------------------------------------------------------------------
 Symmetry turned off by external request.
 Stoichiometry    C20H33N6O5(1+)
 Framework group  C1[X(C20H33N6O5)]
 Deg. of freedom   186
 Full point group                 C1      NOp   1
                          Input orientation:                          
 ---------------------------------------------------------------------
 Center     Atomic      Atomic             Coordinates (Angstroms)
 Number     Number       Type             X           Y           Z
 ---------------------------------------------------------------------
      1          7           0       33.496830  -28.597814   44.264244
      2          6           0       34.237084  -27.856115   43.182789
      3          6           0       35.586370  -28.496152   42.834275
      4          8           0       36.658616  -27.956384   43.041222
      5          6           0       33.248610  -27.737683   41.994700
      6          6           0       31.923028  -27.248907   42.480086
      7          6           0       30.803078  -28.114489   42.514640
      8          6           0       31.757883  -25.937763   42.991262
      9          6           0       29.589899  -27.721643   43.021725
     10          6           0       30.558858  -25.504054   43.498087
     11          6           0       29.387026  -26.376265   43.553326
     12          8           0       28.299071  -26.005064   44.021117
     13          1           0       33.264514  -29.566143   44.003397
     14          1           0       34.452381  -26.855101   43.558961
     15          1           0       33.706996  -27.080892   41.248050
     16          1           0       33.127401  -28.715383   41.518988
     17          1           0       30.916735  -29.131566   42.130430
     18          1           0       32.614091  -25.262940   42.975294
     19          1           0       28.736252  -28.391120   43.044965
     20          1           0       30.438821  -24.497805   43.885369
     21          1           0       33.996503  -28.603573   45.157873
     22          1           0       32.586564  -28.099826   44.346973
     23          7           0       35.448651  -29.736968   42.261723
     24          6           0       36.585480  -30.648407   42.075057
     25          6           0       36.081214  -32.060440   42.346869
     26          8           0       36.748452  -32.886136   42.955522
     27          6           0       37.278952  -30.448274   40.707945
     28          6           0       36.335672  -30.667653   39.524092
     29          6           0       38.527011  -31.331548   40.604770
     30          1           0       34.554609  -30.155853   42.450482
     31          1           0       37.323907  -30.449517   42.857756
     32          1           0       37.590809  -29.397939   40.720295
     33          1           0       35.437970  -30.045383   39.598892
     34          1           0       36.839867  -30.409596   38.588633
     35          1           0       36.032615  -31.719678   39.450799
     36          1           0       38.253605  -32.391802   40.583318
     37          1           0       39.202957  -31.169138   41.449992
     38          1           0       39.074825  -31.108912   39.684946
     39          7           0       34.785512  -32.361283   41.919598
     40          6           0       33.879830  -32.897055   42.964620
     41          6           0       33.713224  -31.754976   43.975965
     42          8           0       34.239854  -31.716517   45.053532
     43          6           0       32.584505  -33.452372   42.377057
     44          6           0       32.789266  -34.502201   41.273946
     45          6           0       33.568925  -35.752677   41.683602
     46          7           0       34.974160  -35.414933   41.948512
     47          6           0       35.883225  -36.224878   42.500911
     48          7           0       35.580743  -37.502765   42.796659
     49          7           0       37.116797  -35.741133   42.707993
     50          8           0       33.113253  -30.597224   43.516729
     51          1           0       32.539765  -30.735021   42.743601
     52          1           0       36.130698  -37.995789   43.486817
     53          1           0       34.363441  -31.624533   41.369188
     54          1           0       34.426122  -33.665628   43.504169
     55          1           0       31.975144  -32.633210   41.967775
     56          1           0       31.998994  -33.881290   43.199085
     57          1           0       33.293262  -34.039805   40.417313
     58          1           0       31.805618  -34.820005   40.914421
     59          1           0       33.501166  -36.502363   40.885240
     60          1           0       33.131009  -36.191198   42.588790
     61          1           0       35.349393  -34.623560   41.438694
     62          1           0       34.631147  -37.825420   42.683779
     63          1           0       37.795317  -36.314137   43.189618
     64          1           0       37.190141  -34.729472   42.843325
 ---------------------------------------------------------------------
 Rotational constants (GHZ):           0.2349319           0.0777237           0.0652138
 Standard basis: 6-31G(d) (6D, 7F)
   531 basis functions,  1000 primitive gaussians,   531 cartesian basis functions
   117 alpha electrons      117 beta electrons
       nuclear repulsion energy      3384.0967112972 Hartrees.
 NAtoms=   64 NActive=   64 NUniq=   64 SFac= 1.00D+00 NAtFMM=   60 NAOKFM=T Big=T
 Integral buffers will be    131072 words long.
 Raffenetti 2 integral format.
 Two-electron integral symmetry is turned off.
 Nuclear repulsion after empirical dispersion term =     3384.0073837098 Hartrees.
 One-electron integrals computed using PRISM.
 NBasis=   531 RedAO= T EigKep=  4.84D-04  NBF=   531
 NBsUse=   531 1.00D-06 EigRej= -1.00D+00 NBFU=   531
 Initial guess from the checkpoint file:  "conf-749.chk"
 B after Tr=     0.000000    0.000000    0.000000
         Rot=    1.000000    0.000000    0.000000    0.000000 Ang=   0.00 deg.
 Requested convergence on RMS density matrix=1.00D-08 within 128 cycles.
 Requested convergence on MAX density matrix=1.00D-06.
 Requested convergence on             energy=1.00D-06.
 No special actions if energy rises.
 SCF Done:  E(RB3LYP) =  -1486.37267755     A.U. after    3 cycles
            NFock=  3  Conv=0.10D-08     -V/T= 2.0087

 **********************************************************************

            Population analysis using the SCF Density.

 **********************************************************************

 Alpha  occ. eigenvalues --  -19.39570 -19.31057 -19.29725 -19.23788 -19.08992
 Alpha  occ. eigenvalues --  -14.55968 -14.55518 -14.53921 -14.53210 -14.51053
 Alpha  occ. eigenvalues --  -14.48618 -10.51639 -10.48754 -10.45689 -10.41350
 Alpha  occ. eigenvalues --  -10.40857 -10.40716 -10.36838 -10.36455 -10.36198
 Alpha  occ. eigenvalues --  -10.35298 -10.31265 -10.29212 -10.29049 -10.28364
 Alpha  occ. eigenvalues --  -10.24821 -10.23873 -10.23031 -10.22652 -10.20174
 Alpha  occ. eigenvalues --  -10.19804  -1.31247  -1.21385  -1.20555  -1.20293
 Alpha  occ. eigenvalues --   -1.15802  -1.10845  -1.09777  -1.09269  -1.08184
 Alpha  occ. eigenvalues --   -1.05570  -0.99157  -0.97664  -0.93614  -0.91967
 Alpha  occ. eigenvalues --   -0.90339  -0.86865  -0.85855  -0.84258  -0.82604
 Alpha  occ. eigenvalues --   -0.81582  -0.79908  -0.79768  -0.78314  -0.77805
 Alpha  occ. eigenvalues --   -0.77599  -0.76438  -0.75263  -0.73733  -0.73225
 Alpha  occ. eigenvalues --   -0.70315  -0.69801  -0.69166  -0.68814  -0.68047
 Alpha  occ. eigenvalues --   -0.67903  -0.66122  -0.65819  -0.64578  -0.64327
 Alpha  occ. eigenvalues --   -0.63804  -0.62030  -0.61262  -0.60754  -0.60434
 Alpha  occ. eigenvalues --   -0.60139  -0.59639  -0.59306  -0.58347  -0.57610
 Alpha  occ. eigenvalues --   -0.57260  -0.56676  -0.55297  -0.54275  -0.54118
 Alpha  occ. eigenvalues --   -0.53200  -0.52355  -0.52092  -0.51825  -0.51677
 Alpha  occ. eigenvalues --   -0.51429  -0.50948  -0.49926  -0.49358  -0.48931
 Alpha  occ. eigenvalues --   -0.48641  -0.47832  -0.46830  -0.46749  -0.46033
 Alpha  occ. eigenvalues --   -0.45730  -0.45502  -0.45122  -0.44958  -0.44402
 Alpha  occ. eigenvalues --   -0.42863  -0.42379  -0.41830  -0.40270  -0.38216
 Alpha  occ. eigenvalues --   -0.37930  -0.37282  -0.36788  -0.33690  -0.28915
 Alpha  occ. eigenvalues --   -0.22374  -0.20059
 Alpha virt. eigenvalues --   -0.18438  -0.16444  -0.16381  -0.13680  -0.10833
 Alpha virt. eigenvalues --   -0.10708  -0.07905  -0.06637  -0.05821  -0.05207
 Alpha virt. eigenvalues --   -0.04478  -0.04138  -0.03276  -0.03002  -0.01961
 Alpha virt. eigenvalues --   -0.01186  -0.01022  -0.00317   0.00067   0.00306
 Alpha virt. eigenvalues --    0.00915   0.01452   0.02110   0.02501   0.02776
 Alpha virt. eigenvalues --    0.03096   0.03213   0.03437   0.04389   0.04690
 Alpha virt. eigenvalues --    0.04919   0.05139   0.05713   0.05945   0.06414
 Alpha virt. eigenvalues --    0.07594   0.07977   0.08142   0.08614   0.08958
 Alpha virt. eigenvalues --    0.09258   0.09687   0.11077   0.11126   0.11411
 Alpha virt. eigenvalues --    0.12018   0.12452   0.12954   0.13819   0.14249
 Alpha virt. eigenvalues --    0.14491   0.15563   0.16301   0.17282   0.17623
 Alpha virt. eigenvalues --    0.18029   0.19007   0.19758   0.20746   0.21746
 Alpha virt. eigenvalues --    0.23147   0.24010   0.25522   0.26566   0.27328
 Alpha virt. eigenvalues --    0.29397   0.29509   0.31629   0.32809   0.33553
 Alpha virt. eigenvalues --    0.33997   0.34992   0.35042   0.36223   0.37432
 Alpha virt. eigenvalues --    0.37879   0.38885   0.39134   0.39365   0.40048
 Alpha virt. eigenvalues --    0.40545   0.41011   0.42113   0.42708   0.43081
 Alpha virt. eigenvalues --    0.44020   0.45196   0.46010   0.46698   0.47763
 Alpha virt. eigenvalues --    0.47802   0.48551   0.49107   0.49373   0.49696
 Alpha virt. eigenvalues --    0.49758   0.50174   0.50625   0.51261   0.51679
 Alpha virt. eigenvalues --    0.52427   0.53198   0.53453   0.54007   0.54799
 Alpha virt. eigenvalues --    0.54997   0.55232   0.56353   0.56684   0.57116
 Alpha virt. eigenvalues --    0.57962   0.58360   0.59053   0.59271   0.60404
 Alpha virt. eigenvalues --    0.60930   0.61280   0.61871   0.62211   0.63014
 Alpha virt. eigenvalues --    0.64226   0.64713   0.65043   0.65542   0.65893
 Alpha virt. eigenvalues --    0.66470   0.66651   0.67797   0.68542   0.69299
 Alpha virt. eigenvalues --    0.69715   0.70041   0.70274   0.70748   0.70971
 Alpha virt. eigenvalues --    0.71339   0.72200   0.72510   0.73741   0.74090
 Alpha virt. eigenvalues --    0.74781   0.75390   0.75742   0.76053   0.76400
 Alpha virt. eigenvalues --    0.76629   0.77265   0.77587   0.78618   0.78731
 Alpha virt. eigenvalues --    0.79659   0.79888   0.80271   0.80919   0.81409
 Alpha virt. eigenvalues --    0.81966   0.82569   0.82729   0.83447   0.83518
 Alpha virt. eigenvalues --    0.84025   0.84547   0.84800   0.84970   0.85542
 Alpha virt. eigenvalues --    0.86123   0.86582   0.87490   0.87770   0.88693
 Alpha virt. eigenvalues --    0.89009   0.89949   0.90604   0.91442   0.92231
 Alpha virt. eigenvalues --    0.92596   0.93260   0.94155   0.94487   0.95265
 Alpha virt. eigenvalues --    0.96343   0.96939   0.97547   0.98014   0.98445
 Alpha virt. eigenvalues --    0.99054   1.00461   1.02021   1.02618   1.03839
 Alpha virt. eigenvalues --    1.04573   1.05728   1.06655   1.08006   1.09058
 Alpha virt. eigenvalues --    1.09873   1.11402   1.11583   1.12549   1.13447
 Alpha virt. eigenvalues --    1.13869   1.14973   1.15852   1.16399   1.17508
 Alpha virt. eigenvalues --    1.18916   1.19049   1.20883   1.22968   1.23292
 Alpha virt. eigenvalues --    1.23507   1.24609   1.26743   1.28368   1.28535
 Alpha virt. eigenvalues --    1.31260   1.31735   1.32305   1.32992   1.35358
 Alpha virt. eigenvalues --    1.36496   1.37586   1.39127   1.39897   1.40978
 Alpha virt. eigenvalues --    1.41873   1.42337   1.43352   1.44380   1.44751
 Alpha virt. eigenvalues --    1.45177   1.46037   1.46354   1.48162   1.48444
 Alpha virt. eigenvalues --    1.48880   1.50096   1.50711   1.52089   1.54233
 Alpha virt. eigenvalues --    1.55589   1.57162   1.58106   1.59191   1.59225
 Alpha virt. eigenvalues --    1.61090   1.61389   1.62230   1.63427   1.63850
 Alpha virt. eigenvalues --    1.64386   1.65310   1.65774   1.67224   1.68011
 Alpha virt. eigenvalues --    1.68469   1.68980   1.70581   1.70644   1.71731
 Alpha virt. eigenvalues --    1.72729   1.73139   1.73464   1.74602   1.74808
 Alpha virt. eigenvalues --    1.76048   1.76242   1.77374   1.78906   1.79571
 Alpha virt. eigenvalues --    1.80957   1.81025   1.82657   1.83148   1.83408
 Alpha virt. eigenvalues --    1.84227   1.85116   1.85299   1.85845   1.86845
 Alpha virt. eigenvalues --    1.87457   1.88770   1.89331   1.90381   1.91265
 Alpha virt. eigenvalues --    1.92007   1.92616   1.93006   1.93484   1.94231
 Alpha virt. eigenvalues --    1.94718   1.95530   1.96012   1.96429   1.97166
 Alpha virt. eigenvalues --    1.97695   1.98464   1.99523   2.00605   2.01601
 Alpha virt. eigenvalues --    2.02851   2.03007   2.03757   2.04490   2.06267
 Alpha virt. eigenvalues --    2.06589   2.07572   2.09692   2.10364   2.10582
 Alpha virt. eigenvalues --    2.12264   2.12771   2.14452   2.14639   2.15619
 Alpha virt. eigenvalues --    2.16361   2.17049   2.17161   2.18173   2.19792
 Alpha virt. eigenvalues --    2.21238   2.22630   2.23783   2.25142   2.26158
 Alpha virt. eigenvalues --    2.26460   2.28743   2.29675   2.30204   2.30659
 Alpha virt. eigenvalues --    2.30786   2.32656   2.32778   2.33483   2.34470
 Alpha virt. eigenvalues --    2.36429   2.37750   2.38765   2.39417   2.40665
 Alpha virt. eigenvalues --    2.41122   2.41776   2.42728   2.43217   2.44868
 Alpha virt. eigenvalues --    2.47567   2.49390   2.50040   2.51943   2.52861
 Alpha virt. eigenvalues --    2.53600   2.55006   2.55623   2.56140   2.57898
 Alpha virt. eigenvalues --    2.58560   2.59117   2.61239   2.62315   2.62548
 Alpha virt. eigenvalues --    2.63401   2.66233   2.68572   2.70302   2.71273
 Alpha virt. eigenvalues --    2.73014   2.77430   2.78214   2.80544   2.83218
 Alpha virt. eigenvalues --    2.84330   2.85098   2.86900   2.88322   2.89719
 Alpha virt. eigenvalues --    2.92317   2.92517   2.93999   2.97437   3.02736
 Alpha virt. eigenvalues --    3.03416   3.15314   3.34289   3.62658   3.74334
 Alpha virt. eigenvalues --    3.84657   3.85393   3.89334   3.92889   3.96388
 Alpha virt. eigenvalues --    3.97712   4.02236   4.02587   4.05429   4.06764
 Alpha virt. eigenvalues --    4.08413   4.10403   4.12789   4.14715   4.18737
 Alpha virt. eigenvalues --    4.19561   4.23446   4.27694   4.29514   4.31089
 Alpha virt. eigenvalues --    4.34849   4.35765   4.40822   4.48624   4.49876
 Alpha virt. eigenvalues --    4.52233   4.56161   4.60748   4.75208
          Condensed to atoms (all electrons):
 Mulliken charges:
               1
     1  N   -0.790662
     2  C   -0.125344
     3  C    0.610760
     4  O   -0.471044
     5  C   -0.356832
     6  C    0.069422
     7  C   -0.192795
     8  C   -0.186564
     9  C   -0.208175
    10  C   -0.209756
    11  C    0.419601
    12  O   -0.579543
    13  H    0.466736
    14  H    0.221810
    15  H    0.189515
    16  H    0.092149
    17  H    0.021368
    18  H    0.108260
    19  H    0.109948
    20  H    0.128004
    21  H    0.386971
    22  H    0.407843
    23  N   -0.660238
    24  C   -0.022542
    25  C    0.573686
    26  O   -0.505882
    27  C   -0.086680
    28  C   -0.473062
    29  C   -0.453496
    30  H    0.323198
    31  H    0.214619
    32  H    0.190966
    33  H    0.158901
    34  H    0.187871
    35  H    0.121392
    36  H    0.127998
    37  H    0.170884
    38  H    0.178071
    39  N   -0.631329
    40  C   -0.070602
    41  C    0.573790
    42  O   -0.390865
    43  C   -0.306745
    44  C   -0.309948
    45  C   -0.161135
    46  N   -0.609674
    47  C    0.778118
    48  N   -0.738266
    49  N   -0.762276
    50  O   -0.639488
    51  H    0.452231
    52  H    0.386363
    53  H    0.338547
    54  H    0.221501
    55  H    0.156579
    56  H    0.199273
    57  H    0.180169
    58  H    0.206169
    59  H    0.205670
    60  H    0.183172
    61  H    0.389344
    62  H    0.389730
    63  H    0.375591
    64  H    0.426721
 Sum of Mulliken charges =   1.00000
 Mulliken charges with hydrogens summed into heavy atoms:
               1
     1  N    0.470888
     2  C    0.096465
     3  C    0.610760
     4  O   -0.471044
     5  C   -0.075168
     6  C    0.069422
     7  C   -0.171427
     8  C   -0.078304
     9  C   -0.098227
    10  C   -0.081753
    11  C    0.419601
    12  O   -0.579543
    23  N   -0.337041
    24  C    0.192077
    25  C    0.573686
    26  O   -0.505882
    27  C    0.104285
    28  C   -0.004898
    29  C    0.023458
    39  N   -0.292782
    40  C    0.150899
    41  C    0.573790
    42  O   -0.390865
    43  C    0.049108
    44  C    0.076389
    45  C    0.227708
    46  N   -0.220330
    47  C    0.778118
    48  N    0.037827
    49  N    0.040037
    50  O   -0.187257
 Electronic spatial extent (au):  <R**2>=        3297642.9308
 Charge=              1.0000 electrons
 Dipole moment (field-independent basis, Debye):
    X=            176.4190    Y=           -177.8546    Z=            201.8108  Tot=            321.6885
 Quadrupole moment (field-independent basis, Debye-Ang):
   XX=           6220.6586   YY=           6314.4040   ZZ=           8301.1346
   XY=          -6427.4340   XZ=           7430.2672   YZ=          -7498.8594
 Traceless Quadrupole moment (field-independent basis, Debye-Ang):
   XX=           -724.7405   YY=           -630.9951   ZZ=           1355.7355
   XY=          -6427.4340   XZ=           7430.2672   YZ=          -7498.8594
 Octapole moment (field-independent basis, Debye-Ang**2):
  XXX=         211879.0939  YYY=        -218664.7475  ZZZ=         333516.2751  XYY=         226081.3953
  XXY=        -225031.2672  XXZ=         262364.3936  XZZ=         306930.4656  YZZ=        -310718.8447
  YYZ=         266901.3903  XYZ=        -271462.6881
 Hexadecapole moment (field-independent basis, Debye-Ang**3):
 XXXX=        6977333.4858 YYYY=        7455206.7265 ZZZZ=       13030460.6408 XXXY=       -7662070.0554
 XXXZ=        8943564.1489 YYYX=       -7785476.5788 YYYZ=       -9262327.8737 ZZZX=       12413245.3207
 ZZZY=      -12634723.1295 XXYY=        7885450.2494 XXZZ=       10860934.1563 YYZZ=       11112093.5721
 XXYZ=       -9514749.8972 YYXZ=        9569377.7958 ZZXY=      -11280095.6495
 N-N= 3.384007383710D+03 E-N=-1.020077686211D+04  KE= 1.473522419520D+03
 Unable to Open any file for archive entry.
 1\1\GINC-SKL-136\SP\RB3LYP\6-31G(d)\C20H33N6O5(1+)\KENGMITH\31-May-202
 2\0\\# B3LYP/6-31G* empiricaldispersion=gd3 guess=read geom=check nosy
 mm integral(ultrafinegrid)\\Candidate Structure: Conf:749 Charge calc 
 in gas phase\\1,1\N,0,33.4968304084,-28.5978139782,44.2642439841\C,0,3
 4.2370840359,-27.8561151048,43.1827891059\C,0,35.5863704293,-28.496152
 2696,42.834274513\O,0,36.6586160588,-27.9563842466,43.0412224508\C,0,3
 3.248610386,-27.7376830541,41.9946999389\C,0,31.9230282599,-27.2489072
 439,42.480086183\C,0,30.8030783731,-28.1144893886,42.5146396352\C,0,31
 .7578834173,-25.9377625355,42.9912619719\C,0,29.589898722,-27.72164264
 39,43.0217249994\C,0,30.5588582702,-25.5040536073,43.4980872197\C,0,29
 .387025646,-26.3762647248,43.553326442\O,0,28.2990713614,-26.005063624
 3,44.0211169641\H,0,33.2645140847,-29.5661431079,44.0033966159\H,0,34.
 4523813187,-26.855100926,43.5589608871\H,0,33.7069959409,-27.080891885
 1,41.2480500041\H,0,33.12740076,-28.7153834063,41.5189884539\H,0,30.91
 67348798,-29.131566043,42.1304296464\H,0,32.6140908604,-25.2629399874,
 42.9752944602\H,0,28.7362517479,-28.3911202797,43.0449647744\H,0,30.43
 88214665,-24.4978053907,43.8853691683\H,0,33.9965028487,-28.6035725869
 ,45.1578726433\H,0,32.586563854,-28.0998263781,44.3469725826\N,0,35.44
 86507685,-29.7369678388,42.2617234158\C,0,36.5854799076,-30.6484067165
 ,42.0750569134\C,0,36.0812140718,-32.0604401468,42.3468692421\O,0,36.7
 484524479,-32.8861358643,42.9555215517\C,0,37.2789516274,-30.448273976
 8,40.707944646\C,0,36.3356718808,-30.6676529887,39.5240919215\C,0,38.5
 270106128,-31.3315477133,40.6047704137\H,0,34.5546093076,-30.155853127
 ,42.4504820404\H,0,37.3239067409,-30.4495167751,42.8577559094\H,0,37.5
 90808691,-29.3979391731,40.7202945492\H,0,35.4379696242,-30.0453829152
 ,39.5988916595\H,0,36.839867135,-30.4095961103,38.5886331071\H,0,36.03
 26151411,-31.7196775685,39.4507994701\H,0,38.2536054147,-32.3918018888
 ,40.5833181018\H,0,39.2029571935,-31.1691377499,41.4499920944\H,0,39.0
 748246973,-31.1089115344,39.6849462191\N,0,34.7855118695,-32.361282942
 ,41.919597667\C,0,33.879830374,-32.8970548204,42.9646200049\C,0,33.713
 2243281,-31.7549758835,43.9759650005\O,0,34.2398543607,-31.7165165638,
 45.0535318184\C,0,32.5845048264,-33.4523721986,42.3770565798\C,0,32.78
 92664415,-34.5022012574,41.2739463115\C,0,33.5689253627,-35.7526771831
 ,41.6836015327\N,0,34.9741601355,-35.414932753,41.9485119566\C,0,35.88
 32253921,-36.2248783967,42.5009114647\N,0,35.5807434997,-37.5027650618
 ,42.796659172\N,0,37.1167970311,-35.7411330914,42.7079931005\O,0,33.11
 32534967,-30.5972242239,43.5167293476\H,0,32.5397651901,-30.7350208816
 ,42.7436011433\H,0,36.1306980067,-37.9957893986,43.4868165763\H,0,34.3
 634414738,-31.6245332401,41.3691882727\H,0,34.4261217618,-33.665628264
 4,43.5041690042\H,0,31.9751441082,-32.633210189,41.9677745333\H,0,31.9
 989939837,-33.881290225,43.199084725\H,0,33.2932620286,-34.0398045534,
 40.4173127275\H,0,31.8056182683,-34.8200050181,40.9144206224\H,0,33.50
 11664924,-36.5023625031,40.8852404756\H,0,33.1310092445,-36.1911984408
 ,42.5887900833\H,0,35.3493929505,-34.623559838,41.4386939364\H,0,34.63
 11468218,-37.8254199788,42.6837792097\H,0,37.795317183,-36.3141373682,
 43.1896180885\H,0,37.1901409267,-34.7294722855,42.8433252466\\Version=
 ES64L-G16RevC.01\HF=-1486.3726776\RMSD=1.006e-09\Dipole=4.9609361,-11.
 6266085,-1.0565439\Quadrupole=-538.8267704,-469.1293758,1007.9561461,-
 4778.639614,5524.2215416,-5575.2181824\PG=C01 [X(C20H33N6O5)]\\@
 The archive entry for this job was punched.


 A successful marriage requires falling in love
 many times, always with the same person.
                           -- Mignon McLaughlin
 Job cpu time:       0 days  0 hours  2 minutes 44.6 seconds.
 Elapsed time:       0 days  0 hours  0 minutes 41.8 seconds.
 File lengths (MBytes):  RWF=    264 Int=      0 D2E=      0 Chk=     40 Scr=     16
 Normal termination of Gaussian 16 at Tue May 31 11:50:51 2022.
