 Entering Gaussian System, Link 0=/opt/software/Gaussian/g16-AVX2-C.01/g16/g16
 Input=charge-conf-231.com
 Output=charge-conf-231.log
 Initial command:
 /opt/software/Gaussian/g16-AVX2-C.01/g16/l1.exe "/mnt/gs18/scratch/users/kengmith/Gau-30381.inp" -scrdir="/mnt/gs18/scratch/users/kengmith/"
 Entering Link 1 = /opt/software/Gaussian/g16-AVX2-C.01/g16/l1.exe PID=     30391.
  
 Copyright (c) 1988-2019, Gaussian, Inc.  All Rights Reserved.
  
 This is part of the Gaussian(R) 16 program.  It is based on
 the Gaussian(R) 09 system (copyright 2009, Gaussian, Inc.),
 the Gaussian(R) 03 system (copyright 2003, Gaussian, Inc.),
 the Gaussian(R) 98 system (copyright 1998, Gaussian, Inc.),
 the Gaussian(R) 94 system (copyright 1995, Gaussian, Inc.),
 the Gaussian 92(TM) system (copyright 1992, Gaussian, Inc.),
 the Gaussian 90(TM) system (copyright 1990, Gaussian, Inc.),
 the Gaussian 88(TM) system (copyright 1988, Gaussian, Inc.),
 the Gaussian 86(TM) system (copyright 1986, Carnegie Mellon
 University), and the Gaussian 82(TM) system (copyright 1983,
 Carnegie Mellon University). Gaussian is a federally registered
 trademark of Gaussian, Inc.
  
 This software contains proprietary and confidential information,
 including trade secrets, belonging to Gaussian, Inc.
  
 This software is provided under written license and may be
 used, copied, transmitted, or stored only in accord with that
 written license.
  
 The following legend is applicable only to US Government
 contracts under FAR:
  
                    RESTRICTED RIGHTS LEGEND
  
 Use, reproduction and disclosure by the US Government is
 subject to restrictions as set forth in subparagraphs (a)
 and (c) of the Commercial Computer Software - Restricted
 Rights clause in FAR 52.227-19.
  
 Gaussian, Inc.
 340 Quinnipiac St., Bldg. 40, Wallingford CT 06492
  
  
 ---------------------------------------------------------------
 Warning -- This program may not be used in any manner that
 competes with the business of Gaussian, Inc. or will provide
 assistance to any competitor of Gaussian, Inc.  The licensee
 of this program is prohibited from giving any competitor of
 Gaussian, Inc. access to this program.  By using this program,
 the user acknowledges that Gaussian, Inc. is engaged in the
 business of creating and licensing software in the field of
 computational chemistry and represents and warrants to the
 licensee that it is not a competitor of Gaussian, Inc. and that
 it will not use this program in any manner prohibited above.
 ---------------------------------------------------------------
  

 Cite this work as:
 Gaussian 16, Revision C.01,
 M. J. Frisch, G. W. Trucks, H. B. Schlegel, G. E. Scuseria, 
 M. A. Robb, J. R. Cheeseman, G. Scalmani, V. Barone, 
 G. A. Petersson, H. Nakatsuji, X. Li, M. Caricato, A. V. Marenich, 
 J. Bloino, B. G. Janesko, R. Gomperts, B. Mennucci, H. P. Hratchian, 
 J. V. Ortiz, A. F. Izmaylov, J. L. Sonnenberg, D. Williams-Young, 
 F. Ding, F. Lipparini, F. Egidi, J. Goings, B. Peng, A. Petrone, 
 T. Henderson, D. Ranasinghe, V. G. Zakrzewski, J. Gao, N. Rega, 
 G. Zheng, W. Liang, M. Hada, M. Ehara, K. Toyota, R. Fukuda, 
 J. Hasegawa, M. Ishida, T. Nakajima, Y. Honda, O. Kitao, H. Nakai, 
 T. Vreven, K. Throssell, J. A. Montgomery, Jr., J. E. Peralta, 
 F. Ogliaro, M. J. Bearpark, J. J. Heyd, E. N. Brothers, K. N. Kudin, 
 V. N. Staroverov, T. A. Keith, R. Kobayashi, J. Normand, 
 K. Raghavachari, A. P. Rendell, J. C. Burant, S. S. Iyengar, 
 J. Tomasi, M. Cossi, J. M. Millam, M. Klene, C. Adamo, R. Cammi, 
 J. W. Ochterski, R. L. Martin, K. Morokuma, O. Farkas, 
 J. B. Foresman, and D. J. Fox, Gaussian, Inc., Wallingford CT, 2019.
 
 ******************************************
 Gaussian 16:  ES64L-G16RevC.01  3-Jul-2019
                31-May-2022 
 ******************************************
 %mem=8gb
 %nproc=4
 Will use up to    4 processors via shared memory.
 %chk=conf-231.chk
 ----------------------------------------------------------------------
 # B3LYP/6-31G* empiricaldispersion=gd3 guess=read geom=check nosymm in
 tegral(ultrafinegrid)
 ----------------------------------------------------------------------
 1/29=2,38=1,172=1/1;
 2/12=2,15=1,40=1/2;
 3/5=1,6=6,7=1,11=2,14=-4,25=1,30=1,74=-5,75=-5,116=-2,124=31/1,2,3;
 4/5=1/1;
 5/5=2,38=6/2;
 6/7=2,8=2,9=2,10=2,28=1/1;
 99/5=1,9=1/99;
 ------------------------------------------------------
 Candidate Structure: Conf:231 Charge calc in gas phase
 ------------------------------------------------------
 Structure from the checkpoint file:  "conf-231.chk"
 Charge =  1 Multiplicity = 1
 Redundant internal coordinates found in file.  (old form).
 N,0,31.7494877617,-28.7317435677,40.2576217505
 C,0,33.0901655927,-28.0297571694,40.2862874018
 C,0,33.3117253714,-27.7704319401,41.7929257382
 O,0,32.3059500892,-27.6596777739,42.5116332336
 C,0,34.1325491026,-28.876248076,39.5191229728
 C,0,34.1726013467,-30.3264007715,39.9329991898
 C,0,35.0925386031,-30.8231080811,40.873183938
 C,0,33.2935832407,-31.2621968572,39.3394968262
 C,0,35.1310002071,-32.1687057579,41.2206165122
 C,0,33.3125630048,-32.6041457829,39.6764741475
 C,0,34.2541433646,-33.1319704472,40.6173767397
 O,0,34.3047640948,-34.3938287718,40.8693017143
 H,0,31.282892517,-28.6625703993,39.3493683167
 H,0,32.9404856818,-27.0557127623,39.8061897339
 H,0,33.8940747429,-28.7868119402,38.4511378863
 H,0,35.1086080518,-28.3878161484,39.6307348408
 H,0,35.8402263452,-30.1522906041,41.2966783056
 H,0,32.616536047,-30.9328146278,38.548102876
 H,0,35.8862560758,-32.5282799459,41.9152713132
 H,0,32.6461297128,-33.3097073674,39.1903223498
 H,0,31.8941637559,-29.736246425,40.4830546843
 H,0,31.1703996822,-28.3235027699,41.0112219437
 N,0,34.5575578573,-27.6832698505,42.2702418352
 C,0,34.798645678,-27.4707899741,43.7101852731
 C,0,34.1344117133,-28.5724808382,44.5657409711
 O,0,33.7485383633,-28.3231670315,45.6954462624
 C,0,36.3117625175,-27.3018438864,43.9935576127
 C,0,37.1227397914,-28.5762652056,43.7104171896
 C,0,36.5355122229,-26.8146543491,45.432819503
 H,0,35.3483807278,-27.7842026487,41.6488148696
 H,0,34.2755991075,-26.5563606257,44.0037424483
 H,0,36.6567549065,-26.5098411911,43.3122230511
 H,0,37.0403643383,-28.9177630915,42.6707743704
 H,0,38.1845272687,-28.3932084394,43.9004276091
 H,0,36.8030838689,-29.3994181416,44.3590871373
 H,0,36.1962433324,-27.5573529839,46.160595541
 H,0,35.990733812,-25.8857833354,45.6295768677
 H,0,37.6008228148,-26.6272779145,45.5991445788
 N,0,33.9922964356,-29.8022656248,43.978768287
 C,0,33.189172726,-30.8596483071,44.5782135705
 C,0,32.1435981554,-31.3071450704,43.5312205016
 O,0,31.8457781891,-32.4528471189,43.2931010278
 C,0,34.0539953081,-32.016979355,45.0986295389
 C,0,33.2748200006,-33.0429492584,45.9386064052
 C,0,34.0229542021,-34.3774713065,46.2052397586
 N,0,34.9625460744,-34.8056086491,45.161176808
 C,0,34.6779387062,-35.0005797859,43.856744212
 N,0,33.4258539233,-34.918152509,43.3896517521
 N,0,35.6460573149,-35.3041485605,42.9841218898
 O,0,31.5468112835,-30.2986058304,42.8515523181
 H,0,31.8643231384,-29.4252485396,43.1653618441
 H,0,33.381875296,-34.8678528626,42.3580222488
 H,0,34.4086949422,-29.9955036768,43.0742961109
 H,0,32.6502682955,-30.3905645397,45.4117849907
 H,0,34.8606758842,-31.5756781046,45.6946244839
 H,0,34.5205375864,-32.4884919185,44.2288752491
 H,0,32.3141878176,-33.2507193835,45.4627339418
 H,0,33.0281421964,-32.6069444058,46.9139616948
 H,0,33.2933863658,-35.1754811886,46.3821184009
 H,0,34.6278088845,-34.2937653027,47.1108140976
 H,0,35.9415938623,-34.8032215328,45.4060975573
 H,0,32.7538579148,-34.3204205855,43.8518197757
 H,0,35.4138336943,-35.0704700391,41.9887247875
 H,0,36.5980891097,-35.44989183,43.284510112
 Recover connectivity data from disk.
                           ----------------------------
                           !    Current Parameters    !
                           ! (Angstroms and Degrees)  !
 --------------------------                            --------------------------
 ! Name  Definition              Value                                          !
 --------------------------------------------------------------------------------
 ! R1    R(1,2)                  1.5136                                         !
 ! R2    R(1,13)                 1.0234                                         !
 ! R3    R(1,21)                 1.0396                                         !
 ! R4    R(1,22)                 1.0344                                         !
 ! R5    R(2,3)                  1.5448                                         !
 ! R6    R(2,5)                  1.5465                                         !
 ! R7    R(2,14)                 1.0962                                         !
 ! R8    R(3,4)                  1.2411                                         !
 ! R9    R(3,23)                 1.337                                          !
 ! R10   R(5,6)                  1.5086                                         !
 ! R11   R(5,15)                 1.0979                                         !
 ! R12   R(5,16)                 1.0971                                         !
 ! R13   R(6,7)                  1.406                                          !
 ! R14   R(6,8)                  1.4144                                         !
 ! R15   R(7,9)                  1.3903                                         !
 ! R16   R(7,17)                 1.0901                                         !
 ! R17   R(8,10)                 1.3837                                         !
 ! R18   R(8,18)                 1.0923                                         !
 ! R19   R(9,11)                 1.4355                                         !
 ! R20   R(9,19)                 1.0873                                         !
 ! R21   R(10,11)                1.4319                                         !
 ! R22   R(10,20)                1.0855                                         !
 ! R23   R(11,12)                1.2878                                         !
 ! R24   R(23,24)                1.4754                                         !
 ! R25   R(23,30)                1.0108                                         !
 ! R26   R(24,25)                1.545                                          !
 ! R27   R(24,27)                1.5487                                         !
 ! R28   R(24,31)                1.0936                                         !
 ! R29   R(25,26)                1.2195                                         !
 ! R30   R(25,39)                1.3701                                         !
 ! R31   R(27,28)                1.5369                                         !
 ! R32   R(27,29)                1.5359                                         !
 ! R33   R(27,32)                1.1002                                         !
 ! R34   R(28,33)                1.0974                                         !
 ! R35   R(28,34)                1.0941                                         !
 ! R36   R(28,35)                1.0957                                         !
 ! R37   R(29,36)                1.0938                                         !
 ! R38   R(29,37)                1.0947                                         !
 ! R39   R(29,38)                1.0944                                         !
 ! R40   R(39,40)                1.4568                                         !
 ! R41   R(39,53)                1.0143                                         !
 ! R42   R(40,41)                1.5459                                         !
 ! R43   R(40,43)                1.5356                                         !
 ! R44   R(40,54)                1.0979                                         !
 ! R45   R(41,42)                1.2075                                         !
 ! R46   R(41,50)                1.3547                                         !
 ! R47   R(43,44)                1.5379                                         !
 ! R48   R(43,55)                1.0958                                         !
 ! R49   R(43,56)                1.0938                                         !
 ! R50   R(44,45)                1.553                                          !
 ! R51   R(44,57)                1.092                                          !
 ! R52   R(44,58)                1.0965                                         !
 ! R53   R(45,46)                1.4684                                         !
 ! R54   R(45,59)                1.0956                                         !
 ! R55   R(45,60)                1.0922                                         !
 ! R56   R(46,47)                1.3493                                         !
 ! R57   R(46,61)                1.0092                                         !
 ! R58   R(47,48)                1.3389                                         !
 ! R59   R(47,49)                1.3382                                         !
 ! R60   R(48,52)                1.0338                                         !
 ! R61   R(48,62)                1.0112                                         !
 ! R62   R(49,63)                1.0485                                         !
 ! R63   R(49,64)                1.0089                                         !
 ! R64   R(50,51)                0.9808                                         !
 ! A1    A(2,1,13)             112.9098                                         !
 ! A2    A(2,1,21)             108.7084                                         !
 ! A3    A(2,1,22)             107.4                                            !
 ! A4    A(13,1,21)            108.7351                                         !
 ! A5    A(13,1,22)            111.386                                          !
 ! A6    A(21,1,22)            107.5343                                         !
 ! A7    A(1,2,3)              102.9069                                         !
 ! A8    A(1,2,5)              109.4977                                         !
 ! A9    A(1,2,14)             106.4311                                         !
 ! A10   A(3,2,5)              118.6225                                         !
 ! A11   A(3,2,14)             107.3119                                         !
 ! A12   A(5,2,14)             111.1702                                         !
 ! A13   A(2,3,4)              117.6156                                         !
 ! A14   A(2,3,23)             119.5241                                         !
 ! A15   A(4,3,23)             122.8588                                         !
 ! A16   A(2,5,6)              114.0767                                         !
 ! A17   A(2,5,15)             106.9505                                         !
 ! A18   A(2,5,16)             107.7883                                         !
 ! A19   A(6,5,15)             110.5444                                         !
 ! A20   A(6,5,16)             112.1117                                         !
 ! A21   A(15,5,16)            104.8283                                         !
 ! A22   A(5,6,7)              122.711                                          !
 ! A23   A(5,6,8)              120.2888                                         !
 ! A24   A(7,6,8)              116.9661                                         !
 ! A25   A(6,7,9)              121.8113                                         !
 ! A26   A(6,7,17)             119.415                                          !
 ! A27   A(9,7,17)             118.6547                                         !
 ! A28   A(6,8,10)             122.0671                                         !
 ! A29   A(6,8,18)             119.3205                                         !
 ! A30   A(10,8,18)            118.5137                                         !
 ! A31   A(7,9,11)             121.8406                                         !
 ! A32   A(7,9,19)             119.9305                                         !
 ! A33   A(11,9,19)            118.0899                                         !
 ! A34   A(8,10,11)            121.7699                                         !
 ! A35   A(8,10,20)            120.8554                                         !
 ! A36   A(11,10,20)           117.2834                                         !
 ! A37   A(9,11,10)            115.4953                                         !
 ! A38   A(9,11,12)            123.4573                                         !
 ! A39   A(10,11,12)           121.0367                                         !
 ! A40   A(3,23,24)            120.6701                                         !
 ! A41   A(3,23,30)            120.2005                                         !
 ! A42   A(24,23,30)           119.1141                                         !
 ! A43   A(23,24,25)           111.5629                                         !
 ! A44   A(23,24,27)           110.7293                                         !
 ! A45   A(23,24,31)           107.7135                                         !
 ! A46   A(25,24,27)           113.3614                                         !
 ! A47   A(25,24,31)           104.0035                                         !
 ! A48   A(27,24,31)           109.0849                                         !
 ! A49   A(24,25,26)           120.2142                                         !
 ! A50   A(24,25,39)           116.5781                                         !
 ! A51   A(26,25,39)           123.1985                                         !
 ! A52   A(24,27,28)           113.0412                                         !
 ! A53   A(24,27,29)           110.3902                                         !
 ! A54   A(24,27,32)           105.7585                                         !
 ! A55   A(28,27,29)           111.0269                                         !
 ! A56   A(28,27,32)           108.5041                                         !
 ! A57   A(29,27,32)           107.8358                                         !
 ! A58   A(27,28,33)           113.1397                                         !
 ! A59   A(27,28,34)           109.9601                                         !
 ! A60   A(27,28,35)           111.0975                                         !
 ! A61   A(33,28,34)           106.825                                          !
 ! A62   A(33,28,35)           107.769                                          !
 ! A63   A(34,28,35)           107.819                                          !
 ! A64   A(27,29,36)           111.2812                                         !
 ! A65   A(27,29,37)           111.4136                                         !
 ! A66   A(27,29,38)           109.7884                                         !
 ! A67   A(36,29,37)           107.5906                                         !
 ! A68   A(36,29,38)           108.4862                                         !
 ! A69   A(37,29,38)           108.1705                                         !
 ! A70   A(25,39,40)           122.1667                                         !
 ! A71   A(25,39,53)           120.6944                                         !
 ! A72   A(40,39,53)           117.062                                          !
 ! A73   A(39,40,41)           107.7155                                         !
 ! A74   A(39,40,43)           112.0851                                         !
 ! A75   A(39,40,54)           105.8371                                         !
 ! A76   A(41,40,43)           113.0961                                         !
 ! A77   A(41,40,54)           107.8137                                         !
 ! A78   A(43,40,54)           109.9466                                         !
 ! A79   A(40,41,42)           125.1035                                         !
 ! A80   A(40,41,50)           114.9767                                         !
 ! A81   A(42,41,50)           119.9194                                         !
 ! A82   A(40,43,44)           113.7367                                         !
 ! A83   A(40,43,55)           107.1817                                         !
 ! A84   A(40,43,56)           107.194                                          !
 ! A85   A(44,43,55)           110.1558                                         !
 ! A86   A(44,43,56)           111.2727                                         !
 ! A87   A(55,43,56)           106.9835                                         !
 ! A88   A(43,44,45)           115.0221                                         !
 ! A89   A(43,44,57)           109.5486                                         !
 ! A90   A(43,44,58)           109.5449                                         !
 ! A91   A(45,44,57)           109.5792                                         !
 ! A92   A(45,44,58)           107.299                                          !
 ! A93   A(57,44,58)           105.3903                                         !
 ! A94   A(44,45,46)           115.8954                                         !
 ! A95   A(44,45,59)           109.4409                                         !
 ! A96   A(44,45,60)           110.0767                                         !
 ! A97   A(46,45,59)           109.1785                                         !
 ! A98   A(46,45,60)           104.9225                                         !
 ! A99   A(59,45,60)           106.9019                                         !
 ! A100  A(45,46,47)           126.4804                                         !
 ! A101  A(45,46,61)           116.5835                                         !
 ! A102  A(47,46,61)           116.0774                                         !
 ! A103  A(46,47,48)           121.7101                                         !
 ! A104  A(46,47,49)           120.7024                                         !
 ! A105  A(48,47,49)           117.5808                                         !
 ! A106  A(47,48,52)           113.011                                          !
 ! A107  A(47,48,62)           119.8954                                         !
 ! A108  A(52,48,62)           113.5203                                         !
 ! A109  A(47,49,63)           114.0957                                         !
 ! A110  A(47,49,64)           121.4185                                         !
 ! A111  A(63,49,64)           121.5917                                         !
 ! A112  A(41,50,51)           111.0858                                         !
 ! D1    D(13,1,2,3)           158.0297                                         !
 ! D2    D(13,1,2,5)           -74.922                                          !
 ! D3    D(13,1,2,14)           45.3323                                         !
 ! D4    D(21,1,2,3)           -81.2219                                         !
 ! D5    D(21,1,2,5)            45.8264                                         !
 ! D6    D(21,1,2,14)          166.0807                                         !
 ! D7    D(22,1,2,3)            34.8476                                         !
 ! D8    D(22,1,2,5)           161.896                                          !
 ! D9    D(22,1,2,14)          -77.8498                                         !
 ! D10   D(1,2,3,4)            -27.0849                                         !
 ! D11   D(1,2,3,23)           152.4931                                         !
 ! D12   D(5,2,3,4)           -148.0923                                         !
 ! D13   D(5,2,3,23)            31.4857                                         !
 ! D14   D(14,2,3,4)            84.9635                                         !
 ! D15   D(14,2,3,23)          -95.4585                                         !
 ! D16   D(1,2,5,6)            -49.995                                          !
 ! D17   D(1,2,5,15)            72.5539                                         !
 ! D18   D(1,2,5,16)          -175.1888                                         !
 ! D19   D(3,2,5,6)             67.5969                                         !
 ! D20   D(3,2,5,15)          -169.8542                                         !
 ! D21   D(3,2,5,16)           -57.5969                                         !
 ! D22   D(14,2,5,6)          -167.3117                                         !
 ! D23   D(14,2,5,15)          -44.7629                                         !
 ! D24   D(14,2,5,16)           67.4945                                         !
 ! D25   D(2,3,23,24)         -178.4204                                         !
 ! D26   D(2,3,23,30)            0.1469                                         !
 ! D27   D(4,3,23,24)            1.1344                                         !
 ! D28   D(4,3,23,30)          179.7017                                         !
 ! D29   D(2,5,6,7)            -96.1422                                         !
 ! D30   D(2,5,6,8)             86.0466                                         !
 ! D31   D(15,5,6,7)           143.2955                                         !
 ! D32   D(15,5,6,8)           -34.5157                                         !
 ! D33   D(16,5,6,7)            26.7269                                         !
 ! D34   D(16,5,6,8)          -151.0843                                         !
 ! D35   D(5,6,7,9)           -178.652                                          !
 ! D36   D(5,6,7,17)            -2.6723                                         !
 ! D37   D(8,6,7,9)             -0.7725                                         !
 ! D38   D(8,6,7,17)           175.2072                                         !
 ! D39   D(5,6,8,10)           178.9971                                         !
 ! D40   D(5,6,8,18)             2.6627                                         !
 ! D41   D(7,6,8,10)             1.0634                                         !
 ! D42   D(7,6,8,18)          -175.271                                          !
 ! D43   D(6,7,9,11)             1.4214                                         !
 ! D44   D(6,7,9,19)           177.0539                                         !
 ! D45   D(17,7,9,11)         -174.5879                                         !
 ! D46   D(17,7,9,19)            1.0446                                         !
 ! D47   D(6,8,10,11)           -2.005                                          !
 ! D48   D(6,8,10,20)         -178.4351                                         !
 ! D49   D(18,8,10,11)         174.3579                                         !
 ! D50   D(18,8,10,20)          -2.0722                                         !
 ! D51   D(7,9,11,10)           -2.1692                                         !
 ! D52   D(7,9,11,12)          176.645                                          !
 ! D53   D(19,9,11,10)        -177.879                                          !
 ! D54   D(19,9,11,12)           0.9352                                         !
 ! D55   D(8,10,11,9)            2.453                                          !
 ! D56   D(8,10,11,12)        -176.3924                                         !
 ! D57   D(20,10,11,9)         179.0049                                         !
 ! D58   D(20,10,11,12)          0.1595                                         !
 ! D59   D(3,23,24,25)          56.8963                                         !
 ! D60   D(3,23,24,27)        -175.8432                                         !
 ! D61   D(3,23,24,31)         -56.6419                                         !
 ! D62   D(30,23,24,25)       -121.6864                                         !
 ! D63   D(30,23,24,27)          5.5741                                         !
 ! D64   D(30,23,24,31)        124.7754                                         !
 ! D65   D(23,24,25,26)       -150.1257                                         !
 ! D66   D(23,24,25,39)         28.8087                                         !
 ! D67   D(27,24,25,26)         84.0523                                         !
 ! D68   D(27,24,25,39)        -97.0134                                         !
 ! D69   D(31,24,25,26)        -34.294                                          !
 ! D70   D(31,24,25,39)        144.6404                                         !
 ! D71   D(23,24,27,28)        -65.892                                          !
 ! D72   D(23,24,27,29)        169.0734                                         !
 ! D73   D(23,24,27,32)         52.6874                                         !
 ! D74   D(25,24,27,28)         60.3731                                         !
 ! D75   D(25,24,27,29)        -64.6615                                         !
 ! D76   D(25,24,27,32)        178.9525                                         !
 ! D77   D(31,24,27,28)        175.7369                                         !
 ! D78   D(31,24,27,29)         50.7024                                         !
 ! D79   D(31,24,27,32)        -65.6836                                         !
 ! D80   D(24,25,39,40)       -169.443                                          !
 ! D81   D(24,25,39,53)          7.2721                                         !
 ! D82   D(26,25,39,40)          9.4566                                         !
 ! D83   D(26,25,39,53)       -173.8284                                         !
 ! D84   D(24,27,28,33)         59.1084                                         !
 ! D85   D(24,27,28,34)        178.4554                                         !
 ! D86   D(24,27,28,35)        -62.2645                                         !
 ! D87   D(29,27,28,33)       -176.2025                                         !
 ! D88   D(29,27,28,34)        -56.8555                                         !
 ! D89   D(29,27,28,35)         62.4246                                         !
 ! D90   D(32,27,28,33)        -57.864                                          !
 ! D91   D(32,27,28,34)         61.4829                                         !
 ! D92   D(32,27,28,35)       -179.2369                                         !
 ! D93   D(24,27,29,36)         64.0762                                         !
 ! D94   D(24,27,29,37)        -55.9986                                         !
 ! D95   D(24,27,29,38)       -175.8063                                         !
 ! D96   D(28,27,29,36)        -62.097                                          !
 ! D97   D(28,27,29,37)        177.8282                                         !
 ! D98   D(28,27,29,38)         58.0206                                         !
 ! D99   D(32,27,29,36)        179.1613                                         !
 ! D100  D(32,27,29,37)         59.0865                                         !
 ! D101  D(32,27,29,38)        -60.7212                                         !
 ! D102  D(25,39,40,41)        124.6241                                         !
 ! D103  D(25,39,40,43)       -110.3446                                         !
 ! D104  D(25,39,40,54)          9.5089                                         !
 ! D105  D(53,39,40,41)        -52.204                                          !
 ! D106  D(53,39,40,43)         72.8273                                         !
 ! D107  D(53,39,40,54)       -167.3192                                         !
 ! D108  D(39,40,41,42)        136.8437                                         !
 ! D109  D(39,40,41,50)        -42.9136                                         !
 ! D110  D(43,40,41,42)         12.4192                                         !
 ! D111  D(43,40,41,50)       -167.3381                                         !
 ! D112  D(54,40,41,42)       -109.3553                                         !
 ! D113  D(54,40,41,50)         70.8874                                         !
 ! D114  D(39,40,43,44)        170.6059                                         !
 ! D115  D(39,40,43,55)         48.6026                                         !
 ! D116  D(39,40,43,56)        -65.9621                                         !
 ! D117  D(41,40,43,44)        -67.3862                                         !
 ! D118  D(41,40,43,55)        170.6105                                         !
 ! D119  D(41,40,43,56)         56.0458                                         !
 ! D120  D(54,40,43,44)         53.1824                                         !
 ! D121  D(54,40,43,55)        -68.8208                                         !
 ! D122  D(54,40,43,56)        176.6144                                         !
 ! D123  D(40,41,50,51)         -1.9073                                         !
 ! D124  D(42,41,50,51)        178.3218                                         !
 ! D125  D(40,43,44,45)        166.5869                                         !
 ! D126  D(40,43,44,57)         42.6569                                         !
 ! D127  D(40,43,44,58)        -72.4873                                         !
 ! D128  D(55,43,44,45)        -73.0712                                         !
 ! D129  D(55,43,44,57)        162.9988                                         !
 ! D130  D(55,43,44,58)         47.8546                                         !
 ! D131  D(56,43,44,45)         45.406                                          !
 ! D132  D(56,43,44,57)        -78.5241                                         !
 ! D133  D(56,43,44,58)        166.3318                                         !
 ! D134  D(43,44,45,46)        -30.4491                                         !
 ! D135  D(43,44,45,59)       -154.4089                                         !
 ! D136  D(43,44,45,60)         88.3806                                         !
 ! D137  D(57,44,45,46)         93.4647                                         !
 ! D138  D(57,44,45,59)        -30.495                                          !
 ! D139  D(57,44,45,60)       -147.7055                                         !
 ! D140  D(58,44,45,46)       -152.594                                          !
 ! D141  D(58,44,45,59)         83.4462                                         !
 ! D142  D(58,44,45,60)        -33.7643                                         !
 ! D143  D(44,45,46,47)        -56.1333                                         !
 ! D144  D(44,45,46,61)        112.7832                                         !
 ! D145  D(59,45,46,47)         67.9627                                         !
 ! D146  D(59,45,46,61)       -123.1209                                         !
 ! D147  D(60,45,46,47)       -177.7537                                         !
 ! D148  D(60,45,46,61)         -8.8373                                         !
 ! D149  D(45,46,47,48)         -5.5781                                         !
 ! D150  D(45,46,47,49)        175.3841                                         !
 ! D151  D(61,46,47,48)       -174.5435                                         !
 ! D152  D(61,46,47,49)          6.4187                                         !
 ! D153  D(46,47,48,52)        166.4441                                         !
 ! D154  D(46,47,48,62)         28.346                                          !
 ! D155  D(49,47,48,52)        -14.4893                                         !
 ! D156  D(49,47,48,62)       -152.5874                                         !
 ! D157  D(46,47,49,63)       -157.2535                                         !
 ! D158  D(46,47,49,64)          3.7698                                         !
 ! D159  D(48,47,49,63)         23.67                                           !
 ! D160  D(48,47,49,64)       -175.3067                                         !
 --------------------------------------------------------------------------------
 Symmetry turned off by external request.
 Stoichiometry    C20H33N6O5(1+)
 Framework group  C1[X(C20H33N6O5)]
 Deg. of freedom   186
 Full point group                 C1      NOp   1
                          Input orientation:                          
 ---------------------------------------------------------------------
 Center     Atomic      Atomic             Coordinates (Angstroms)
 Number     Number       Type             X           Y           Z
 ---------------------------------------------------------------------
      1          7           0       31.749488  -28.731744   40.257622
      2          6           0       33.090166  -28.029757   40.286287
      3          6           0       33.311725  -27.770432   41.792926
      4          8           0       32.305950  -27.659678   42.511633
      5          6           0       34.132549  -28.876248   39.519123
      6          6           0       34.172601  -30.326401   39.932999
      7          6           0       35.092539  -30.823108   40.873184
      8          6           0       33.293583  -31.262197   39.339497
      9          6           0       35.131000  -32.168706   41.220617
     10          6           0       33.312563  -32.604146   39.676474
     11          6           0       34.254143  -33.131970   40.617377
     12          8           0       34.304764  -34.393829   40.869302
     13          1           0       31.282893  -28.662570   39.349368
     14          1           0       32.940486  -27.055713   39.806190
     15          1           0       33.894075  -28.786812   38.451138
     16          1           0       35.108608  -28.387816   39.630735
     17          1           0       35.840226  -30.152291   41.296678
     18          1           0       32.616536  -30.932815   38.548103
     19          1           0       35.886256  -32.528280   41.915271
     20          1           0       32.646130  -33.309707   39.190322
     21          1           0       31.894164  -29.736246   40.483055
     22          1           0       31.170400  -28.323503   41.011222
     23          7           0       34.557558  -27.683270   42.270242
     24          6           0       34.798646  -27.470790   43.710185
     25          6           0       34.134412  -28.572481   44.565741
     26          8           0       33.748538  -28.323167   45.695446
     27          6           0       36.311763  -27.301844   43.993558
     28          6           0       37.122740  -28.576265   43.710417
     29          6           0       36.535512  -26.814654   45.432820
     30          1           0       35.348381  -27.784203   41.648815
     31          1           0       34.275599  -26.556361   44.003742
     32          1           0       36.656755  -26.509841   43.312223
     33          1           0       37.040364  -28.917763   42.670774
     34          1           0       38.184527  -28.393208   43.900428
     35          1           0       36.803084  -29.399418   44.359087
     36          1           0       36.196243  -27.557353   46.160596
     37          1           0       35.990734  -25.885783   45.629577
     38          1           0       37.600823  -26.627278   45.599145
     39          7           0       33.992296  -29.802266   43.978768
     40          6           0       33.189173  -30.859648   44.578214
     41          6           0       32.143598  -31.307145   43.531221
     42          8           0       31.845778  -32.452847   43.293101
     43          6           0       34.053995  -32.016979   45.098630
     44          6           0       33.274820  -33.042949   45.938606
     45          6           0       34.022954  -34.377471   46.205240
     46          7           0       34.962546  -34.805609   45.161177
     47          6           0       34.677939  -35.000580   43.856744
     48          7           0       33.425854  -34.918153   43.389652
     49          7           0       35.646057  -35.304149   42.984122
     50          8           0       31.546811  -30.298606   42.851552
     51          1           0       31.864323  -29.425249   43.165362
     52          1           0       33.381875  -34.867853   42.358022
     53          1           0       34.408695  -29.995504   43.074296
     54          1           0       32.650268  -30.390565   45.411785
     55          1           0       34.860676  -31.575678   45.694624
     56          1           0       34.520538  -32.488492   44.228875
     57          1           0       32.314188  -33.250719   45.462734
     58          1           0       33.028142  -32.606944   46.913962
     59          1           0       33.293386  -35.175481   46.382118
     60          1           0       34.627809  -34.293765   47.110814
     61          1           0       35.941594  -34.803222   45.406098
     62          1           0       32.753858  -34.320421   43.851820
     63          1           0       35.413834  -35.070470   41.988725
     64          1           0       36.598089  -35.449892   43.284510
 ---------------------------------------------------------------------
 Rotational constants (GHZ):           0.1882085           0.1268454           0.0992929
 Standard basis: 6-31G(d) (6D, 7F)
   531 basis functions,  1000 primitive gaussians,   531 cartesian basis functions
   117 alpha electrons      117 beta electrons
       nuclear repulsion energy      3569.5024713202 Hartrees.
 NAtoms=   64 NActive=   64 NUniq=   64 SFac= 1.00D+00 NAtFMM=   60 NAOKFM=T Big=T
 Integral buffers will be    131072 words long.
 Raffenetti 2 integral format.
 Two-electron integral symmetry is turned off.
 Nuclear repulsion after empirical dispersion term =     3569.4055401184 Hartrees.
 One-electron integrals computed using PRISM.
 NBasis=   531 RedAO= T EigKep=  4.40D-04  NBF=   531
 NBsUse=   531 1.00D-06 EigRej= -1.00D+00 NBFU=   531
 Initial guess from the checkpoint file:  "conf-231.chk"
 B after Tr=     0.000000    0.000000    0.000000
         Rot=    1.000000    0.000000    0.000000    0.000000 Ang=   0.00 deg.
 Requested convergence on RMS density matrix=1.00D-08 within 128 cycles.
 Requested convergence on MAX density matrix=1.00D-06.
 Requested convergence on             energy=1.00D-06.
 No special actions if energy rises.
 SCF Done:  E(RB3LYP) =  -1486.56442372     A.U. after    1 cycles
            NFock=  1  Conv=0.55D-08     -V/T= 2.0094

 **********************************************************************

            Population analysis using the SCF Density.

 **********************************************************************

 Alpha  occ. eigenvalues --  -19.30499 -19.27969 -19.25182 -19.22819 -19.16619
 Alpha  occ. eigenvalues --  -14.59796 -14.51987 -14.48702 -14.47695 -14.45466
 Alpha  occ. eigenvalues --  -14.44885 -10.45172 -10.43377 -10.43023 -10.41119
 Alpha  occ. eigenvalues --  -10.40359 -10.35762 -10.35390 -10.34155 -10.33808
 Alpha  occ. eigenvalues --  -10.31512 -10.31488 -10.30092 -10.29788 -10.28898
 Alpha  occ. eigenvalues --  -10.28862 -10.28809 -10.28519 -10.26934 -10.26485
 Alpha  occ. eigenvalues --  -10.25774  -1.21393  -1.20295  -1.15087  -1.14220
 Alpha  occ. eigenvalues --   -1.13186  -1.11947  -1.08124  -1.05498  -1.04156
 Alpha  occ. eigenvalues --   -1.01872  -0.98708  -0.95362  -0.92960  -0.90901
 Alpha  occ. eigenvalues --   -0.90758  -0.86117  -0.84386  -0.83201  -0.82342
 Alpha  occ. eigenvalues --   -0.79426  -0.78890  -0.77188  -0.75331  -0.74674
 Alpha  occ. eigenvalues --   -0.73909  -0.72257  -0.72056  -0.71384  -0.70793
 Alpha  occ. eigenvalues --   -0.69447  -0.69337  -0.69072  -0.67666  -0.66570
 Alpha  occ. eigenvalues --   -0.65111  -0.63859  -0.62784  -0.61683  -0.61005
 Alpha  occ. eigenvalues --   -0.60273  -0.59235  -0.58636  -0.58555  -0.57807
 Alpha  occ. eigenvalues --   -0.57502  -0.57254  -0.56698  -0.56131  -0.55773
 Alpha  occ. eigenvalues --   -0.55089  -0.54800  -0.54312  -0.54006  -0.53453
 Alpha  occ. eigenvalues --   -0.53292  -0.51748  -0.51162  -0.50995  -0.50955
 Alpha  occ. eigenvalues --   -0.50600  -0.49918  -0.49162  -0.48412  -0.48377
 Alpha  occ. eigenvalues --   -0.47848  -0.46955  -0.46517  -0.45743  -0.45246
 Alpha  occ. eigenvalues --   -0.45083  -0.44834  -0.44250  -0.44238  -0.43257
 Alpha  occ. eigenvalues --   -0.42935  -0.42071  -0.41966  -0.39998  -0.39356
 Alpha  occ. eigenvalues --   -0.37237  -0.37191  -0.36457  -0.36089  -0.34277
 Alpha  occ. eigenvalues --   -0.30980  -0.27411
 Alpha virt. eigenvalues --   -0.14850  -0.11228  -0.10286  -0.09282  -0.08896
 Alpha virt. eigenvalues --   -0.08014  -0.07715  -0.06568  -0.05095  -0.04181
 Alpha virt. eigenvalues --   -0.02514  -0.02023  -0.00873  -0.00646   0.00175
 Alpha virt. eigenvalues --    0.00356   0.00556   0.00784   0.01820   0.02072
 Alpha virt. eigenvalues --    0.02530   0.02653   0.03420   0.03644   0.04515
 Alpha virt. eigenvalues --    0.04729   0.04918   0.05583   0.05839   0.06499
 Alpha virt. eigenvalues --    0.06694   0.07113   0.07333   0.07861   0.08533
 Alpha virt. eigenvalues --    0.08720   0.09291   0.09731   0.09865   0.10411
 Alpha virt. eigenvalues --    0.10451   0.10873   0.11427   0.11987   0.12161
 Alpha virt. eigenvalues --    0.12729   0.13274   0.13714   0.14211   0.14946
 Alpha virt. eigenvalues --    0.15943   0.16912   0.17786   0.18322   0.19108
 Alpha virt. eigenvalues --    0.19505   0.20428   0.21528   0.22189   0.22701
 Alpha virt. eigenvalues --    0.24075   0.24350   0.26005   0.26937   0.28125
 Alpha virt. eigenvalues --    0.29175   0.29734   0.31994   0.32499   0.35784
 Alpha virt. eigenvalues --    0.36913   0.37191   0.38156   0.39378   0.39924
 Alpha virt. eigenvalues --    0.40625   0.41032   0.41147   0.41507   0.41924
 Alpha virt. eigenvalues --    0.42478   0.43383   0.43869   0.44494   0.45642
 Alpha virt. eigenvalues --    0.45746   0.46088   0.46593   0.47367   0.47498
 Alpha virt. eigenvalues --    0.48069   0.48249   0.48650   0.49297   0.49797
 Alpha virt. eigenvalues --    0.50321   0.51097   0.51805   0.51935   0.52411
 Alpha virt. eigenvalues --    0.53179   0.53580   0.53821   0.54249   0.54401
 Alpha virt. eigenvalues --    0.55138   0.56260   0.56957   0.57421   0.58181
 Alpha virt. eigenvalues --    0.58339   0.58895   0.59232   0.59599   0.60038
 Alpha virt. eigenvalues --    0.60639   0.61223   0.62667   0.62955   0.64120
 Alpha virt. eigenvalues --    0.64674   0.65486   0.66522   0.67475   0.67726
 Alpha virt. eigenvalues --    0.67825   0.68109   0.68700   0.69221   0.70230
 Alpha virt. eigenvalues --    0.70628   0.70773   0.71638   0.71990   0.73061
 Alpha virt. eigenvalues --    0.73940   0.74220   0.74726   0.75377   0.75831
 Alpha virt. eigenvalues --    0.76154   0.76319   0.76686   0.77549   0.77848
 Alpha virt. eigenvalues --    0.78094   0.78248   0.78622   0.79049   0.80304
 Alpha virt. eigenvalues --    0.80454   0.81060   0.81302   0.81661   0.82310
 Alpha virt. eigenvalues --    0.82472   0.82896   0.82998   0.83263   0.84601
 Alpha virt. eigenvalues --    0.84999   0.85326   0.86008   0.86373   0.86790
 Alpha virt. eigenvalues --    0.87028   0.87772   0.87930   0.88572   0.89684
 Alpha virt. eigenvalues --    0.91401   0.92003   0.92421   0.92966   0.93412
 Alpha virt. eigenvalues --    0.94672   0.95739   0.97092   0.98075   0.99309
 Alpha virt. eigenvalues --    1.00136   1.00839   1.01494   1.02688   1.02856
 Alpha virt. eigenvalues --    1.03662   1.04730   1.04827   1.06231   1.07296
 Alpha virt. eigenvalues --    1.08025   1.09405   1.10628   1.10996   1.12526
 Alpha virt. eigenvalues --    1.13457   1.15248   1.15344   1.16155   1.17772
 Alpha virt. eigenvalues --    1.17899   1.18845   1.19470   1.19852   1.21067
 Alpha virt. eigenvalues --    1.21337   1.22343   1.23435   1.24497   1.25269
 Alpha virt. eigenvalues --    1.27137   1.27814   1.28814   1.30919   1.31283
 Alpha virt. eigenvalues --    1.32642   1.33007   1.34543   1.35247   1.36068
 Alpha virt. eigenvalues --    1.36663   1.37251   1.38436   1.38944   1.39605
 Alpha virt. eigenvalues --    1.40178   1.40438   1.42073   1.43587   1.43886
 Alpha virt. eigenvalues --    1.45559   1.46404   1.46847   1.48805   1.49240
 Alpha virt. eigenvalues --    1.50388   1.52310   1.52619   1.55126   1.55905
 Alpha virt. eigenvalues --    1.56807   1.59019   1.60408   1.61272   1.61578
 Alpha virt. eigenvalues --    1.62888   1.63638   1.63895   1.64229   1.64638
 Alpha virt. eigenvalues --    1.65648   1.66795   1.67469   1.68416   1.69337
 Alpha virt. eigenvalues --    1.69841   1.70005   1.70958   1.71596   1.71688
 Alpha virt. eigenvalues --    1.72187   1.74058   1.74512   1.74837   1.75272
 Alpha virt. eigenvalues --    1.76479   1.77193   1.77973   1.78709   1.78908
 Alpha virt. eigenvalues --    1.79095   1.80393   1.81020   1.81693   1.82375
 Alpha virt. eigenvalues --    1.83067   1.84859   1.85325   1.85977   1.86399
 Alpha virt. eigenvalues --    1.87093   1.87440   1.88852   1.89229   1.90108
 Alpha virt. eigenvalues --    1.90541   1.91302   1.91835   1.93652   1.93980
 Alpha virt. eigenvalues --    1.94760   1.95001   1.95884   1.96726   1.96971
 Alpha virt. eigenvalues --    1.97367   1.97594   1.98595   1.98999   2.00340
 Alpha virt. eigenvalues --    2.01580   2.02636   2.04165   2.04820   2.05520
 Alpha virt. eigenvalues --    2.06511   2.06743   2.07926   2.08341   2.10420
 Alpha virt. eigenvalues --    2.12766   2.14488   2.15580   2.16028   2.17460
 Alpha virt. eigenvalues --    2.18772   2.19413   2.19954   2.20675   2.21939
 Alpha virt. eigenvalues --    2.23565   2.23881   2.24333   2.25343   2.25476
 Alpha virt. eigenvalues --    2.26290   2.27566   2.28455   2.29363   2.30220
 Alpha virt. eigenvalues --    2.30588   2.31477   2.32129   2.34647   2.34883
 Alpha virt. eigenvalues --    2.36291   2.37012   2.39120   2.40822   2.42618
 Alpha virt. eigenvalues --    2.42919   2.43306   2.44170   2.45199   2.47110
 Alpha virt. eigenvalues --    2.47413   2.49498   2.50849   2.51610   2.51803
 Alpha virt. eigenvalues --    2.52738   2.54340   2.54738   2.55961   2.56322
 Alpha virt. eigenvalues --    2.57106   2.57606   2.60546   2.62581   2.63218
 Alpha virt. eigenvalues --    2.64188   2.64570   2.66867   2.68127   2.71087
 Alpha virt. eigenvalues --    2.71637   2.72628   2.76018   2.79663   2.80092
 Alpha virt. eigenvalues --    2.82942   2.84903   2.88060   2.90107   2.90652
 Alpha virt. eigenvalues --    2.93296   2.98077   2.99759   3.00423   3.03403
 Alpha virt. eigenvalues --    3.06029   3.07571   3.29542   3.67266   3.75297
 Alpha virt. eigenvalues --    3.81508   3.84912   3.90558   3.91693   3.97424
 Alpha virt. eigenvalues --    3.98189   4.00681   4.04492   4.05521   4.08224
 Alpha virt. eigenvalues --    4.10333   4.11264   4.15962   4.17127   4.20382
 Alpha virt. eigenvalues --    4.21038   4.22420   4.27039   4.28032   4.31043
 Alpha virt. eigenvalues --    4.34099   4.36438   4.43251   4.43554   4.50325
 Alpha virt. eigenvalues --    4.51919   4.53919   4.64822   4.71269
          Condensed to atoms (all electrons):
 Mulliken charges:
               1
     1  N   -0.738808
     2  C   -0.124622
     3  C    0.661864
     4  O   -0.551757
     5  C   -0.396974
     6  C    0.129260
     7  C   -0.232002
     8  C   -0.235208
     9  C   -0.221405
    10  C   -0.168031
    11  C    0.439130
    12  O   -0.691103
    13  H    0.411402
    14  H    0.227636
    15  H    0.189133
    16  H    0.177226
    17  H    0.113096
    18  H    0.111319
    19  H    0.109278
    20  H    0.146845
    21  H    0.427291
    22  H    0.427886
    23  N   -0.636582
    24  C   -0.014759
    25  C    0.610792
    26  O   -0.492296
    27  C   -0.132654
    28  C   -0.480306
    29  C   -0.451278
    30  H    0.358329
    31  H    0.211913
    32  H    0.152489
    33  H    0.141581
    34  H    0.183623
    35  H    0.162438
    36  H    0.179438
    37  H    0.167075
    38  H    0.164938
    39  N   -0.653903
    40  C   -0.089609
    41  C    0.627155
    42  O   -0.453917
    43  C   -0.268712
    44  C   -0.330993
    45  C   -0.148661
    46  N   -0.601248
    47  C    0.752071
    48  N   -0.763580
    49  N   -0.779432
    50  O   -0.625361
    51  H    0.461018
    52  H    0.405087
    53  H    0.357396
    54  H    0.220898
    55  H    0.163552
    56  H    0.159229
    57  H    0.182608
    58  H    0.176385
    59  H    0.198158
    60  H    0.178854
    61  H    0.348449
    62  H    0.387461
    63  H    0.417334
    64  H    0.343562
 Sum of Mulliken charges =   1.00000
 Mulliken charges with hydrogens summed into heavy atoms:
               1
     1  N    0.527771
     2  C    0.103014
     3  C    0.661864
     4  O   -0.551757
     5  C   -0.030616
     6  C    0.129260
     7  C   -0.118905
     8  C   -0.123888
     9  C   -0.112127
    10  C   -0.021186
    11  C    0.439130
    12  O   -0.691103
    23  N   -0.278253
    24  C    0.197154
    25  C    0.610792
    26  O   -0.492296
    27  C    0.019834
    28  C    0.007336
    29  C    0.060173
    39  N   -0.296507
    40  C    0.131289
    41  C    0.627155
    42  O   -0.453917
    43  C    0.054070
    44  C    0.028000
    45  C    0.228350
    46  N   -0.252798
    47  C    0.752071
    48  N    0.028968
    49  N   -0.018536
    50  O   -0.164343
 Electronic spatial extent (au):  <R**2>=        3306329.9644
 Charge=              1.0000 electrons
 Dipole moment (field-independent basis, Debye):
    X=            164.8465    Y=           -142.7246    Z=            204.0153  Tot=            298.6083
 Quadrupole moment (field-independent basis, Debye-Ang):
   XX=           5504.7057   YY=           4097.5304   ZZ=           8519.7378
   XY=          -4913.8741   XZ=           7029.4563   YZ=          -6114.7719
 Traceless Quadrupole moment (field-independent basis, Debye-Ang):
   XX=           -535.9523   YY=          -1943.1276   ZZ=           2479.0799
   XY=          -4913.8741   XZ=           7029.4563   YZ=          -6114.7719
 Octapole moment (field-independent basis, Debye-Ang**2):
  XXX=         178562.8880  YYY=        -112743.2231  ZZZ=         349286.4580  XYY=         141696.1565
  XXY=        -164449.5599  XXZ=         235610.8428  XZZ=         294741.2747  YZZ=        -257491.5363
  YYZ=         177257.3621  XYZ=        -211329.6692
 Hexadecapole moment (field-independent basis, Debye-Ang**3):
 XXXX=        5599595.0240 YYYY=        2917952.0400 ZZZZ=       14016113.6216 XXXY=       -5342078.3474
 XXXZ=        7671986.2095 YYYX=       -3924179.5012 YYYZ=       -4936466.4160 ZZZX=       12136499.8843
 ZZZY=      -10646439.3295 XXYY=        4751947.4711 XXZZ=        9910957.6671 YYZZ=        7526900.8793
 XXYZ=       -7099536.8994 YYXZ=        6152677.0484 ZZXY=       -8933972.3274
 N-N= 3.569405540118D+03 E-N=-1.057399952977D+04  KE= 1.472679100509D+03
 Unable to Open any file for archive entry.
 1\1\GINC-LAC-258\SP\RB3LYP\6-31G(d)\C20H33N6O5(1+)\KENGMITH\31-May-202
 2\0\\# B3LYP/6-31G* empiricaldispersion=gd3 guess=read geom=check nosy
 mm integral(ultrafinegrid)\\Candidate Structure: Conf:231 Charge calc 
 in gas phase\\1,1\N,0,31.7494877617,-28.7317435677,40.2576217505\C,0,3
 3.0901655927,-28.0297571694,40.2862874018\C,0,33.3117253714,-27.770431
 9401,41.7929257382\O,0,32.3059500892,-27.6596777739,42.5116332336\C,0,
 34.1325491026,-28.876248076,39.5191229728\C,0,34.1726013467,-30.326400
 7715,39.9329991898\C,0,35.0925386031,-30.8231080811,40.873183938\C,0,3
 3.2935832407,-31.2621968572,39.3394968262\C,0,35.1310002071,-32.168705
 7579,41.2206165122\C,0,33.3125630048,-32.6041457829,39.6764741475\C,0,
 34.2541433646,-33.1319704472,40.6173767397\O,0,34.3047640948,-34.39382
 87718,40.8693017143\H,0,31.282892517,-28.6625703993,39.3493683167\H,0,
 32.9404856818,-27.0557127623,39.8061897339\H,0,33.8940747429,-28.78681
 19402,38.4511378863\H,0,35.1086080518,-28.3878161484,39.6307348408\H,0
 ,35.8402263452,-30.1522906041,41.2966783056\H,0,32.616536047,-30.93281
 46278,38.548102876\H,0,35.8862560758,-32.5282799459,41.9152713132\H,0,
 32.6461297128,-33.3097073674,39.1903223498\H,0,31.8941637559,-29.73624
 6425,40.4830546843\H,0,31.1703996822,-28.3235027699,41.0112219437\N,0,
 34.5575578573,-27.6832698505,42.2702418352\C,0,34.798645678,-27.470789
 9741,43.7101852731\C,0,34.1344117133,-28.5724808382,44.5657409711\O,0,
 33.7485383633,-28.3231670315,45.6954462624\C,0,36.3117625175,-27.30184
 38864,43.9935576127\C,0,37.1227397914,-28.5762652056,43.7104171896\C,0
 ,36.5355122229,-26.8146543491,45.432819503\H,0,35.3483807278,-27.78420
 26487,41.6488148696\H,0,34.2755991075,-26.5563606257,44.0037424483\H,0
 ,36.6567549065,-26.5098411911,43.3122230511\H,0,37.0403643383,-28.9177
 630915,42.6707743704\H,0,38.1845272687,-28.3932084394,43.9004276091\H,
 0,36.8030838689,-29.3994181416,44.3590871373\H,0,36.1962433324,-27.557
 3529839,46.160595541\H,0,35.990733812,-25.8857833354,45.6295768677\H,0
 ,37.6008228148,-26.6272779145,45.5991445788\N,0,33.9922964356,-29.8022
 656248,43.978768287\C,0,33.189172726,-30.8596483071,44.5782135705\C,0,
 32.1435981554,-31.3071450704,43.5312205016\O,0,31.8457781891,-32.45284
 71189,43.2931010278\C,0,34.0539953081,-32.016979355,45.0986295389\C,0,
 33.2748200006,-33.0429492584,45.9386064052\C,0,34.0229542021,-34.37747
 13065,46.2052397586\N,0,34.9625460744,-34.8056086491,45.161176808\C,0,
 34.6779387062,-35.0005797859,43.856744212\N,0,33.4258539233,-34.918152
 509,43.3896517521\N,0,35.6460573149,-35.3041485605,42.9841218898\O,0,3
 1.5468112835,-30.2986058304,42.8515523181\H,0,31.8643231384,-29.425248
 5396,43.1653618441\H,0,33.381875296,-34.8678528626,42.3580222488\H,0,3
 4.4086949422,-29.9955036768,43.0742961109\H,0,32.6502682955,-30.390564
 5397,45.4117849907\H,0,34.8606758842,-31.5756781046,45.6946244839\H,0,
 34.5205375864,-32.4884919185,44.2288752491\H,0,32.3141878176,-33.25071
 93835,45.4627339418\H,0,33.0281421964,-32.6069444058,46.9139616948\H,0
 ,33.2933863658,-35.1754811886,46.3821184009\H,0,34.6278088845,-34.2937
 653027,47.1108140976\H,0,35.9415938623,-34.8032215328,45.4060975573\H,
 0,32.7538579148,-34.3204205855,43.8518197757\H,0,35.4138336943,-35.070
 4700391,41.9887247875\H,0,36.5980891097,-35.44989183,43.284510112\\Ver
 sion=ES64L-G16RevC.01\HF=-1486.5644237\RMSD=5.467e-09\Dipole=0.574986,
 2.0269854,-0.7321917\Quadrupole=-398.4673952,-1444.6677171,1843.135112
 3,-3653.3449468,5226.2284865,-4546.183003\PG=C01 [X(C20H33N6O5)]\\@
 The archive entry for this job was punched.


 MEMORIES ARE LIKE AN ENGLISH GRAMMER LESSON -
 PRESENT TENSE, AND PAST PERFECT.
 Job cpu time:       0 days  0 hours  1 minutes 42.4 seconds.
 Elapsed time:       0 days  0 hours  0 minutes 26.3 seconds.
 File lengths (MBytes):  RWF=    264 Int=      0 D2E=      0 Chk=     40 Scr=     16
 Normal termination of Gaussian 16 at Tue May 31 11:50:36 2022.
