 Entering Gaussian System, Link 0=/opt/software/Gaussian/g16-AVX2-C.01/g16/g16
 Input=charge-conf-920.com
 Output=charge-conf-920.log
 Initial command:
 /opt/software/Gaussian/g16-AVX2-C.01/g16/l1.exe "/mnt/gs18/scratch/users/kengmith/Gau-36255.inp" -scrdir="/mnt/gs18/scratch/users/kengmith/"
 Entering Link 1 = /opt/software/Gaussian/g16-AVX2-C.01/g16/l1.exe PID=     36266.
  
 Copyright (c) 1988-2019, Gaussian, Inc.  All Rights Reserved.
  
 This is part of the Gaussian(R) 16 program.  It is based on
 the Gaussian(R) 09 system (copyright 2009, Gaussian, Inc.),
 the Gaussian(R) 03 system (copyright 2003, Gaussian, Inc.),
 the Gaussian(R) 98 system (copyright 1998, Gaussian, Inc.),
 the Gaussian(R) 94 system (copyright 1995, Gaussian, Inc.),
 the Gaussian 92(TM) system (copyright 1992, Gaussian, Inc.),
 the Gaussian 90(TM) system (copyright 1990, Gaussian, Inc.),
 the Gaussian 88(TM) system (copyright 1988, Gaussian, Inc.),
 the Gaussian 86(TM) system (copyright 1986, Carnegie Mellon
 University), and the Gaussian 82(TM) system (copyright 1983,
 Carnegie Mellon University). Gaussian is a federally registered
 trademark of Gaussian, Inc.
  
 This software contains proprietary and confidential information,
 including trade secrets, belonging to Gaussian, Inc.
  
 This software is provided under written license and may be
 used, copied, transmitted, or stored only in accord with that
 written license.
  
 The following legend is applicable only to US Government
 contracts under FAR:
  
                    RESTRICTED RIGHTS LEGEND
  
 Use, reproduction and disclosure by the US Government is
 subject to restrictions as set forth in subparagraphs (a)
 and (c) of the Commercial Computer Software - Restricted
 Rights clause in FAR 52.227-19.
  
 Gaussian, Inc.
 340 Quinnipiac St., Bldg. 40, Wallingford CT 06492
  
  
 ---------------------------------------------------------------
 Warning -- This program may not be used in any manner that
 competes with the business of Gaussian, Inc. or will provide
 assistance to any competitor of Gaussian, Inc.  The licensee
 of this program is prohibited from giving any competitor of
 Gaussian, Inc. access to this program.  By using this program,
 the user acknowledges that Gaussian, Inc. is engaged in the
 business of creating and licensing software in the field of
 computational chemistry and represents and warrants to the
 licensee that it is not a competitor of Gaussian, Inc. and that
 it will not use this program in any manner prohibited above.
 ---------------------------------------------------------------
  

 Cite this work as:
 Gaussian 16, Revision C.01,
 M. J. Frisch, G. W. Trucks, H. B. Schlegel, G. E. Scuseria, 
 M. A. Robb, J. R. Cheeseman, G. Scalmani, V. Barone, 
 G. A. Petersson, H. Nakatsuji, X. Li, M. Caricato, A. V. Marenich, 
 J. Bloino, B. G. Janesko, R. Gomperts, B. Mennucci, H. P. Hratchian, 
 J. V. Ortiz, A. F. Izmaylov, J. L. Sonnenberg, D. Williams-Young, 
 F. Ding, F. Lipparini, F. Egidi, J. Goings, B. Peng, A. Petrone, 
 T. Henderson, D. Ranasinghe, V. G. Zakrzewski, J. Gao, N. Rega, 
 G. Zheng, W. Liang, M. Hada, M. Ehara, K. Toyota, R. Fukuda, 
 J. Hasegawa, M. Ishida, T. Nakajima, Y. Honda, O. Kitao, H. Nakai, 
 T. Vreven, K. Throssell, J. A. Montgomery, Jr., J. E. Peralta, 
 F. Ogliaro, M. J. Bearpark, J. J. Heyd, E. N. Brothers, K. N. Kudin, 
 V. N. Staroverov, T. A. Keith, R. Kobayashi, J. Normand, 
 K. Raghavachari, A. P. Rendell, J. C. Burant, S. S. Iyengar, 
 J. Tomasi, M. Cossi, J. M. Millam, M. Klene, C. Adamo, R. Cammi, 
 J. W. Ochterski, R. L. Martin, K. Morokuma, O. Farkas, 
 J. B. Foresman, and D. J. Fox, Gaussian, Inc., Wallingford CT, 2019.
 
 ******************************************
 Gaussian 16:  ES64L-G16RevC.01  3-Jul-2019
                31-May-2022 
 ******************************************
 %mem=8gb
 %nproc=4
 Will use up to    4 processors via shared memory.
 %chk=conf-920.chk
 ----------------------------------------------------------------------
 # B3LYP/6-31G* empiricaldispersion=gd3 guess=read geom=check nosymm in
 tegral(ultrafinegrid)
 ----------------------------------------------------------------------
 1/29=2,38=1,172=1/1;
 2/12=2,15=1,40=1/2;
 3/5=1,6=6,7=1,11=2,14=-4,25=1,30=1,74=-5,75=-5,116=-2,124=31/1,2,3;
 4/5=1/1;
 5/5=2,38=6/2;
 6/7=2,8=2,9=2,10=2,28=1/1;
 99/5=1,9=1/99;
 ------------------------------------------------------
 Candidate Structure: Conf:920 Charge calc in gas phase
 ------------------------------------------------------
 Structure from the checkpoint file:  "conf-920.chk"
 Charge =  1 Multiplicity = 1
 Redundant internal coordinates found in file.  (old form).
 N,0,31.3470664391,-31.7663713734,40.2392270373
 C,0,30.6494261425,-31.6564097775,41.5743361765
 C,0,31.6573574112,-32.3406896349,42.5324570181
 O,0,32.1602907488,-33.3937384283,42.1549726211
 C,0,30.1194630135,-30.2248435083,41.8377725307
 C,0,31.1623730485,-29.1405920544,41.7181937336
 C,0,31.8083793515,-28.6024757719,42.8377732307
 C,0,31.6090294056,-28.7409808568,40.4501852251
 C,0,32.9714408312,-27.8407968588,42.704205314
 C,0,32.758328943,-27.9819195782,40.2990376436
 C,0,33.4975461552,-27.607822966,41.4290355311
 O,0,34.736458063,-27.0579267679,41.3073399084
 H,0,30.764353831,-31.4427271676,39.4655734824
 H,0,29.78860485,-32.3336599439,41.5308793661
 H,0,29.2997690281,-30.0542221036,41.1269255668
 H,0,29.6491036314,-30.231631904,42.8289098143
 H,0,31.4053476654,-28.7800178547,43.8338092524
 H,0,31.0713161349,-29.0602206089,39.5593466472
 H,0,33.5057768054,-27.470118245,43.5733177398
 H,0,33.1435595294,-27.7465493548,39.313448908
 H,0,32.3300635128,-31.2605374667,40.2591615648
 H,0,31.5881752676,-32.75599746,40.107004885
 N,0,31.9340487778,-31.7771780453,43.7324097497
 C,0,33.0233498808,-32.3244078084,44.5456882805
 C,0,34.3925188816,-32.0944835605,43.8756403086
 O,0,35.2926434766,-32.9452852714,44.041688067
 C,0,32.9659517396,-31.8009965055,46.0040716752
 C,0,33.2380471965,-30.2934596392,46.1270381586
 C,0,33.920670943,-32.5995556513,46.9035730913
 H,0,31.5664959978,-30.8644236972,43.9549174569
 H,0,32.9039799359,-33.4099883539,44.5561212565
 H,0,31.9381519714,-31.9963476956,46.3397361483
 H,0,33.1242021089,-29.9772465234,47.1684035922
 H,0,34.2571699654,-30.0461719125,45.8096204226
 H,0,32.5507432342,-29.6819718196,45.5310714168
 H,0,34.9635321646,-32.4521486788,46.6050877364
 H,0,33.7106051336,-33.6731067158,46.8569691788
 H,0,33.8140571788,-32.2759180236,47.943743121
 N,0,34.5526634137,-30.9576544591,43.1891514669
 C,0,35.5677699095,-30.7229568516,42.1521048897
 C,0,34.7997917187,-30.4002461387,40.8183955406
 O,0,33.733888232,-31.0870439042,40.7017554347
 C,0,36.5698292867,-29.6253430987,42.5323409682
 C,0,37.4224668401,-29.8629824728,43.7885529643
 C,0,38.5183161691,-30.932166535,43.6599472699
 N,0,37.927332203,-32.2756793731,43.6218143573
 C,0,38.3102020026,-33.2989141716,42.8696818113
 N,0,39.5534079972,-33.3762323675,42.3570704509
 N,0,37.4237308297,-34.2758450406,42.6006579626
 O,0,35.2855440917,-29.5639700255,40.0437734908
 H,0,35.1977666128,-27.5888248763,40.6222285213
 H,0,39.7565519527,-33.9946881277,41.5854642913
 H,0,33.7217663383,-30.3894730049,43.0680902041
 H,0,36.0728713033,-31.6783398251,41.9872708085
 H,0,36.0163245914,-28.6889835639,42.6590062246
 H,0,37.2155827725,-29.4672824492,41.6617093501
 H,0,36.7818117996,-30.1049983506,44.6485657939
 H,0,37.9283625076,-28.9253730404,44.0462089268
 H,0,39.2116884425,-30.8648051999,44.5068888648
 H,0,39.0895799894,-30.7658841032,42.7382745019
 H,0,36.9757428303,-32.3818442503,44.0040090036
 H,0,40.265188616,-32.7123112492,42.6218609386
 H,0,37.7436211127,-35.2072044584,42.3763907731
 H,0,36.4761226513,-34.165314915,42.9606940627
 Recover connectivity data from disk.
                           ----------------------------
                           !    Current Parameters    !
                           ! (Angstroms and Degrees)  !
 --------------------------                            --------------------------
 ! Name  Definition              Value                                          !
 --------------------------------------------------------------------------------
 ! R1    R(1,2)                  1.5104                                         !
 ! R2    R(1,13)                 1.0212                                         !
 ! R3    R(1,21)                 1.1057                                         !
 ! R4    R(1,22)                 1.0271                                         !
 ! R5    R(2,3)                  1.5499                                         !
 ! R6    R(2,5)                  1.5491                                         !
 ! R7    R(2,14)                 1.0962                                         !
 ! R8    R(3,4)                  1.2265                                         !
 ! R9    R(3,23)                 1.3542                                         !
 ! R10   R(5,6)                  1.5092                                         !
 ! R11   R(5,15)                 1.0983                                         !
 ! R12   R(5,16)                 1.0971                                         !
 ! R13   R(6,7)                  1.4001                                         !
 ! R14   R(6,8)                  1.4025                                         !
 ! R15   R(7,9)                  1.3967                                         !
 ! R16   R(7,17)                 1.0891                                         !
 ! R17   R(8,10)                 1.3856                                         !
 ! R18   R(8,18)                 1.0884                                         !
 ! R19   R(9,11)                 1.399                                          !
 ! R20   R(9,19)                 1.0855                                         !
 ! R21   R(10,11)                1.4012                                         !
 ! R22   R(10,20)                1.0841                                         !
 ! R23   R(11,12)                1.3609                                         !
 ! R24   R(23,24)                1.4654                                         !
 ! R25   R(23,30)                1.0088                                         !
 ! R26   R(24,25)                1.5416                                         !
 ! R27   R(24,27)                1.5505                                         !
 ! R28   R(24,31)                1.0922                                         !
 ! R29   R(25,26)                1.2497                                         !
 ! R30   R(25,39)                1.3376                                         !
 ! R31   R(27,28)                1.5368                                         !
 ! R32   R(27,29)                1.5357                                         !
 ! R33   R(27,32)                1.0987                                         !
 ! R34   R(28,33)                1.0943                                         !
 ! R35   R(28,34)                1.0957                                         !
 ! R36   R(28,35)                1.0961                                         !
 ! R37   R(29,36)                1.0947                                         !
 ! R38   R(29,37)                1.0949                                         !
 ! R39   R(29,38)                1.0946                                         !
 ! R40   R(39,40)                1.47                                           !
 ! R41   R(39,53)                1.0138                                         !
 ! R42   R(40,41)                1.5725                                         !
 ! R43   R(40,43)                1.5341                                         !
 ! R44   R(40,54)                1.0932                                         !
 ! R45   R(41,42)                1.2734                                         !
 ! R46   R(41,50)                1.2391                                         !
 ! R47   R(43,44)                1.5367                                         !
 ! R48   R(43,55)                1.0951                                         !
 ! R49   R(43,56)                1.0954                                         !
 ! R50   R(44,45)                1.5364                                         !
 ! R51   R(44,57)                1.0994                                         !
 ! R52   R(44,58)                1.0961                                         !
 ! R53   R(45,46)                1.4682                                         !
 ! R54   R(45,59)                1.0966                                         !
 ! R55   R(45,60)                1.097                                          !
 ! R56   R(46,47)                1.3264                                         !
 ! R57   R(46,61)                1.031                                          !
 ! R58   R(47,48)                1.347                                          !
 ! R59   R(47,49)                1.3463                                         !
 ! R60   R(48,52)                1.0095                                         !
 ! R61   R(48,62)                1.0087                                         !
 ! R62   R(49,63)                1.01                                           !
 ! R63   R(49,64)                1.0197                                         !
 ! R64   R(50,51)                2.06                                           !
 ! A1    A(2,1,13)             112.5219                                         !
 ! A2    A(2,1,21)             111.1859                                         !
 ! A3    A(2,1,22)             106.9994                                         !
 ! A4    A(13,1,21)            112.0843                                         !
 ! A5    A(13,1,22)            109.9854                                         !
 ! A6    A(21,1,22)            103.5568                                         !
 ! A7    A(1,2,3)              102.3522                                         !
 ! A8    A(1,2,5)              112.0629                                         !
 ! A9    A(1,2,14)             106.4215                                         !
 ! A10   A(3,2,5)              121.693                                          !
 ! A11   A(3,2,14)             105.2145                                         !
 ! A12   A(5,2,14)             108.0018                                         !
 ! A13   A(2,3,4)              117.0949                                         !
 ! A14   A(2,3,23)             119.7959                                         !
 ! A15   A(4,3,23)             123.1053                                         !
 ! A16   A(2,5,6)              114.4596                                         !
 ! A17   A(2,5,15)             106.7875                                         !
 ! A18   A(2,5,16)             107.133                                          !
 ! A19   A(6,5,15)             110.6619                                         !
 ! A20   A(6,5,16)             111.8576                                         !
 ! A21   A(15,5,16)            105.4082                                         !
 ! A22   A(5,6,7)              122.1144                                         !
 ! A23   A(5,6,8)              119.7634                                         !
 ! A24   A(7,6,8)              117.8072                                         !
 ! A25   A(6,7,9)              121.1542                                         !
 ! A26   A(6,7,17)             119.8627                                         !
 ! A27   A(9,7,17)             118.9825                                         !
 ! A28   A(6,8,10)             121.2562                                         !
 ! A29   A(6,8,18)             119.9389                                         !
 ! A30   A(10,8,18)            118.7622                                         !
 ! A31   A(7,9,11)             119.4163                                         !
 ! A32   A(7,9,19)             121.304                                          !
 ! A33   A(11,9,19)            119.1977                                         !
 ! A34   A(8,10,11)            119.7281                                         !
 ! A35   A(8,10,20)            120.8553                                         !
 ! A36   A(11,10,20)           119.1938                                         !
 ! A37   A(9,11,10)            119.4875                                         !
 ! A38   A(9,11,12)            119.4161                                         !
 ! A39   A(10,11,12)           121.0669                                         !
 ! A40   A(3,23,24)            119.2247                                         !
 ! A41   A(3,23,30)            119.833                                          !
 ! A42   A(24,23,30)           119.0967                                         !
 ! A43   A(23,24,25)           111.302                                          !
 ! A44   A(23,24,27)           111.6184                                         !
 ! A45   A(23,24,31)           107.1714                                         !
 ! A46   A(25,24,27)           113.0386                                         !
 ! A47   A(25,24,31)           104.4463                                         !
 ! A48   A(27,24,31)           108.8143                                         !
 ! A49   A(24,25,26)           118.7141                                         !
 ! A50   A(24,25,39)           117.1393                                         !
 ! A51   A(26,25,39)           124.0954                                         !
 ! A52   A(24,27,28)           113.5683                                         !
 ! A53   A(24,27,29)           110.6327                                         !
 ! A54   A(24,27,32)           105.1862                                         !
 ! A55   A(28,27,29)           110.6806                                         !
 ! A56   A(28,27,32)           108.3962                                         !
 ! A57   A(29,27,32)           108.0689                                         !
 ! A58   A(27,28,33)           109.9497                                         !
 ! A59   A(27,28,34)           111.2779                                         !
 ! A60   A(27,28,35)           113.1235                                         !
 ! A61   A(33,28,34)           107.8934                                         !
 ! A62   A(33,28,35)           106.9167                                         !
 ! A63   A(34,28,35)           107.4458                                         !
 ! A64   A(27,29,36)           111.2551                                         !
 ! A65   A(27,29,37)           111.448                                          !
 ! A66   A(27,29,38)           110.0184                                         !
 ! A67   A(36,29,37)           107.6496                                         !
 ! A68   A(36,29,38)           108.1852                                         !
 ! A69   A(37,29,38)           108.1601                                         !
 ! A70   A(25,39,40)           125.479                                          !
 ! A71   A(25,39,53)           116.069                                          !
 ! A72   A(40,39,53)           113.0925                                         !
 ! A73   A(39,40,41)           107.089                                          !
 ! A74   A(39,40,43)           112.9811                                         !
 ! A75   A(39,40,54)           106.6127                                         !
 ! A76   A(41,40,43)           112.4822                                         !
 ! A77   A(41,40,54)           106.0885                                         !
 ! A78   A(43,40,54)           111.1528                                         !
 ! A79   A(40,41,42)           112.0749                                         !
 ! A80   A(40,41,50)           118.5075                                         !
 ! A81   A(42,41,50)           129.4132                                         !
 ! A82   A(40,43,44)           117.0255                                         !
 ! A83   A(40,43,55)           108.077                                          !
 ! A84   A(40,43,56)           106.9356                                         !
 ! A85   A(44,43,55)           108.5491                                         !
 ! A86   A(44,43,56)           110.1781                                         !
 ! A87   A(55,43,56)           105.4569                                         !
 ! A88   A(43,44,45)           115.7806                                         !
 ! A89   A(43,44,57)           110.4989                                         !
 ! A90   A(43,44,58)           108.4188                                         !
 ! A91   A(45,44,57)           109.1431                                         !
 ! A92   A(45,44,58)           106.6039                                         !
 ! A93   A(57,44,58)           105.8657                                         !
 ! A94   A(44,45,46)           110.6011                                         !
 ! A95   A(44,45,59)           110.0949                                         !
 ! A96   A(44,45,60)           109.6492                                         !
 ! A97   A(46,45,59)           109.315                                          !
 ! A98   A(46,45,60)           109.0553                                         !
 ! A99   A(59,45,60)           108.0773                                         !
 ! A100  A(45,46,47)           127.1892                                         !
 ! A101  A(45,46,61)           117.1374                                         !
 ! A102  A(47,46,61)           113.404                                          !
 ! A103  A(46,47,48)           121.7697                                         !
 ! A104  A(46,47,49)           118.8834                                         !
 ! A105  A(48,47,49)           119.3418                                         !
 ! A106  A(47,48,52)           120.782                                          !
 ! A107  A(47,48,62)           120.903                                          !
 ! A108  A(52,48,62)           117.5071                                         !
 ! A109  A(47,49,63)           120.3291                                         !
 ! A110  A(47,49,64)           117.5599                                         !
 ! A111  A(63,49,64)           118.2092                                         !
 ! A112  A(41,50,51)           117.0562                                         !
 ! D1    D(13,1,2,3)           174.0002                                         !
 ! D2    D(13,1,2,5)           -54.0045                                         !
 ! D3    D(13,1,2,14)           63.8416                                         !
 ! D4    D(21,1,2,3)           -59.3278                                         !
 ! D5    D(21,1,2,5)            72.6675                                         !
 ! D6    D(21,1,2,14)         -169.4864                                         !
 ! D7    D(22,1,2,3)            53.0914                                         !
 ! D8    D(22,1,2,5)          -174.9133                                         !
 ! D9    D(22,1,2,14)          -57.0671                                         !
 ! D10   D(1,2,3,4)            -44.3952                                         !
 ! D11   D(1,2,3,23)           136.2987                                         !
 ! D12   D(5,2,3,4)           -170.3489                                         !
 ! D13   D(5,2,3,23)            10.3451                                         !
 ! D14   D(14,2,3,4)            66.6725                                         !
 ! D15   D(14,2,3,23)         -112.6336                                         !
 ! D16   D(1,2,5,6)            -54.285                                          !
 ! D17   D(1,2,5,15)            68.5434                                         !
 ! D18   D(1,2,5,16)          -178.9117                                         !
 ! D19   D(3,2,5,6)             67.1499                                         !
 ! D20   D(3,2,5,15)          -170.0217                                         !
 ! D21   D(3,2,5,16)           -57.4768                                         !
 ! D22   D(14,2,5,6)          -171.1856                                         !
 ! D23   D(14,2,5,15)          -48.3572                                         !
 ! D24   D(14,2,5,16)           64.1877                                         !
 ! D25   D(2,3,23,24)         -171.362                                          !
 ! D26   D(2,3,23,30)           -6.9623                                         !
 ! D27   D(4,3,23,24)            9.3755                                         !
 ! D28   D(4,3,23,30)          173.7753                                         !
 ! D29   D(2,5,6,7)            -98.4431                                         !
 ! D30   D(2,5,6,8)             74.9682                                         !
 ! D31   D(15,5,6,7)           140.8498                                         !
 ! D32   D(15,5,6,8)           -45.7389                                         !
 ! D33   D(16,5,6,7)            23.6416                                         !
 ! D34   D(16,5,6,8)          -162.9472                                         !
 ! D35   D(5,6,7,9)            164.9044                                         !
 ! D36   D(5,6,7,17)           -14.8371                                         !
 ! D37   D(8,6,7,9)             -8.6298                                         !
 ! D38   D(8,6,7,17)           171.6286                                         !
 ! D39   D(5,6,8,10)          -165.315                                          !
 ! D40   D(5,6,8,18)            12.281                                          !
 ! D41   D(7,6,8,10)             8.377                                          !
 ! D42   D(7,6,8,18)          -174.027                                          !
 ! D43   D(6,7,9,11)             0.2148                                         !
 ! D44   D(6,7,9,19)          -176.4648                                         !
 ! D45   D(17,7,9,11)          179.9586                                         !
 ! D46   D(17,7,9,19)            3.279                                          !
 ! D47   D(6,8,10,11)            0.3134                                         !
 ! D48   D(6,8,10,20)          174.8456                                         !
 ! D49   D(18,8,10,11)        -177.3102                                         !
 ! D50   D(18,8,10,20)          -2.7781                                         !
 ! D51   D(7,9,11,10)            8.6741                                         !
 ! D52   D(7,9,11,12)         -169.3736                                         !
 ! D53   D(19,9,11,10)        -174.5758                                         !
 ! D54   D(19,9,11,12)           7.3765                                         !
 ! D55   D(8,10,11,9)           -8.9575                                         !
 ! D56   D(8,10,11,12)         169.0571                                         !
 ! D57   D(20,10,11,9)         176.4192                                         !
 ! D58   D(20,10,11,12)         -5.5662                                         !
 ! D59   D(3,23,24,25)          66.9024                                         !
 ! D60   D(3,23,24,27)        -165.7708                                         !
 ! D61   D(3,23,24,31)         -46.7226                                         !
 ! D62   D(30,23,24,25)        -97.613                                          !
 ! D63   D(30,23,24,27)         29.7137                                         !
 ! D64   D(30,23,24,31)        148.762                                          !
 ! D65   D(23,24,25,26)       -147.464                                          !
 ! D66   D(23,24,25,39)         35.0303                                         !
 ! D67   D(27,24,25,26)         85.9851                                         !
 ! D68   D(27,24,25,39)        -91.5206                                         !
 ! D69   D(31,24,25,26)        -32.1436                                         !
 ! D70   D(31,24,25,39)        150.3507                                         !
 ! D71   D(23,24,27,28)        -66.659                                          !
 ! D72   D(23,24,27,29)        168.1743                                         !
 ! D73   D(23,24,27,32)         51.7117                                         !
 ! D74   D(25,24,27,28)         59.7237                                         !
 ! D75   D(25,24,27,29)        -65.4431                                         !
 ! D76   D(25,24,27,32)        178.0943                                         !
 ! D77   D(31,24,27,28)        175.2731                                         !
 ! D78   D(31,24,27,29)         50.1064                                         !
 ! D79   D(31,24,27,32)        -66.3562                                         !
 ! D80   D(24,25,39,40)       -159.5484                                         !
 ! D81   D(24,25,39,53)         -7.3111                                         !
 ! D82   D(26,25,39,40)         23.0933                                         !
 ! D83   D(26,25,39,53)        175.3306                                         !
 ! D84   D(24,27,28,33)        176.6249                                         !
 ! D85   D(24,27,28,34)        -63.8945                                         !
 ! D86   D(24,27,28,35)         57.1793                                         !
 ! D87   D(29,27,28,33)        -58.234                                          !
 ! D88   D(29,27,28,34)         61.2467                                         !
 ! D89   D(29,27,28,35)       -177.6796                                         !
 ! D90   D(32,27,28,33)         60.1202                                         !
 ! D91   D(32,27,28,34)        179.6009                                         !
 ! D92   D(32,27,28,35)        -59.3254                                         !
 ! D93   D(24,27,29,36)         64.6075                                         !
 ! D94   D(24,27,29,37)        -55.5478                                         !
 ! D95   D(24,27,29,38)       -175.5167                                         !
 ! D96   D(28,27,29,36)        -62.1768                                         !
 ! D97   D(28,27,29,37)        177.6678                                         !
 ! D98   D(28,27,29,38)         57.699                                          !
 ! D99   D(32,27,29,36)        179.27                                           !
 ! D100  D(32,27,29,37)         59.1147                                         !
 ! D101  D(32,27,29,38)        -60.8542                                         !
 ! D102  D(25,39,40,41)        119.2783                                         !
 ! D103  D(25,39,40,43)       -116.3247                                         !
 ! D104  D(25,39,40,54)          6.0577                                         !
 ! D105  D(53,39,40,41)        -33.6651                                         !
 ! D106  D(53,39,40,43)         90.7319                                         !
 ! D107  D(53,39,40,54)       -146.8858                                         !
 ! D108  D(39,40,41,42)        -36.7256                                         !
 ! D109  D(39,40,41,50)        143.9637                                         !
 ! D110  D(43,40,41,42)       -161.4262                                         !
 ! D111  D(43,40,41,50)         19.2632                                         !
 ! D112  D(54,40,41,42)         76.8504                                         !
 ! D113  D(54,40,41,50)       -102.4602                                         !
 ! D114  D(39,40,43,44)         61.1558                                         !
 ! D115  D(39,40,43,55)        -61.6744                                         !
 ! D116  D(39,40,43,56)       -174.7816                                         !
 ! D117  D(41,40,43,44)       -177.4482                                         !
 ! D118  D(41,40,43,55)         59.7217                                         !
 ! D119  D(41,40,43,56)        -53.3855                                         !
 ! D120  D(54,40,43,44)        -58.6508                                         !
 ! D121  D(54,40,43,55)        178.5191                                         !
 ! D122  D(54,40,43,56)         65.4119                                         !
 ! D123  D(40,41,50,51)        -72.3193                                         !
 ! D124  D(42,41,50,51)        108.5075                                         !
 ! D125  D(40,43,44,45)         71.8117                                         !
 ! D126  D(40,43,44,57)        -52.8947                                         !
 ! D127  D(40,43,44,58)       -168.4972                                         !
 ! D128  D(55,43,44,45)       -165.6015                                         !
 ! D129  D(55,43,44,57)         69.6922                                         !
 ! D130  D(55,43,44,58)        -45.9104                                         !
 ! D131  D(56,43,44,45)        -50.5893                                         !
 ! D132  D(56,43,44,57)       -175.2956                                         !
 ! D133  D(56,43,44,58)         69.1018                                         !
 ! D134  D(43,44,45,46)        -72.3125                                         !
 ! D135  D(43,44,45,59)        166.7714                                         !
 ! D136  D(43,44,45,60)         47.99                                           !
 ! D137  D(57,44,45,46)         53.0904                                         !
 ! D138  D(57,44,45,59)        -67.8257                                         !
 ! D139  D(57,44,45,60)        173.3929                                         !
 ! D140  D(58,44,45,46)        167.0119                                         !
 ! D141  D(58,44,45,59)         46.0958                                         !
 ! D142  D(58,44,45,60)        -72.6857                                         !
 ! D143  D(44,45,46,47)        140.7557                                         !
 ! D144  D(44,45,46,61)        -20.8992                                         !
 ! D145  D(59,45,46,47)        -97.866                                          !
 ! D146  D(59,45,46,61)        100.4791                                         !
 ! D147  D(60,45,46,47)         20.0989                                         !
 ! D148  D(60,45,46,61)       -141.556                                          !
 ! D149  D(45,46,47,48)         22.1408                                         !
 ! D150  D(45,46,47,49)       -157.0294                                         !
 ! D151  D(61,46,47,48)       -175.6295                                         !
 ! D152  D(61,46,47,49)          5.2003                                         !
 ! D153  D(46,47,48,52)       -162.001                                          !
 ! D154  D(46,47,48,62)          7.4496                                         !
 ! D155  D(49,47,48,52)         17.1655                                         !
 ! D156  D(49,47,48,62)       -173.3839                                         !
 ! D157  D(46,47,49,63)       -154.9755                                         !
 ! D158  D(46,47,49,64)          2.4031                                         !
 ! D159  D(48,47,49,63)         25.8338                                         !
 ! D160  D(48,47,49,64)       -176.7876                                         !
 --------------------------------------------------------------------------------
 Symmetry turned off by external request.
 Stoichiometry    C20H33N6O5(1+)
 Framework group  C1[X(C20H33N6O5)]
 Deg. of freedom   186
 Full point group                 C1      NOp   1
                          Input orientation:                          
 ---------------------------------------------------------------------
 Center     Atomic      Atomic             Coordinates (Angstroms)
 Number     Number       Type             X           Y           Z
 ---------------------------------------------------------------------
      1          7           0       31.347066  -31.766371   40.239227
      2          6           0       30.649426  -31.656410   41.574336
      3          6           0       31.657357  -32.340690   42.532457
      4          8           0       32.160291  -33.393738   42.154973
      5          6           0       30.119463  -30.224844   41.837773
      6          6           0       31.162373  -29.140592   41.718194
      7          6           0       31.808379  -28.602476   42.837773
      8          6           0       31.609029  -28.740981   40.450185
      9          6           0       32.971441  -27.840797   42.704205
     10          6           0       32.758329  -27.981920   40.299038
     11          6           0       33.497546  -27.607823   41.429036
     12          8           0       34.736458  -27.057927   41.307340
     13          1           0       30.764354  -31.442727   39.465573
     14          1           0       29.788605  -32.333660   41.530879
     15          1           0       29.299769  -30.054222   41.126926
     16          1           0       29.649104  -30.231632   42.828910
     17          1           0       31.405348  -28.780018   43.833809
     18          1           0       31.071316  -29.060221   39.559347
     19          1           0       33.505777  -27.470118   43.573318
     20          1           0       33.143560  -27.746549   39.313449
     21          1           0       32.330064  -31.260537   40.259162
     22          1           0       31.588175  -32.755997   40.107005
     23          7           0       31.934049  -31.777178   43.732410
     24          6           0       33.023350  -32.324408   44.545688
     25          6           0       34.392519  -32.094484   43.875640
     26          8           0       35.292643  -32.945285   44.041688
     27          6           0       32.965952  -31.800997   46.004072
     28          6           0       33.238047  -30.293460   46.127038
     29          6           0       33.920671  -32.599556   46.903573
     30          1           0       31.566496  -30.864424   43.954917
     31          1           0       32.903980  -33.409988   44.556121
     32          1           0       31.938152  -31.996348   46.339736
     33          1           0       33.124202  -29.977247   47.168404
     34          1           0       34.257170  -30.046172   45.809620
     35          1           0       32.550743  -29.681972   45.531071
     36          1           0       34.963532  -32.452149   46.605088
     37          1           0       33.710605  -33.673107   46.856969
     38          1           0       33.814057  -32.275918   47.943743
     39          7           0       34.552663  -30.957654   43.189151
     40          6           0       35.567770  -30.722957   42.152105
     41          6           0       34.799792  -30.400246   40.818396
     42          8           0       33.733888  -31.087044   40.701755
     43          6           0       36.569829  -29.625343   42.532341
     44          6           0       37.422467  -29.862982   43.788553
     45          6           0       38.518316  -30.932167   43.659947
     46          7           0       37.927332  -32.275679   43.621814
     47          6           0       38.310202  -33.298914   42.869682
     48          7           0       39.553408  -33.376232   42.357070
     49          7           0       37.423731  -34.275845   42.600658
     50          8           0       35.285544  -29.563970   40.043773
     51          1           0       35.197767  -27.588825   40.622229
     52          1           0       39.756552  -33.994688   41.585464
     53          1           0       33.721766  -30.389473   43.068090
     54          1           0       36.072871  -31.678340   41.987271
     55          1           0       36.016325  -28.688984   42.659006
     56          1           0       37.215583  -29.467282   41.661709
     57          1           0       36.781812  -30.104998   44.648566
     58          1           0       37.928363  -28.925373   44.046209
     59          1           0       39.211688  -30.864805   44.506889
     60          1           0       39.089580  -30.765884   42.738275
     61          1           0       36.975743  -32.381844   44.004009
     62          1           0       40.265189  -32.712311   42.621861
     63          1           0       37.743621  -35.207204   42.376391
     64          1           0       36.476123  -34.165315   42.960694
 ---------------------------------------------------------------------
 Rotational constants (GHZ):           0.1972273           0.1244919           0.1054974
 Standard basis: 6-31G(d) (6D, 7F)
   531 basis functions,  1000 primitive gaussians,   531 cartesian basis functions
   117 alpha electrons      117 beta electrons
       nuclear repulsion energy      3608.6154039615 Hartrees.
 NAtoms=   64 NActive=   64 NUniq=   64 SFac= 1.00D+00 NAtFMM=   60 NAOKFM=T Big=T
 Integral buffers will be    131072 words long.
 Raffenetti 2 integral format.
 Two-electron integral symmetry is turned off.
 Nuclear repulsion after empirical dispersion term =     3608.5151355208 Hartrees.
 One-electron integrals computed using PRISM.
 NBasis=   531 RedAO= T EigKep=  4.35D-04  NBF=   531
 NBsUse=   531 1.00D-06 EigRej= -1.00D+00 NBFU=   531
 Initial guess from the checkpoint file:  "conf-920.chk"
 B after Tr=     0.000000    0.000000    0.000000
         Rot=    1.000000    0.000000    0.000000    0.000000 Ang=   0.00 deg.
 Requested convergence on RMS density matrix=1.00D-08 within 128 cycles.
 Requested convergence on MAX density matrix=1.00D-06.
 Requested convergence on             energy=1.00D-06.
 No special actions if energy rises.
 SCF Done:  E(RB3LYP) =  -1486.58787847     A.U. after    1 cycles
            NFock=  1  Conv=0.29D-08     -V/T= 2.0094

 **********************************************************************

            Population analysis using the SCF Density.

 **********************************************************************

 Alpha  occ. eigenvalues --  -19.24036 -19.23563 -19.23395 -19.18484 -19.17459
 Alpha  occ. eigenvalues --  -14.53724 -14.50924 -14.49378 -14.49082 -14.48128
 Alpha  occ. eigenvalues --  -14.46463 -10.46331 -10.41072 -10.40016 -10.37597
 Alpha  occ. eigenvalues --  -10.36203 -10.34579 -10.33950 -10.33122 -10.31994
 Alpha  occ. eigenvalues --  -10.31490 -10.30198 -10.29388 -10.29380 -10.29102
 Alpha  occ. eigenvalues --  -10.28549 -10.27891 -10.27707 -10.27334 -10.27297
 Alpha  occ. eigenvalues --  -10.26547  -1.16118  -1.15159  -1.14343  -1.12642
 Alpha  occ. eigenvalues --   -1.11213  -1.08744  -1.04941  -1.04203  -1.03201
 Alpha  occ. eigenvalues --   -1.03028  -1.01953  -0.95250  -0.91438  -0.89899
 Alpha  occ. eigenvalues --   -0.89487  -0.85044  -0.84223  -0.83552  -0.81151
 Alpha  occ. eigenvalues --   -0.78661  -0.78104  -0.76621  -0.76112  -0.72470
 Alpha  occ. eigenvalues --   -0.71801  -0.71075  -0.70338  -0.70055  -0.68857
 Alpha  occ. eigenvalues --   -0.68288  -0.67936  -0.67218  -0.66585  -0.64955
 Alpha  occ. eigenvalues --   -0.63547  -0.63217  -0.62452  -0.62307  -0.60348
 Alpha  occ. eigenvalues --   -0.59517  -0.59004  -0.58068  -0.57506  -0.57008
 Alpha  occ. eigenvalues --   -0.56399  -0.55585  -0.54916  -0.54490  -0.53957
 Alpha  occ. eigenvalues --   -0.53798  -0.53377  -0.53022  -0.52184  -0.51589
 Alpha  occ. eigenvalues --   -0.51159  -0.51082  -0.50407  -0.50031  -0.49783
 Alpha  occ. eigenvalues --   -0.49423  -0.48908  -0.48630  -0.48007  -0.47362
 Alpha  occ. eigenvalues --   -0.46144  -0.45759  -0.45606  -0.44615  -0.44214
 Alpha  occ. eigenvalues --   -0.44104  -0.43928  -0.43475  -0.43200  -0.42587
 Alpha  occ. eigenvalues --   -0.41503  -0.39720  -0.39167  -0.38687  -0.37432
 Alpha  occ. eigenvalues --   -0.37084  -0.35988  -0.34777  -0.33968  -0.32914
 Alpha  occ. eigenvalues --   -0.31638  -0.30524
 Alpha virt. eigenvalues --   -0.10867  -0.10735  -0.09978  -0.09566  -0.09112
 Alpha virt. eigenvalues --   -0.06271  -0.05941  -0.03851  -0.03288  -0.02654
 Alpha virt. eigenvalues --   -0.01770  -0.00934  -0.00572  -0.00192   0.00635
 Alpha virt. eigenvalues --    0.01223   0.02340   0.02663   0.03181   0.03374
 Alpha virt. eigenvalues --    0.03620   0.04051   0.04558   0.04885   0.05157
 Alpha virt. eigenvalues --    0.05737   0.06003   0.06206   0.06686   0.07319
 Alpha virt. eigenvalues --    0.07653   0.08033   0.08329   0.08727   0.08916
 Alpha virt. eigenvalues --    0.09732   0.09935   0.10503   0.10774   0.10882
 Alpha virt. eigenvalues --    0.11730   0.11959   0.12256   0.12386   0.12965
 Alpha virt. eigenvalues --    0.14024   0.14737   0.14994   0.15284   0.15897
 Alpha virt. eigenvalues --    0.16588   0.17392   0.18028   0.18371   0.18979
 Alpha virt. eigenvalues --    0.20065   0.21495   0.23023   0.23685   0.24268
 Alpha virt. eigenvalues --    0.24855   0.26035   0.26583   0.27284   0.27621
 Alpha virt. eigenvalues --    0.28441   0.31706   0.34222   0.35061   0.37806
 Alpha virt. eigenvalues --    0.38062   0.38976   0.39137   0.40199   0.40291
 Alpha virt. eigenvalues --    0.40931   0.41221   0.41868   0.42156   0.43224
 Alpha virt. eigenvalues --    0.43376   0.44095   0.44437   0.44727   0.45171
 Alpha virt. eigenvalues --    0.45594   0.46107   0.46496   0.47315   0.48441
 Alpha virt. eigenvalues --    0.48517   0.49653   0.50313   0.50897   0.51331
 Alpha virt. eigenvalues --    0.51863   0.52185   0.52402   0.52693   0.53134
 Alpha virt. eigenvalues --    0.53363   0.53588   0.54173   0.55081   0.55189
 Alpha virt. eigenvalues --    0.56230   0.56693   0.57577   0.57800   0.58344
 Alpha virt. eigenvalues --    0.58506   0.58885   0.60205   0.60478   0.61869
 Alpha virt. eigenvalues --    0.62297   0.63025   0.63502   0.64482   0.64751
 Alpha virt. eigenvalues --    0.65867   0.66570   0.67370   0.68251   0.68822
 Alpha virt. eigenvalues --    0.69955   0.70460   0.70672   0.71335   0.71681
 Alpha virt. eigenvalues --    0.71849   0.72456   0.72723   0.73576   0.73918
 Alpha virt. eigenvalues --    0.74139   0.74868   0.75181   0.75361   0.75631
 Alpha virt. eigenvalues --    0.76062   0.76403   0.77047   0.77353   0.77684
 Alpha virt. eigenvalues --    0.78118   0.78784   0.79749   0.80217   0.80538
 Alpha virt. eigenvalues --    0.80909   0.81514   0.81627   0.82499   0.83307
 Alpha virt. eigenvalues --    0.83860   0.84113   0.84346   0.84917   0.85595
 Alpha virt. eigenvalues --    0.85812   0.85857   0.86254   0.87271   0.87465
 Alpha virt. eigenvalues --    0.88432   0.88766   0.90715   0.90872   0.92045
 Alpha virt. eigenvalues --    0.92212   0.93515   0.94585   0.95724   0.95990
 Alpha virt. eigenvalues --    0.97626   0.98250   0.99665   1.00306   1.00916
 Alpha virt. eigenvalues --    1.01258   1.02058   1.02583   1.03768   1.04114
 Alpha virt. eigenvalues --    1.04343   1.05522   1.06410   1.06728   1.06850
 Alpha virt. eigenvalues --    1.08749   1.09623   1.10536   1.12440   1.13032
 Alpha virt. eigenvalues --    1.13638   1.14630   1.14889   1.16980   1.18040
 Alpha virt. eigenvalues --    1.19291   1.20107   1.20772   1.21080   1.21913
 Alpha virt. eigenvalues --    1.22834   1.23507   1.23997   1.24531   1.25732
 Alpha virt. eigenvalues --    1.26723   1.28515   1.30529   1.32014   1.32331
 Alpha virt. eigenvalues --    1.33953   1.34338   1.35020   1.36600   1.37769
 Alpha virt. eigenvalues --    1.38362   1.38600   1.39227   1.40113   1.42253
 Alpha virt. eigenvalues --    1.42307   1.43152   1.43848   1.44452   1.44773
 Alpha virt. eigenvalues --    1.45604   1.48009   1.49092   1.49354   1.52720
 Alpha virt. eigenvalues --    1.54614   1.54854   1.56006   1.56650   1.57540
 Alpha virt. eigenvalues --    1.59186   1.60062   1.60795   1.62012   1.62495
 Alpha virt. eigenvalues --    1.63266   1.64169   1.65431   1.66717   1.66998
 Alpha virt. eigenvalues --    1.67836   1.68639   1.69249   1.70319   1.71005
 Alpha virt. eigenvalues --    1.71629   1.71896   1.72703   1.73132   1.74580
 Alpha virt. eigenvalues --    1.75130   1.75389   1.76402   1.76510   1.77767
 Alpha virt. eigenvalues --    1.78501   1.79757   1.79897   1.80568   1.81481
 Alpha virt. eigenvalues --    1.82108   1.82235   1.82931   1.83789   1.84147
 Alpha virt. eigenvalues --    1.85847   1.86577   1.86994   1.88317   1.88425
 Alpha virt. eigenvalues --    1.89485   1.89773   1.90228   1.91540   1.92328
 Alpha virt. eigenvalues --    1.92548   1.93953   1.94711   1.95512   1.95860
 Alpha virt. eigenvalues --    1.96475   1.97075   1.97353   1.97637   1.98532
 Alpha virt. eigenvalues --    1.99554   2.00208   2.01126   2.01230   2.03139
 Alpha virt. eigenvalues --    2.04540   2.05057   2.05854   2.07049   2.07544
 Alpha virt. eigenvalues --    2.08494   2.08804   2.09351   2.10742   2.12098
 Alpha virt. eigenvalues --    2.13084   2.14717   2.15692   2.16802   2.17282
 Alpha virt. eigenvalues --    2.17336   2.20225   2.20717   2.21826   2.22607
 Alpha virt. eigenvalues --    2.24096   2.24710   2.25896   2.27052   2.27134
 Alpha virt. eigenvalues --    2.28204   2.28998   2.29176   2.30148   2.30279
 Alpha virt. eigenvalues --    2.34841   2.35140   2.35719   2.36647   2.37658
 Alpha virt. eigenvalues --    2.38770   2.39583   2.40639   2.41130   2.41377
 Alpha virt. eigenvalues --    2.43759   2.45159   2.45976   2.46460   2.47519
 Alpha virt. eigenvalues --    2.48605   2.49661   2.52070   2.52391   2.53465
 Alpha virt. eigenvalues --    2.54304   2.55559   2.56277   2.58597   2.58968
 Alpha virt. eigenvalues --    2.59548   2.60636   2.61158   2.62481   2.63568
 Alpha virt. eigenvalues --    2.65274   2.66718   2.67129   2.69759   2.70664
 Alpha virt. eigenvalues --    2.74972   2.77278   2.79224   2.81420   2.82803
 Alpha virt. eigenvalues --    2.86511   2.90084   2.90902   2.91204   2.93046
 Alpha virt. eigenvalues --    2.94071   2.96147   2.98260   3.03406   3.04744
 Alpha virt. eigenvalues --    3.07775   3.10107   3.31795   3.67136   3.73211
 Alpha virt. eigenvalues --    3.75772   3.88843   3.92149   3.97256   3.98093
 Alpha virt. eigenvalues --    4.02694   4.03639   4.06974   4.08473   4.09774
 Alpha virt. eigenvalues --    4.13983   4.16153   4.17604   4.19195   4.19538
 Alpha virt. eigenvalues --    4.21899   4.25974   4.28219   4.32687   4.34844
 Alpha virt. eigenvalues --    4.37676   4.41598   4.43215   4.46154   4.50890
 Alpha virt. eigenvalues --    4.54454   4.58982   4.65121   4.70473
          Condensed to atoms (all electrons):
 Mulliken charges:
               1
     1  N   -0.761014
     2  C   -0.099204
     3  C    0.670721
     4  O   -0.520389
     5  C   -0.411855
     6  C    0.205438
     7  C   -0.258064
     8  C   -0.202873
     9  C   -0.180592
    10  C   -0.122503
    11  C    0.355065
    12  O   -0.667721
    13  H    0.383449
    14  H    0.211748
    15  H    0.180727
    16  H    0.179248
    17  H    0.141077
    18  H    0.119621
    19  H    0.156320
    20  H    0.164545
    21  H    0.466081
    22  H    0.407501
    23  N   -0.651445
    24  C   -0.030153
    25  C    0.634419
    26  O   -0.599327
    27  C   -0.114862
    28  C   -0.480211
    29  C   -0.446987
    30  H    0.344183
    31  H    0.204511
    32  H    0.158520
    33  H    0.178144
    34  H    0.162298
    35  H    0.135220
    36  H    0.154442
    37  H    0.161493
    38  H    0.164205
    39  N   -0.563493
    40  C   -0.077617
    41  C    0.610882
    42  O   -0.632497
    43  C   -0.273825
    44  C   -0.314693
    45  C   -0.149662
    46  N   -0.608256
    47  C    0.781799
    48  N   -0.758833
    49  N   -0.777135
    50  O   -0.568524
    51  H    0.444151
    52  H    0.378974
    53  H    0.360881
    54  H    0.154653
    55  H    0.175273
    56  H    0.166782
    57  H    0.158128
    58  H    0.175750
    59  H    0.183533
    60  H    0.166391
    61  H    0.409395
    62  H    0.383074
    63  H    0.366477
    64  H    0.416614
 Sum of Mulliken charges =   1.00000
 Mulliken charges with hydrogens summed into heavy atoms:
               1
     1  N    0.496017
     2  C    0.112544
     3  C    0.670721
     4  O   -0.520389
     5  C   -0.051880
     6  C    0.205438
     7  C   -0.116986
     8  C   -0.083252
     9  C   -0.024272
    10  C    0.042042
    11  C    0.355065
    12  O   -0.223570
    23  N   -0.307262
    24  C    0.174357
    25  C    0.634419
    26  O   -0.599327
    27  C    0.043658
    28  C   -0.004548
    29  C    0.033154
    39  N   -0.202612
    40  C    0.077036
    41  C    0.610882
    42  O   -0.632497
    43  C    0.068231
    44  C    0.019185
    45  C    0.200262
    46  N   -0.198862
    47  C    0.781799
    48  N    0.003215
    49  N    0.005956
    50  O   -0.568524
 Electronic spatial extent (au):  <R**2>=        3311703.4095
 Charge=              1.0000 electrons
 Dipole moment (field-independent basis, Debye):
    X=            167.6646    Y=           -155.8193    Z=            205.3060  Tot=            307.4762
 Quadrupole moment (field-independent basis, Debye-Ang):
   XX=           5779.9074   YY=           4878.0385   ZZ=           8617.4186
   XY=          -5461.5489   XZ=           7180.2752   YZ=          -6649.1181
 Traceless Quadrupole moment (field-independent basis, Debye-Ang):
   XX=           -645.2141   YY=          -1547.0830   ZZ=           2192.2971
   XY=          -5461.5489   XZ=           7180.2752   YZ=          -6649.1181
 Octapole moment (field-independent basis, Debye-Ang**2):
  XXX=         197104.9999  YYY=        -147724.2152  ZZZ=         354822.5104  XYY=         171896.4026
  XXY=        -189321.0519  XXZ=         247898.2662  XZZ=         302009.2739  YZZ=        -278867.2598
  YYZ=         207797.5065  XYZ=        -233465.4214
 Hexadecapole moment (field-independent basis, Debye-Ang**3):
 XXXX=        6653403.8578 YYYY=        4319321.6654 ZZZZ=       14296249.3951 XXXY=       -6501600.1419
 XXXZ=        8463227.5376 YYYX=       -5242168.1432 YYYZ=       -6279888.1065 ZZZX=       12464670.3072
 ZZZY=      -11482951.2102 XXYY=        5994538.2333 XXZZ=       10440237.7758 YYZZ=        8700987.4325
 XXYZ=       -8103331.0897 YYXZ=        7334735.1753 ZZXY=       -9810922.7169
 N-N= 3.608515135521D+03 E-N=-1.065497444364D+04  KE= 1.472713402217D+03
 Unable to Open any file for archive entry.
 1\1\GINC-SKL-161\SP\RB3LYP\6-31G(d)\C20H33N6O5(1+)\KENGMITH\31-May-202
 2\0\\# B3LYP/6-31G* empiricaldispersion=gd3 guess=read geom=check nosy
 mm integral(ultrafinegrid)\\Candidate Structure: Conf:920 Charge calc 
 in gas phase\\1,1\N,0,31.3470664391,-31.7663713734,40.2392270373\C,0,3
 0.6494261425,-31.6564097775,41.5743361765\C,0,31.6573574112,-32.340689
 6349,42.5324570181\O,0,32.1602907488,-33.3937384283,42.1549726211\C,0,
 30.1194630135,-30.2248435083,41.8377725307\C,0,31.1623730485,-29.14059
 20544,41.7181937336\C,0,31.8083793515,-28.6024757719,42.8377732307\C,0
 ,31.6090294056,-28.7409808568,40.4501852251\C,0,32.9714408312,-27.8407
 968588,42.704205314\C,0,32.758328943,-27.9819195782,40.2990376436\C,0,
 33.4975461552,-27.607822966,41.4290355311\O,0,34.736458063,-27.0579267
 679,41.3073399084\H,0,30.764353831,-31.4427271676,39.4655734824\H,0,29
 .78860485,-32.3336599439,41.5308793661\H,0,29.2997690281,-30.054222103
 6,41.1269255668\H,0,29.6491036314,-30.231631904,42.8289098143\H,0,31.4
 053476654,-28.7800178547,43.8338092524\H,0,31.0713161349,-29.060220608
 9,39.5593466472\H,0,33.5057768054,-27.470118245,43.5733177398\H,0,33.1
 435595294,-27.7465493548,39.313448908\H,0,32.3300635128,-31.2605374667
 ,40.2591615648\H,0,31.5881752676,-32.75599746,40.107004885\N,0,31.9340
 487778,-31.7771780453,43.7324097497\C,0,33.0233498808,-32.3244078084,4
 4.5456882805\C,0,34.3925188816,-32.0944835605,43.8756403086\O,0,35.292
 6434766,-32.9452852714,44.041688067\C,0,32.9659517396,-31.8009965055,4
 6.0040716752\C,0,33.2380471965,-30.2934596392,46.1270381586\C,0,33.920
 670943,-32.5995556513,46.9035730913\H,0,31.5664959978,-30.8644236972,4
 3.9549174569\H,0,32.9039799359,-33.4099883539,44.5561212565\H,0,31.938
 1519714,-31.9963476956,46.3397361483\H,0,33.1242021089,-29.9772465234,
 47.1684035922\H,0,34.2571699654,-30.0461719125,45.8096204226\H,0,32.55
 07432342,-29.6819718196,45.5310714168\H,0,34.9635321646,-32.4521486788
 ,46.6050877364\H,0,33.7106051336,-33.6731067158,46.8569691788\H,0,33.8
 140571788,-32.2759180236,47.943743121\N,0,34.5526634137,-30.9576544591
 ,43.1891514669\C,0,35.5677699095,-30.7229568516,42.1521048897\C,0,34.7
 997917187,-30.4002461387,40.8183955406\O,0,33.733888232,-31.0870439042
 ,40.7017554347\C,0,36.5698292867,-29.6253430987,42.5323409682\C,0,37.4
 224668401,-29.8629824728,43.7885529643\C,0,38.5183161691,-30.932166535
 ,43.6599472699\N,0,37.927332203,-32.2756793731,43.6218143573\C,0,38.31
 02020026,-33.2989141716,42.8696818113\N,0,39.5534079972,-33.3762323675
 ,42.3570704509\N,0,37.4237308297,-34.2758450406,42.6006579626\O,0,35.2
 855440917,-29.5639700255,40.0437734908\H,0,35.1977666128,-27.588824876
 3,40.6222285213\H,0,39.7565519527,-33.9946881277,41.5854642913\H,0,33.
 7217663383,-30.3894730049,43.0680902041\H,0,36.0728713033,-31.67833982
 51,41.9872708085\H,0,36.0163245914,-28.6889835639,42.6590062246\H,0,37
 .2155827725,-29.4672824492,41.6617093501\H,0,36.7818117996,-30.1049983
 506,44.6485657939\H,0,37.9283625076,-28.9253730404,44.0462089268\H,0,3
 9.2116884425,-30.8648051999,44.5068888648\H,0,39.0895799894,-30.765884
 1032,42.7382745019\H,0,36.9757428303,-32.3818442503,44.0040090036\H,0,
 40.265188616,-32.7123112492,42.6218609386\H,0,37.7436211127,-35.207204
 4584,42.3763907731\H,0,36.4761226513,-34.165314915,42.9606940627\\Vers
 ion=ES64L-G16RevC.01\HF=-1486.5878785\RMSD=2.911e-09\Dipole=1.2919476,
 -2.8882823,0.0863902\Quadrupole=-479.700868,-1150.2182996,1629.9191677
 ,-4060.527782,5338.3586419,-4943.4563766\PG=C01 [X(C20H33N6O5)]\\@
 The archive entry for this job was punched.


 THERE IS NOTHING NOBLE IN BEING SUPERIOR TO SOME OTHER MAN.
 TRUE NOBILITY IS BEING SUPERIOR TO YOUR FORMER SELF.

                                                   -- HINDU PROVERB
 Job cpu time:       0 days  0 hours  2 minutes  2.8 seconds.
 Elapsed time:       0 days  0 hours  0 minutes 31.9 seconds.
 File lengths (MBytes):  RWF=    264 Int=      0 D2E=      0 Chk=     40 Scr=     16
 Normal termination of Gaussian 16 at Tue May 31 11:50:41 2022.
