 Entering Gaussian System, Link 0=/opt/software/Gaussian/g16-AVX2-C.01/g16/g16
 Input=charge-conf-123.com
 Output=charge-conf-123.log
 Initial command:
 /opt/software/Gaussian/g16-AVX2-C.01/g16/l1.exe "/mnt/gs18/scratch/users/kengmith/Gau-24651.inp" -scrdir="/mnt/gs18/scratch/users/kengmith/"
 Entering Link 1 = /opt/software/Gaussian/g16-AVX2-C.01/g16/l1.exe PID=     24661.
  
 Copyright (c) 1988-2019, Gaussian, Inc.  All Rights Reserved.
  
 This is part of the Gaussian(R) 16 program.  It is based on
 the Gaussian(R) 09 system (copyright 2009, Gaussian, Inc.),
 the Gaussian(R) 03 system (copyright 2003, Gaussian, Inc.),
 the Gaussian(R) 98 system (copyright 1998, Gaussian, Inc.),
 the Gaussian(R) 94 system (copyright 1995, Gaussian, Inc.),
 the Gaussian 92(TM) system (copyright 1992, Gaussian, Inc.),
 the Gaussian 90(TM) system (copyright 1990, Gaussian, Inc.),
 the Gaussian 88(TM) system (copyright 1988, Gaussian, Inc.),
 the Gaussian 86(TM) system (copyright 1986, Carnegie Mellon
 University), and the Gaussian 82(TM) system (copyright 1983,
 Carnegie Mellon University). Gaussian is a federally registered
 trademark of Gaussian, Inc.
  
 This software contains proprietary and confidential information,
 including trade secrets, belonging to Gaussian, Inc.
  
 This software is provided under written license and may be
 used, copied, transmitted, or stored only in accord with that
 written license.
  
 The following legend is applicable only to US Government
 contracts under FAR:
  
                    RESTRICTED RIGHTS LEGEND
  
 Use, reproduction and disclosure by the US Government is
 subject to restrictions as set forth in subparagraphs (a)
 and (c) of the Commercial Computer Software - Restricted
 Rights clause in FAR 52.227-19.
  
 Gaussian, Inc.
 340 Quinnipiac St., Bldg. 40, Wallingford CT 06492
  
  
 ---------------------------------------------------------------
 Warning -- This program may not be used in any manner that
 competes with the business of Gaussian, Inc. or will provide
 assistance to any competitor of Gaussian, Inc.  The licensee
 of this program is prohibited from giving any competitor of
 Gaussian, Inc. access to this program.  By using this program,
 the user acknowledges that Gaussian, Inc. is engaged in the
 business of creating and licensing software in the field of
 computational chemistry and represents and warrants to the
 licensee that it is not a competitor of Gaussian, Inc. and that
 it will not use this program in any manner prohibited above.
 ---------------------------------------------------------------
  

 Cite this work as:
 Gaussian 16, Revision C.01,
 M. J. Frisch, G. W. Trucks, H. B. Schlegel, G. E. Scuseria, 
 M. A. Robb, J. R. Cheeseman, G. Scalmani, V. Barone, 
 G. A. Petersson, H. Nakatsuji, X. Li, M. Caricato, A. V. Marenich, 
 J. Bloino, B. G. Janesko, R. Gomperts, B. Mennucci, H. P. Hratchian, 
 J. V. Ortiz, A. F. Izmaylov, J. L. Sonnenberg, D. Williams-Young, 
 F. Ding, F. Lipparini, F. Egidi, J. Goings, B. Peng, A. Petrone, 
 T. Henderson, D. Ranasinghe, V. G. Zakrzewski, J. Gao, N. Rega, 
 G. Zheng, W. Liang, M. Hada, M. Ehara, K. Toyota, R. Fukuda, 
 J. Hasegawa, M. Ishida, T. Nakajima, Y. Honda, O. Kitao, H. Nakai, 
 T. Vreven, K. Throssell, J. A. Montgomery, Jr., J. E. Peralta, 
 F. Ogliaro, M. J. Bearpark, J. J. Heyd, E. N. Brothers, K. N. Kudin, 
 V. N. Staroverov, T. A. Keith, R. Kobayashi, J. Normand, 
 K. Raghavachari, A. P. Rendell, J. C. Burant, S. S. Iyengar, 
 J. Tomasi, M. Cossi, J. M. Millam, M. Klene, C. Adamo, R. Cammi, 
 J. W. Ochterski, R. L. Martin, K. Morokuma, O. Farkas, 
 J. B. Foresman, and D. J. Fox, Gaussian, Inc., Wallingford CT, 2019.
 
 ******************************************
 Gaussian 16:  ES64L-G16RevC.01  3-Jul-2019
                31-May-2022 
 ******************************************
 %mem=8gb
 %nproc=4
 Will use up to    4 processors via shared memory.
 %chk=conf-123.chk
 ----------------------------------------------------------------------
 # B3LYP/6-31G* empiricaldispersion=gd3 guess=read geom=check nosymm in
 tegral(ultrafinegrid)
 ----------------------------------------------------------------------
 1/29=2,38=1,172=1/1;
 2/12=2,15=1,40=1/2;
 3/5=1,6=6,7=1,11=2,14=-4,25=1,30=1,74=-5,75=-5,116=-2,124=31/1,2,3;
 4/5=1/1;
 5/5=2,38=6/2;
 6/7=2,8=2,9=2,10=2,28=1/1;
 99/5=1,9=1/99;
 ------------------------------------------------------
 Candidate Structure: Conf:123 Charge calc in gas phase
 ------------------------------------------------------
 Structure from the checkpoint file:  "conf-123.chk"
 Charge =  1 Multiplicity = 1
 Redundant internal coordinates found in file.  (old form).
 N,0,35.6867527575,-30.1189955834,46.8886108328
 C,0,34.510416336,-29.2422330691,46.4927336301
 C,0,34.807228872,-29.0135135404,44.9761244147
 O,0,36.0036901883,-28.9868606475,44.6628870105
 C,0,33.1657734829,-29.8212966804,46.9916639439
 C,0,32.5991521552,-30.8840696493,46.0834610053
 C,0,31.4532799197,-30.6219496677,45.3184283986
 C,0,33.3009834248,-32.0718299826,45.8223167241
 C,0,31.0896753159,-31.4437856479,44.2535464931
 C,0,32.9689458304,-32.8917935454,44.7531848565
 C,0,31.8942708467,-32.5420125366,43.9057829486
 O,0,31.6346176786,-33.2154778963,42.7784854504
 H,0,35.9367489003,-30.0503453271,47.8784931055
 H,0,34.7059050044,-28.2806685088,46.9806476341
 H,0,33.3186047005,-30.174531451,48.0224324607
 H,0,32.4667869632,-28.981927065,47.0733751048
 H,0,30.8504122851,-29.7414681592,45.5378238315
 H,0,34.1081530029,-32.3989104035,46.4811520163
 H,0,30.2207893967,-31.2217078379,43.642635376
 H,0,33.5503176771,-33.7773927048,44.5282163468
 H,0,35.4891733705,-31.0999234912,46.653828678
 H,0,36.4582252542,-29.7918953272,46.2589156303
 N,0,33.800958708,-28.7827212295,44.1295663175
 C,0,34.0458278706,-28.3228774464,42.7530967906
 C,0,34.470791276,-29.4144207064,41.7510229076
 O,0,35.0755092194,-29.0488404289,40.7407020541
 C,0,32.8030141917,-27.5350795916,42.2488767335
 C,0,31.6025149887,-28.4477585323,41.9524645925
 C,0,33.1443534096,-26.664115234,41.032339295
 H,0,32.8500483352,-28.9684972165,44.4250571114
 H,0,34.9022377066,-27.646046421,42.7999952534
 H,0,32.5331995565,-26.8624775013,43.0762812732
 H,0,31.3337745361,-29.0913823354,42.7978209416
 H,0,30.7235155936,-27.8432609243,41.7076570206
 H,0,31.8079083797,-29.1026454939,41.0988318852
 H,0,33.4418180562,-27.2804798772,40.1804331753
 H,0,33.9691948208,-25.9777608379,41.2518205437
 H,0,32.2711853032,-26.0678061562,40.7474437452
 N,0,34.1130125689,-30.7030962355,41.9795993187
 C,0,34.3696868779,-31.7031016846,40.9385081975
 C,0,34.8720951106,-33.0662017876,41.4833850598
 O,0,36.0188990318,-33.4237312068,41.0950602266
 C,0,33.1525692964,-31.8544636301,40.0075697901
 C,0,33.2767041499,-32.9620550389,38.9413657423
 C,0,34.6350035295,-33.093570224,38.2206704191
 N,0,35.2339627939,-31.8017723095,37.8458810803
 C,0,36.4173721982,-31.3212981619,38.2520629469
 N,0,37.1480208984,-31.9335115366,39.1768019862
 N,0,36.9054036712,-30.198013914,37.6571887682
 O,0,34.1019038027,-33.7435745485,42.2115442657
 H,0,32.5220247655,-33.5822411478,42.4571281704
 H,0,38.0869016133,-31.5915662966,39.330288685
 H,0,33.5655110531,-30.959339659,42.7912491119
 H,0,35.1788284893,-31.258561334,40.3759261384
 H,0,32.9972078752,-30.8804033872,39.5253507634
 H,0,32.2620482809,-32.0603572426,40.610703254
 H,0,32.4804544908,-32.8142134678,38.2013023588
 H,0,33.0866849022,-33.9363304395,39.4060064837
 H,0,34.5135929567,-33.6865225526,37.3075980245
 H,0,35.3458048313,-33.6170548482,38.8561622014
 H,0,34.6591957886,-31.1810438538,37.2914223002
 H,0,36.7283077508,-32.5586536177,39.9361779395
 H,0,37.4206220171,-29.552355519,38.2411641906
 H,0,36.3738202609,-29.7627490611,36.9159822934
 Recover connectivity data from disk.
                           ----------------------------
                           !    Current Parameters    !
                           ! (Angstroms and Degrees)  !
 --------------------------                            --------------------------
 ! Name  Definition              Value                                          !
 --------------------------------------------------------------------------------
 ! R1    R(1,2)                  1.5196                                         !
 ! R2    R(1,13)                 1.0233                                         !
 ! R3    R(1,21)                 1.0278                                         !
 ! R4    R(1,22)                 1.0482                                         !
 ! R5    R(2,3)                  1.5622                                         !
 ! R6    R(2,5)                  1.5467                                         !
 ! R7    R(2,14)                 1.0958                                         !
 ! R8    R(3,4)                  1.2371                                         !
 ! R9    R(3,23)                 1.3351                                         !
 ! R10   R(5,6)                  1.5084                                         !
 ! R11   R(5,15)                 1.1003                                         !
 ! R12   R(5,16)                 1.0954                                         !
 ! R13   R(6,7)                  1.4025                                         !
 ! R14   R(6,8)                  1.4041                                         !
 ! R15   R(7,9)                  1.3934                                         !
 ! R16   R(7,17)                 1.0894                                         !
 ! R17   R(8,10)                 1.3877                                         !
 ! R18   R(8,18)                 1.092                                          !
 ! R19   R(9,11)                 1.4051                                         !
 ! R20   R(9,19)                 1.0851                                         !
 ! R21   R(10,11)                1.4126                                         !
 ! R22   R(10,20)                1.083                                          !
 ! R23   R(11,12)                1.3386                                         !
 ! R24   R(23,24)                1.4718                                         !
 ! R25   R(23,30)                1.0129                                         !
 ! R26   R(24,25)                1.5415                                         !
 ! R27   R(24,27)                1.5555                                         !
 ! R28   R(24,31)                1.0926                                         !
 ! R29   R(25,26)                1.2329                                         !
 ! R30   R(25,39)                1.3568                                         !
 ! R31   R(27,28)                1.5369                                         !
 ! R32   R(27,29)                1.5346                                         !
 ! R33   R(27,32)                1.0999                                         !
 ! R34   R(28,33)                1.0959                                         !
 ! R35   R(28,34)                1.0945                                         !
 ! R36   R(28,35)                1.0953                                         !
 ! R37   R(29,36)                1.0928                                         !
 ! R38   R(29,37)                1.0953                                         !
 ! R39   R(29,38)                1.0951                                         !
 ! R40   R(39,40)                1.4662                                         !
 ! R41   R(39,53)                1.012                                          !
 ! R42   R(40,41)                1.5516                                         !
 ! R43   R(40,43)                1.5398                                         !
 ! R44   R(40,54)                1.0811                                         !
 ! R45   R(41,42)                1.2625                                         !
 ! R46   R(41,50)                1.2579                                         !
 ! R47   R(43,44)                1.5424                                         !
 ! R48   R(43,55)                1.0979                                         !
 ! R49   R(43,56)                1.0951                                         !
 ! R50   R(44,45)                1.5433                                         !
 ! R51   R(44,57)                1.0971                                         !
 ! R52   R(44,58)                1.096                                          !
 ! R53   R(45,46)                1.4724                                         !
 ! R54   R(45,59)                1.0955                                         !
 ! R55   R(45,60)                1.0877                                         !
 ! R56   R(46,47)                1.3403                                         !
 ! R57   R(46,61)                1.0115                                         !
 ! R58   R(47,48)                1.3281                                         !
 ! R59   R(47,49)                1.3615                                         !
 ! R60   R(48,52)                1.0109                                         !
 ! R61   R(48,62)                1.0694                                         !
 ! R62   R(49,63)                1.0116                                         !
 ! R63   R(49,64)                1.0107                                         !
 ! R64   R(50,51)                1.607                                          !
 ! A1    A(2,1,13)             113.7301                                         !
 ! A2    A(2,1,21)             110.0191                                         !
 ! A3    A(2,1,22)             103.4853                                         !
 ! A4    A(13,1,21)            109.3885                                         !
 ! A5    A(13,1,22)            112.3584                                         !
 ! A6    A(21,1,22)            107.5831                                         !
 ! A7    A(1,2,3)              100.9705                                         !
 ! A8    A(1,2,5)              111.8966                                         !
 ! A9    A(1,2,14)             104.6067                                         !
 ! A10   A(3,2,5)              122.2182                                         !
 ! A11   A(3,2,14)             105.6572                                         !
 ! A12   A(5,2,14)             109.875                                          !
 ! A13   A(2,3,4)              115.6409                                         !
 ! A14   A(2,3,23)             119.8463                                         !
 ! A15   A(4,3,23)             124.3801                                         !
 ! A16   A(2,5,6)              113.3357                                         !
 ! A17   A(2,5,15)             107.5557                                         !
 ! A18   A(2,5,16)             106.9743                                         !
 ! A19   A(6,5,15)             112.9565                                         !
 ! A20   A(6,5,16)             110.1883                                         !
 ! A21   A(15,5,16)            105.3531                                         !
 ! A22   A(5,6,7)              120.2416                                         !
 ! A23   A(5,6,8)              121.3465                                         !
 ! A24   A(7,6,8)              117.7119                                         !
 ! A25   A(6,7,9)              121.3212                                         !
 ! A26   A(6,7,17)             119.5594                                         !
 ! A27   A(9,7,17)             119.0903                                         !
 ! A28   A(6,8,10)             121.5697                                         !
 ! A29   A(6,8,18)             120.704                                          !
 ! A30   A(10,8,18)            117.6904                                         !
 ! A31   A(7,9,11)             120.0462                                         !
 ! A32   A(7,9,19)             121.2309                                         !
 ! A33   A(11,9,19)            118.6281                                         !
 ! A34   A(8,10,11)            119.8622                                         !
 ! A35   A(8,10,20)            120.983                                          !
 ! A36   A(11,10,20)           119.0961                                         !
 ! A37   A(9,11,10)            118.7311                                         !
 ! A38   A(9,11,12)            119.3792                                         !
 ! A39   A(10,11,12)           121.8844                                         !
 ! A40   A(3,23,24)            121.4418                                         !
 ! A41   A(3,23,30)            119.3978                                         !
 ! A42   A(24,23,30)           119.0989                                         !
 ! A43   A(23,24,25)           115.6326                                         !
 ! A44   A(23,24,27)           109.1766                                         !
 ! A45   A(23,24,31)           106.4884                                         !
 ! A46   A(25,24,27)           111.6035                                         !
 ! A47   A(25,24,31)           104.5053                                         !
 ! A48   A(27,24,31)           109.0537                                         !
 ! A49   A(24,25,26)           117.255                                          !
 ! A50   A(24,25,39)           119.3628                                         !
 ! A51   A(26,25,39)           123.2992                                         !
 ! A52   A(24,27,28)           112.6977                                         !
 ! A53   A(24,27,29)           111.5122                                         !
 ! A54   A(24,27,32)           105.1806                                         !
 ! A55   A(28,27,29)           110.9705                                         !
 ! A56   A(28,27,32)           108.4581                                         !
 ! A57   A(29,27,32)           107.6881                                         !
 ! A58   A(27,28,33)           113.0496                                         !
 ! A59   A(27,28,34)           110.0273                                         !
 ! A60   A(27,28,35)           111.0319                                         !
 ! A61   A(33,28,34)           107.4542                                         !
 ! A62   A(33,28,35)           107.2172                                         !
 ! A63   A(34,28,35)           107.8479                                         !
 ! A64   A(27,29,36)           111.0039                                         !
 ! A65   A(27,29,37)           111.3649                                         !
 ! A66   A(27,29,38)           109.7511                                         !
 ! A67   A(36,29,37)           107.7388                                         !
 ! A68   A(36,29,38)           108.7462                                         !
 ! A69   A(37,29,38)           108.1428                                         !
 ! A70   A(25,39,40)           118.8163                                         !
 ! A71   A(25,39,53)           121.2149                                         !
 ! A72   A(40,39,53)           119.4383                                         !
 ! A73   A(39,40,41)           113.9864                                         !
 ! A74   A(39,40,43)           110.9751                                         !
 ! A75   A(39,40,54)           102.7131                                         !
 ! A76   A(41,40,43)           112.4522                                         !
 ! A77   A(41,40,54)           107.5558                                         !
 ! A78   A(43,40,54)           108.5059                                         !
 ! A79   A(40,41,42)           115.7807                                         !
 ! A80   A(40,41,50)           118.5627                                         !
 ! A81   A(42,41,50)           125.5746                                         !
 ! A82   A(40,43,44)           115.1448                                         !
 ! A83   A(40,43,55)           106.8687                                         !
 ! A84   A(40,43,56)           109.1649                                         !
 ! A85   A(44,43,55)           110.1733                                         !
 ! A86   A(44,43,56)           108.1293                                         !
 ! A87   A(55,43,56)           107.0756                                         !
 ! A88   A(43,44,45)           117.0552                                         !
 ! A89   A(43,44,57)           108.1274                                         !
 ! A90   A(43,44,58)           109.3499                                         !
 ! A91   A(45,44,57)           109.5887                                         !
 ! A92   A(45,44,58)           105.9513                                         !
 ! A93   A(57,44,58)           106.2568                                         !
 ! A94   A(44,45,46)           113.712                                          !
 ! A95   A(44,45,59)           109.7442                                         !
 ! A96   A(44,45,60)           110.0801                                         !
 ! A97   A(46,45,59)           107.9273                                         !
 ! A98   A(46,45,60)           107.7656                                         !
 ! A99   A(59,45,60)           107.3912                                         !
 ! A100  A(45,46,47)           126.6241                                         !
 ! A101  A(45,46,61)           116.5377                                         !
 ! A102  A(47,46,61)           116.6071                                         !
 ! A103  A(46,47,48)           122.1092                                         !
 ! A104  A(46,47,49)           118.6748                                         !
 ! A105  A(48,47,49)           119.1653                                         !
 ! A106  A(47,48,52)           117.4347                                         !
 ! A107  A(47,48,62)           123.2293                                         !
 ! A108  A(52,48,62)           117.0278                                         !
 ! A109  A(47,49,63)           117.187                                          !
 ! A110  A(47,49,64)           119.157                                          !
 ! A111  A(63,49,64)           114.6059                                         !
 ! A112  A(41,50,51)           129.5222                                         !
 ! D1    D(13,1,2,3)           153.7889                                         !
 ! D2    D(13,1,2,5)           -74.6663                                         !
 ! D3    D(13,1,2,14)           44.2405                                         !
 ! D4    D(21,1,2,3)           -83.1099                                         !
 ! D5    D(21,1,2,5)            48.4349                                         !
 ! D6    D(21,1,2,14)          167.3416                                         !
 ! D7    D(22,1,2,3)            31.5988                                         !
 ! D8    D(22,1,2,5)           163.1436                                         !
 ! D9    D(22,1,2,14)          -77.9497                                         !
 ! D10   D(1,2,3,4)            -31.7444                                         !
 ! D11   D(1,2,3,23)           152.2615                                         !
 ! D12   D(5,2,3,4)           -156.5761                                         !
 ! D13   D(5,2,3,23)            27.4297                                         !
 ! D14   D(14,2,3,4)            76.9856                                         !
 ! D15   D(14,2,3,23)          -99.0085                                         !
 ! D16   D(1,2,5,6)            -82.8123                                         !
 ! D17   D(1,2,5,15)            42.7799                                         !
 ! D18   D(1,2,5,16)           155.5428                                         !
 ! D19   D(3,2,5,6)             36.9045                                         !
 ! D20   D(3,2,5,15)           162.4968                                         !
 ! D21   D(3,2,5,16)           -84.7403                                         !
 ! D22   D(14,2,5,6)           161.4468                                         !
 ! D23   D(14,2,5,15)          -72.961                                          !
 ! D24   D(14,2,5,16)           39.8019                                         !
 ! D25   D(2,3,23,24)          168.715                                          !
 ! D26   D(2,3,23,30)          -14.1639                                         !
 ! D27   D(4,3,23,24)           -6.9085                                         !
 ! D28   D(4,3,23,30)          170.2126                                         !
 ! D29   D(2,5,6,7)           -109.5048                                         !
 ! D30   D(2,5,6,8)             60.6884                                         !
 ! D31   D(15,5,6,7)           127.846                                          !
 ! D32   D(15,5,6,8)           -61.9609                                         !
 ! D33   D(16,5,6,7)            10.3227                                         !
 ! D34   D(16,5,6,8)          -179.4842                                         !
 ! D35   D(5,6,7,9)            164.7083                                         !
 ! D36   D(5,6,7,17)           -13.3131                                         !
 ! D37   D(8,6,7,9)             -5.8343                                         !
 ! D38   D(8,6,7,17)           176.1442                                         !
 ! D39   D(5,6,8,10)          -163.5117                                         !
 ! D40   D(5,6,8,18)            18.7163                                         !
 ! D41   D(7,6,8,10)             6.9206                                         !
 ! D42   D(7,6,8,18)          -170.8514                                         !
 ! D43   D(6,7,9,11)            -1.5948                                         !
 ! D44   D(6,7,9,19)          -178.0054                                         !
 ! D45   D(17,7,9,11)          176.4357                                         !
 ! D46   D(17,7,9,19)            0.0251                                         !
 ! D47   D(6,8,10,11)           -0.5617                                         !
 ! D48   D(6,8,10,20)          176.6277                                         !
 ! D49   D(18,8,10,11)         177.2749                                         !
 ! D50   D(18,8,10,20)          -5.5357                                         !
 ! D51   D(7,9,11,10)            8.0223                                         !
 ! D52   D(7,9,11,12)         -171.1559                                         !
 ! D53   D(19,9,11,10)        -175.4743                                         !
 ! D54   D(19,9,11,12)           5.3475                                         !
 ! D55   D(8,10,11,9)           -6.9643                                         !
 ! D56   D(8,10,11,12)         172.1923                                         !
 ! D57   D(20,10,11,9)         175.7932                                         !
 ! D58   D(20,10,11,12)         -5.0501                                         !
 ! D59   D(3,23,24,25)          79.2364                                         !
 ! D60   D(3,23,24,27)        -153.9486                                         !
 ! D61   D(3,23,24,31)         -36.3421                                         !
 ! D62   D(30,23,24,25)        -97.8931                                         !
 ! D63   D(30,23,24,27)         28.9219                                         !
 ! D64   D(30,23,24,31)        146.5284                                         !
 ! D65   D(23,24,25,26)       -157.8878                                         !
 ! D66   D(23,24,25,39)         25.3152                                         !
 ! D67   D(27,24,25,26)         76.5299                                         !
 ! D68   D(27,24,25,39)       -100.2671                                         !
 ! D69   D(31,24,25,26)        -41.1888                                         !
 ! D70   D(31,24,25,39)        142.0142                                         !
 ! D71   D(23,24,27,28)        -72.51                                           !
 ! D72   D(23,24,27,29)        161.9101                                         !
 ! D73   D(23,24,27,32)         45.465                                          !
 ! D74   D(25,24,27,28)         56.5651                                         !
 ! D75   D(25,24,27,29)        -69.0148                                         !
 ! D76   D(25,24,27,32)        174.5401                                         !
 ! D77   D(31,24,27,28)        171.5119                                         !
 ! D78   D(31,24,27,29)         45.932                                          !
 ! D79   D(31,24,27,32)        -70.5131                                         !
 ! D80   D(24,25,39,40)        172.1497                                         !
 ! D81   D(24,25,39,53)          0.551                                          !
 ! D82   D(26,25,39,40)         -4.4433                                         !
 ! D83   D(26,25,39,53)       -176.0419                                         !
 ! D84   D(24,27,28,33)         53.694                                          !
 ! D85   D(24,27,28,34)        173.8294                                         !
 ! D86   D(24,27,28,35)        -66.8527                                         !
 ! D87   D(29,27,28,33)        179.5667                                         !
 ! D88   D(29,27,28,34)        -60.2979                                         !
 ! D89   D(29,27,28,35)         59.02                                           !
 ! D90   D(32,27,28,33)        -62.3364                                         !
 ! D91   D(32,27,28,34)         57.799                                          !
 ! D92   D(32,27,28,35)        177.1169                                         !
 ! D93   D(24,27,29,36)         63.9149                                         !
 ! D94   D(24,27,29,37)        -56.1274                                         !
 ! D95   D(24,27,29,38)       -175.8449                                         !
 ! D96   D(28,27,29,36)        -62.6156                                         !
 ! D97   D(28,27,29,37)        177.3421                                         !
 ! D98   D(28,27,29,38)         57.6246                                         !
 ! D99   D(32,27,29,36)        178.8214                                         !
 ! D100  D(32,27,29,37)         58.7791                                         !
 ! D101  D(32,27,29,38)        -60.9384                                         !
 ! D102  D(25,39,40,41)        139.8917                                         !
 ! D103  D(25,39,40,43)        -91.9197                                         !
 ! D104  D(25,39,40,54)         23.8629                                         !
 ! D105  D(53,39,40,41)        -48.3576                                         !
 ! D106  D(53,39,40,43)         79.8311                                         !
 ! D107  D(53,39,40,54)       -164.3863                                         !
 ! D108  D(39,40,41,42)       -118.5969                                         !
 ! D109  D(39,40,41,50)         64.5118                                         !
 ! D110  D(43,40,41,42)        113.9725                                         !
 ! D111  D(43,40,41,50)        -62.9187                                         !
 ! D112  D(54,40,41,42)         -5.4304                                         !
 ! D113  D(54,40,41,50)        177.6783                                         !
 ! D114  D(39,40,43,44)       -175.4597                                         !
 ! D115  D(39,40,43,55)         61.8279                                         !
 ! D116  D(39,40,43,56)        -53.654                                          !
 ! D117  D(41,40,43,44)        -46.4466                                         !
 ! D118  D(41,40,43,55)       -169.159                                          !
 ! D119  D(41,40,43,56)         75.3591                                         !
 ! D120  D(54,40,43,44)         72.4013                                         !
 ! D121  D(54,40,43,55)        -50.3111                                         !
 ! D122  D(54,40,43,56)       -165.793                                          !
 ! D123  D(40,41,50,51)         14.0789                                         !
 ! D124  D(42,41,50,51)       -162.4791                                         !
 ! D125  D(40,43,44,45)        -42.0896                                         !
 ! D126  D(40,43,44,57)       -166.376                                          !
 ! D127  D(40,43,44,58)         78.3363                                         !
 ! D128  D(55,43,44,45)         78.8384                                         !
 ! D129  D(55,43,44,57)        -45.448                                          !
 ! D130  D(55,43,44,58)       -160.7358                                         !
 ! D131  D(56,43,44,45)       -164.4528                                         !
 ! D132  D(56,43,44,57)         71.2609                                         !
 ! D133  D(56,43,44,58)        -44.0269                                         !
 ! D134  D(43,44,45,46)        -42.1796                                         !
 ! D135  D(43,44,45,59)       -163.1661                                         !
 ! D136  D(43,44,45,60)         78.8436                                         !
 ! D137  D(57,44,45,46)         81.3644                                         !
 ! D138  D(57,44,45,59)        -39.6221                                         !
 ! D139  D(57,44,45,60)       -157.6124                                         !
 ! D140  D(58,44,45,46)       -164.3834                                         !
 ! D141  D(58,44,45,59)         74.63                                           !
 ! D142  D(58,44,45,60)        -43.3603                                         !
 ! D143  D(44,45,46,47)        119.7982                                         !
 ! D144  D(44,45,46,61)        -54.461                                          !
 ! D145  D(59,45,46,47)       -118.2035                                         !
 ! D146  D(59,45,46,61)         67.5373                                         !
 ! D147  D(60,45,46,47)         -2.5115                                         !
 ! D148  D(60,45,46,61)       -176.7706                                         !
 ! D149  D(45,46,47,48)         -6.8378                                         !
 ! D150  D(45,46,47,49)        170.5488                                         !
 ! D151  D(61,46,47,48)        167.4178                                         !
 ! D152  D(61,46,47,49)        -15.1956                                         !
 ! D153  D(46,47,48,52)        170.9485                                         !
 ! D154  D(46,47,48,62)        -26.8437                                         !
 ! D155  D(49,47,48,52)         -6.4257                                         !
 ! D156  D(49,47,48,62)        155.7821                                         !
 ! D157  D(46,47,49,63)        144.3569                                         !
 ! D158  D(46,47,49,64)         -0.9857                                         !
 ! D159  D(48,47,49,63)        -38.1781                                         !
 ! D160  D(48,47,49,64)        176.4792                                         !
 --------------------------------------------------------------------------------
 Symmetry turned off by external request.
 Stoichiometry    C20H33N6O5(1+)
 Framework group  C1[X(C20H33N6O5)]
 Deg. of freedom   186
 Full point group                 C1      NOp   1
                          Input orientation:                          
 ---------------------------------------------------------------------
 Center     Atomic      Atomic             Coordinates (Angstroms)
 Number     Number       Type             X           Y           Z
 ---------------------------------------------------------------------
      1          7           0       35.686753  -30.118996   46.888611
      2          6           0       34.510416  -29.242233   46.492734
      3          6           0       34.807229  -29.013514   44.976124
      4          8           0       36.003690  -28.986861   44.662887
      5          6           0       33.165773  -29.821297   46.991664
      6          6           0       32.599152  -30.884070   46.083461
      7          6           0       31.453280  -30.621950   45.318428
      8          6           0       33.300983  -32.071830   45.822317
      9          6           0       31.089675  -31.443786   44.253546
     10          6           0       32.968946  -32.891794   44.753185
     11          6           0       31.894271  -32.542013   43.905783
     12          8           0       31.634618  -33.215478   42.778485
     13          1           0       35.936749  -30.050345   47.878493
     14          1           0       34.705905  -28.280669   46.980648
     15          1           0       33.318605  -30.174531   48.022432
     16          1           0       32.466787  -28.981927   47.073375
     17          1           0       30.850412  -29.741468   45.537824
     18          1           0       34.108153  -32.398910   46.481152
     19          1           0       30.220789  -31.221708   43.642635
     20          1           0       33.550318  -33.777393   44.528216
     21          1           0       35.489173  -31.099923   46.653829
     22          1           0       36.458225  -29.791895   46.258916
     23          7           0       33.800959  -28.782721   44.129566
     24          6           0       34.045828  -28.322877   42.753097
     25          6           0       34.470791  -29.414421   41.751023
     26          8           0       35.075509  -29.048840   40.740702
     27          6           0       32.803014  -27.535080   42.248877
     28          6           0       31.602515  -28.447759   41.952465
     29          6           0       33.144353  -26.664115   41.032339
     30          1           0       32.850048  -28.968497   44.425057
     31          1           0       34.902238  -27.646046   42.799995
     32          1           0       32.533200  -26.862478   43.076281
     33          1           0       31.333775  -29.091382   42.797821
     34          1           0       30.723516  -27.843261   41.707657
     35          1           0       31.807908  -29.102645   41.098832
     36          1           0       33.441818  -27.280480   40.180433
     37          1           0       33.969195  -25.977761   41.251821
     38          1           0       32.271185  -26.067806   40.747444
     39          7           0       34.113013  -30.703096   41.979599
     40          6           0       34.369687  -31.703102   40.938508
     41          6           0       34.872095  -33.066202   41.483385
     42          8           0       36.018899  -33.423731   41.095060
     43          6           0       33.152569  -31.854464   40.007570
     44          6           0       33.276704  -32.962055   38.941366
     45          6           0       34.635004  -33.093570   38.220670
     46          7           0       35.233963  -31.801772   37.845881
     47          6           0       36.417372  -31.321298   38.252063
     48          7           0       37.148021  -31.933512   39.176802
     49          7           0       36.905404  -30.198014   37.657189
     50          8           0       34.101904  -33.743575   42.211544
     51          1           0       32.522025  -33.582241   42.457128
     52          1           0       38.086902  -31.591566   39.330289
     53          1           0       33.565511  -30.959340   42.791249
     54          1           0       35.178828  -31.258561   40.375926
     55          1           0       32.997208  -30.880403   39.525351
     56          1           0       32.262048  -32.060357   40.610703
     57          1           0       32.480454  -32.814213   38.201302
     58          1           0       33.086685  -33.936330   39.406006
     59          1           0       34.513593  -33.686523   37.307598
     60          1           0       35.345805  -33.617055   38.856162
     61          1           0       34.659196  -31.181044   37.291422
     62          1           0       36.728308  -32.558654   39.936178
     63          1           0       37.420622  -29.552356   38.241164
     64          1           0       36.373820  -29.762749   36.915982
 ---------------------------------------------------------------------
 Rotational constants (GHZ):           0.2083733           0.1090826           0.0964700
 Standard basis: 6-31G(d) (6D, 7F)
   531 basis functions,  1000 primitive gaussians,   531 cartesian basis functions
   117 alpha electrons      117 beta electrons
       nuclear repulsion energy      3530.8530468107 Hartrees.
 NAtoms=   64 NActive=   64 NUniq=   64 SFac= 1.00D+00 NAtFMM=   60 NAOKFM=T Big=T
 Integral buffers will be    131072 words long.
 Raffenetti 2 integral format.
 Two-electron integral symmetry is turned off.
 Nuclear repulsion after empirical dispersion term =     3530.7594938372 Hartrees.
 One-electron integrals computed using PRISM.
 NBasis=   531 RedAO= T EigKep=  4.54D-04  NBF=   531
 NBsUse=   531 1.00D-06 EigRej= -1.00D+00 NBFU=   531
 Initial guess from the checkpoint file:  "conf-123.chk"
 B after Tr=     0.000000    0.000000    0.000000
         Rot=    1.000000    0.000000    0.000000    0.000000 Ang=   0.00 deg.
 Requested convergence on RMS density matrix=1.00D-08 within 128 cycles.
 Requested convergence on MAX density matrix=1.00D-06.
 Requested convergence on             energy=1.00D-06.
 No special actions if energy rises.
 SCF Done:  E(RB3LYP) =  -1486.55611973     A.U. after    1 cycles
            NFock=  1  Conv=0.96D-08     -V/T= 2.0094

 **********************************************************************

            Population analysis using the SCF Density.

 **********************************************************************

 Alpha  occ. eigenvalues --  -19.26380 -19.23230 -19.20354 -19.17280 -19.17236
 Alpha  occ. eigenvalues --  -14.60381 -14.49855 -14.49005 -14.48378 -14.45900
 Alpha  occ. eigenvalues --  -14.45040 -10.44302 -10.43667 -10.41178 -10.37958
 Alpha  occ. eigenvalues --  -10.35207 -10.34230 -10.34050 -10.33878 -10.32021
 Alpha  occ. eigenvalues --  -10.30639 -10.30388 -10.29875 -10.29822 -10.29625
 Alpha  occ. eigenvalues --  -10.28498 -10.28305 -10.27607 -10.26962 -10.26845
 Alpha  occ. eigenvalues --  -10.25787  -1.19172  -1.14270  -1.12814  -1.12587
 Alpha  occ. eigenvalues --   -1.12295  -1.10286  -1.06240  -1.02529  -1.01932
 Alpha  occ. eigenvalues --   -1.00701  -1.00005  -0.96746  -0.92694  -0.90349
 Alpha  occ. eigenvalues --   -0.88301  -0.85446  -0.85202  -0.83272  -0.81137
 Alpha  occ. eigenvalues --   -0.78960  -0.77612  -0.76608  -0.74905  -0.74285
 Alpha  occ. eigenvalues --   -0.73653  -0.72044  -0.71413  -0.70135  -0.69001
 Alpha  occ. eigenvalues --   -0.68714  -0.67938  -0.67692  -0.65946  -0.65724
 Alpha  occ. eigenvalues --   -0.63712  -0.63150  -0.61892  -0.61453  -0.60423
 Alpha  occ. eigenvalues --   -0.59894  -0.58618  -0.57979  -0.57095  -0.56953
 Alpha  occ. eigenvalues --   -0.56577  -0.56218  -0.55329  -0.54683  -0.54254
 Alpha  occ. eigenvalues --   -0.53652  -0.53227  -0.52523  -0.52176  -0.51969
 Alpha  occ. eigenvalues --   -0.51573  -0.51063  -0.50358  -0.49929  -0.49229
 Alpha  occ. eigenvalues --   -0.48812  -0.48223  -0.47793  -0.47202  -0.46638
 Alpha  occ. eigenvalues --   -0.46513  -0.46019  -0.45413  -0.44413  -0.43859
 Alpha  occ. eigenvalues --   -0.43255  -0.42911  -0.42732  -0.42518  -0.41918
 Alpha  occ. eigenvalues --   -0.41077  -0.40310  -0.39562  -0.38902  -0.37164
 Alpha  occ. eigenvalues --   -0.35898  -0.35023  -0.33991  -0.33036  -0.31543
 Alpha  occ. eigenvalues --   -0.31024  -0.30719
 Alpha virt. eigenvalues --   -0.13722  -0.10981  -0.10401  -0.09637  -0.09127
 Alpha virt. eigenvalues --   -0.06954  -0.06041  -0.05434  -0.04269  -0.03421
 Alpha virt. eigenvalues --   -0.03115  -0.01147  -0.00988  -0.00446  -0.00130
 Alpha virt. eigenvalues --    0.00472   0.01610   0.02281   0.02654   0.02879
 Alpha virt. eigenvalues --    0.03210   0.03601   0.03887   0.04586   0.05417
 Alpha virt. eigenvalues --    0.05698   0.06242   0.06595   0.06995   0.07707
 Alpha virt. eigenvalues --    0.07871   0.07929   0.08320   0.08850   0.09212
 Alpha virt. eigenvalues --    0.09553   0.09858   0.10960   0.11396   0.11834
 Alpha virt. eigenvalues --    0.12195   0.12649   0.13086   0.13282   0.13847
 Alpha virt. eigenvalues --    0.14235   0.14673   0.14769   0.15626   0.16551
 Alpha virt. eigenvalues --    0.16648   0.17817   0.18210   0.19215   0.19955
 Alpha virt. eigenvalues --    0.20389   0.21765   0.22033   0.22817   0.23868
 Alpha virt. eigenvalues --    0.25276   0.26059   0.26534   0.27084   0.29691
 Alpha virt. eigenvalues --    0.30038   0.32499   0.34830   0.35262   0.36844
 Alpha virt. eigenvalues --    0.37757   0.38428   0.38914   0.39982   0.40445
 Alpha virt. eigenvalues --    0.40781   0.41254   0.41712   0.42225   0.42734
 Alpha virt. eigenvalues --    0.43443   0.44060   0.44579   0.45204   0.46168
 Alpha virt. eigenvalues --    0.46512   0.47103   0.47573   0.47887   0.48682
 Alpha virt. eigenvalues --    0.49539   0.49681   0.50201   0.50603   0.51176
 Alpha virt. eigenvalues --    0.51406   0.51692   0.52354   0.52602   0.52926
 Alpha virt. eigenvalues --    0.53994   0.54712   0.55123   0.55572   0.55910
 Alpha virt. eigenvalues --    0.56449   0.56636   0.56975   0.58001   0.58341
 Alpha virt. eigenvalues --    0.58800   0.59365   0.59719   0.60157   0.61488
 Alpha virt. eigenvalues --    0.61781   0.62101   0.63003   0.63347   0.64076
 Alpha virt. eigenvalues --    0.65219   0.66444   0.66865   0.67359   0.67547
 Alpha virt. eigenvalues --    0.68733   0.68974   0.69265   0.69532   0.70619
 Alpha virt. eigenvalues --    0.70933   0.72077   0.72468   0.72845   0.73081
 Alpha virt. eigenvalues --    0.73857   0.74187   0.74933   0.75078   0.75549
 Alpha virt. eigenvalues --    0.75884   0.76525   0.76976   0.77648   0.77699
 Alpha virt. eigenvalues --    0.78161   0.78391   0.78919   0.79244   0.79738
 Alpha virt. eigenvalues --    0.80560   0.80858   0.81510   0.82178   0.82614
 Alpha virt. eigenvalues --    0.82833   0.83445   0.83783   0.84477   0.84748
 Alpha virt. eigenvalues --    0.85096   0.85541   0.86054   0.86716   0.86883
 Alpha virt. eigenvalues --    0.87537   0.88306   0.88703   0.89775   0.89844
 Alpha virt. eigenvalues --    0.90673   0.92308   0.92732   0.93645   0.93975
 Alpha virt. eigenvalues --    0.96221   0.96893   0.97865   0.98660   0.98770
 Alpha virt. eigenvalues --    1.00202   1.00816   1.01169   1.01508   1.02694
 Alpha virt. eigenvalues --    1.03965   1.04360   1.05512   1.06461   1.07255
 Alpha virt. eigenvalues --    1.07883   1.08992   1.09725   1.11995   1.13140
 Alpha virt. eigenvalues --    1.13863   1.14379   1.15185   1.17128   1.17395
 Alpha virt. eigenvalues --    1.18059   1.18154   1.18530   1.19821   1.20989
 Alpha virt. eigenvalues --    1.22003   1.23669   1.24840   1.27279   1.27579
 Alpha virt. eigenvalues --    1.28834   1.30883   1.31929   1.32360   1.33316
 Alpha virt. eigenvalues --    1.33523   1.35409   1.35498   1.36315   1.37069
 Alpha virt. eigenvalues --    1.38578   1.39476   1.39938   1.40402   1.41053
 Alpha virt. eigenvalues --    1.41378   1.42298   1.43364   1.44546   1.44982
 Alpha virt. eigenvalues --    1.46378   1.47727   1.48886   1.49414   1.51219
 Alpha virt. eigenvalues --    1.52959   1.53021   1.54978   1.55863   1.56121
 Alpha virt. eigenvalues --    1.59159   1.61108   1.61275   1.61787   1.62743
 Alpha virt. eigenvalues --    1.63091   1.63903   1.64595   1.65323   1.66206
 Alpha virt. eigenvalues --    1.67484   1.68641   1.69290   1.69391   1.70110
 Alpha virt. eigenvalues --    1.70907   1.71994   1.72831   1.73626   1.73837
 Alpha virt. eigenvalues --    1.74544   1.75067   1.75709   1.76571   1.77220
 Alpha virt. eigenvalues --    1.78135   1.78828   1.79836   1.80755   1.81210
 Alpha virt. eigenvalues --    1.81683   1.82544   1.82954   1.83291   1.83823
 Alpha virt. eigenvalues --    1.84311   1.85776   1.86006   1.86484   1.87412
 Alpha virt. eigenvalues --    1.88509   1.88789   1.89258   1.89657   1.90789
 Alpha virt. eigenvalues --    1.92311   1.93011   1.93387   1.93744   1.95155
 Alpha virt. eigenvalues --    1.95430   1.97743   1.97924   1.98692   1.99174
 Alpha virt. eigenvalues --    1.99835   2.00850   2.01132   2.01184   2.02292
 Alpha virt. eigenvalues --    2.03255   2.03829   2.05391   2.06517   2.07565
 Alpha virt. eigenvalues --    2.08682   2.10717   2.11068   2.12541   2.13240
 Alpha virt. eigenvalues --    2.14414   2.15734   2.16556   2.17279   2.18066
 Alpha virt. eigenvalues --    2.18197   2.19186   2.19810   2.21388   2.21727
 Alpha virt. eigenvalues --    2.22095   2.22838   2.23811   2.26151   2.27088
 Alpha virt. eigenvalues --    2.28034   2.29384   2.30502   2.30748   2.31171
 Alpha virt. eigenvalues --    2.31983   2.34237   2.34825   2.35667   2.35953
 Alpha virt. eigenvalues --    2.39642   2.40362   2.40702   2.42285   2.42969
 Alpha virt. eigenvalues --    2.44324   2.45849   2.46169   2.46652   2.47031
 Alpha virt. eigenvalues --    2.49023   2.50299   2.51414   2.51953   2.53210
 Alpha virt. eigenvalues --    2.54239   2.55682   2.57629   2.57799   2.59453
 Alpha virt. eigenvalues --    2.60767   2.61026   2.62591   2.63353   2.64631
 Alpha virt. eigenvalues --    2.64738   2.65721   2.69008   2.70664   2.71482
 Alpha virt. eigenvalues --    2.75050   2.76483   2.77056   2.80041   2.81536
 Alpha virt. eigenvalues --    2.87169   2.89802   2.90157   2.90740   2.92151
 Alpha virt. eigenvalues --    2.95072   2.97872   2.99217   3.03132   3.03790
 Alpha virt. eigenvalues --    3.06834   3.09754   3.30463   3.65257   3.69002
 Alpha virt. eigenvalues --    3.82291   3.87219   3.92285   3.96262   3.97370
 Alpha virt. eigenvalues --    4.00481   4.02968   4.05968   4.06868   4.08959
 Alpha virt. eigenvalues --    4.10713   4.15231   4.18637   4.20908   4.21878
 Alpha virt. eigenvalues --    4.24039   4.24617   4.27576   4.30905   4.33064
 Alpha virt. eigenvalues --    4.33684   4.40749   4.44579   4.47200   4.48146
 Alpha virt. eigenvalues --    4.53520   4.61793   4.66115   4.67535
          Condensed to atoms (all electrons):
 Mulliken charges:
               1
     1  N   -0.741520
     2  C   -0.122831
     3  C    0.659563
     4  O   -0.532054
     5  C   -0.403241
     6  C    0.184566
     7  C   -0.250973
     8  C   -0.237908
     9  C   -0.152689
    10  C   -0.158610
    11  C    0.328954
    12  O   -0.664260
    13  H    0.413246
    14  H    0.230318
    15  H    0.181391
    16  H    0.196278
    17  H    0.148674
    18  H    0.119243
    19  H    0.167251
    20  H    0.196168
    21  H    0.408465
    22  H    0.432621
    23  N   -0.635911
    24  C   -0.035577
    25  C    0.637342
    26  O   -0.549934
    27  C   -0.113173
    28  C   -0.482069
    29  C   -0.445369
    30  H    0.365764
    31  H    0.197559
    32  H    0.140878
    33  H    0.136312
    34  H    0.170830
    35  H    0.171814
    36  H    0.172933
    37  H    0.153357
    38  H    0.156453
    39  N   -0.627837
    40  C   -0.064733
    41  C    0.613333
    42  O   -0.576471
    43  C   -0.280267
    44  C   -0.303366
    45  C   -0.176121
    46  N   -0.583297
    47  C    0.771271
    48  N   -0.770780
    49  N   -0.754767
    50  O   -0.593655
    51  H    0.460333
    52  H    0.355894
    53  H    0.347710
    54  H    0.161728
    55  H    0.135200
    56  H    0.175379
    57  H    0.152911
    58  H    0.189860
    59  H    0.183448
    60  H    0.218864
    61  H    0.347927
    62  H    0.439650
    63  H    0.374205
    64  H    0.359727
 Sum of Mulliken charges =   1.00000
 Mulliken charges with hydrogens summed into heavy atoms:
               1
     1  N    0.512811
     2  C    0.107487
     3  C    0.659563
     4  O   -0.532054
     5  C   -0.025573
     6  C    0.184566
     7  C   -0.102299
     8  C   -0.118665
     9  C    0.014561
    10  C    0.037558
    11  C    0.328954
    12  O   -0.203927
    23  N   -0.270147
    24  C    0.161981
    25  C    0.637342
    26  O   -0.549934
    27  C    0.027706
    28  C   -0.003113
    29  C    0.037374
    39  N   -0.280127
    40  C    0.096995
    41  C    0.613333
    42  O   -0.576471
    43  C    0.030311
    44  C    0.039406
    45  C    0.226191
    46  N   -0.235370
    47  C    0.771271
    48  N    0.024764
    49  N   -0.020836
    50  O   -0.593655
 Electronic spatial extent (au):  <R**2>=        3271613.0694
 Charge=              1.0000 electrons
 Dipole moment (field-independent basis, Debye):
    X=            167.9804    Y=           -139.7948    Z=            208.8290  Tot=            302.2739
 Quadrupole moment (field-independent basis, Debye-Ang):
   XX=           5710.6120   YY=           3872.4549   ZZ=           9030.5856
   XY=          -4897.7410   XZ=           7300.5811   YZ=          -6071.5251
 Traceless Quadrupole moment (field-independent basis, Debye-Ang):
   XX=           -493.9388   YY=          -2332.0959   ZZ=           2826.0347
   XY=          -4897.7410   XZ=           7300.5811   YZ=          -6071.5251
 Octapole moment (field-independent basis, Debye-Ang**2):
  XXX=         188797.8823  YYY=        -100255.5131  ZZZ=         388652.4585  XYY=         136124.8123
  XXY=        -166491.9448  XXZ=         248253.9886  XZZ=         315829.6844  YZZ=        -262156.9851
  YYZ=         168178.3902  XYZ=        -212665.5438
 Hexadecapole moment (field-independent basis, Debye-Ang**3):
 XXXX=        6055479.4102 YYYY=        2321464.9835 ZZZZ=       16649505.0234 XXXY=       -5493900.7433
 XXXZ=        8215751.0381 YYYX=       -3545435.6047 YYYZ=       -4360461.5855 ZZZX=       13608757.0708
 ZZZY=      -11260558.7626 XXYY=        4624984.7571 XXZZ=       10747472.6167 YYZZ=        7253087.1582
 XXYZ=       -7232424.8652 YYXZ=        5911356.8200 ZZXY=       -9187616.3747
 N-N= 3.530759493837D+03 E-N=-1.049954421166D+04  KE= 1.472682716121D+03
 Unable to Open any file for archive entry.
 1\1\GINC-LAC-257\SP\RB3LYP\6-31G(d)\C20H33N6O5(1+)\KENGMITH\31-May-202
 2\0\\# B3LYP/6-31G* empiricaldispersion=gd3 guess=read geom=check nosy
 mm integral(ultrafinegrid)\\Candidate Structure: Conf:123 Charge calc 
 in gas phase\\1,1\N,0,35.6867527575,-30.1189955834,46.8886108328\C,0,3
 4.510416336,-29.2422330691,46.4927336301\C,0,34.807228872,-29.01351354
 04,44.9761244147\O,0,36.0036901883,-28.9868606475,44.6628870105\C,0,33
 .1657734829,-29.8212966804,46.9916639439\C,0,32.5991521552,-30.8840696
 493,46.0834610053\C,0,31.4532799197,-30.6219496677,45.3184283986\C,0,3
 3.3009834248,-32.0718299826,45.8223167241\C,0,31.0896753159,-31.443785
 6479,44.2535464931\C,0,32.9689458304,-32.8917935454,44.7531848565\C,0,
 31.8942708467,-32.5420125366,43.9057829486\O,0,31.6346176786,-33.21547
 78963,42.7784854504\H,0,35.9367489003,-30.0503453271,47.8784931055\H,0
 ,34.7059050044,-28.2806685088,46.9806476341\H,0,33.3186047005,-30.1745
 31451,48.0224324607\H,0,32.4667869632,-28.981927065,47.0733751048\H,0,
 30.8504122851,-29.7414681592,45.5378238315\H,0,34.1081530029,-32.39891
 04035,46.4811520163\H,0,30.2207893967,-31.2217078379,43.642635376\H,0,
 33.5503176771,-33.7773927048,44.5282163468\H,0,35.4891733705,-31.09992
 34912,46.653828678\H,0,36.4582252542,-29.7918953272,46.2589156303\N,0,
 33.800958708,-28.7827212295,44.1295663175\C,0,34.0458278706,-28.322877
 4464,42.7530967906\C,0,34.470791276,-29.4144207064,41.7510229076\O,0,3
 5.0755092194,-29.0488404289,40.7407020541\C,0,32.8030141917,-27.535079
 5916,42.2488767335\C,0,31.6025149887,-28.4477585323,41.9524645925\C,0,
 33.1443534096,-26.664115234,41.032339295\H,0,32.8500483352,-28.9684972
 165,44.4250571114\H,0,34.9022377066,-27.646046421,42.7999952534\H,0,32
 .5331995565,-26.8624775013,43.0762812732\H,0,31.3337745361,-29.0913823
 354,42.7978209416\H,0,30.7235155936,-27.8432609243,41.7076570206\H,0,3
 1.8079083797,-29.1026454939,41.0988318852\H,0,33.4418180562,-27.280479
 8772,40.1804331753\H,0,33.9691948208,-25.9777608379,41.2518205437\H,0,
 32.2711853032,-26.0678061562,40.7474437452\N,0,34.1130125689,-30.70309
 62355,41.9795993187\C,0,34.3696868779,-31.7031016846,40.9385081975\C,0
 ,34.8720951106,-33.0662017876,41.4833850598\O,0,36.0188990318,-33.4237
 312068,41.0950602266\C,0,33.1525692964,-31.8544636301,40.0075697901\C,
 0,33.2767041499,-32.9620550389,38.9413657423\C,0,34.6350035295,-33.093
 570224,38.2206704191\N,0,35.2339627939,-31.8017723095,37.8458810803\C,
 0,36.4173721982,-31.3212981619,38.2520629469\N,0,37.1480208984,-31.933
 5115366,39.1768019862\N,0,36.9054036712,-30.198013914,37.6571887682\O,
 0,34.1019038027,-33.7435745485,42.2115442657\H,0,32.5220247655,-33.582
 2411478,42.4571281704\H,0,38.0869016133,-31.5915662966,39.330288685\H,
 0,33.5655110531,-30.959339659,42.7912491119\H,0,35.1788284893,-31.2585
 61334,40.3759261384\H,0,32.9972078752,-30.8804033872,39.5253507634\H,0
 ,32.2620482809,-32.0603572426,40.610703254\H,0,32.4804544908,-32.81421
 34678,38.2013023588\H,0,33.0866849022,-33.9363304395,39.4060064837\H,0
 ,34.5135929567,-33.6865225526,37.3075980245\H,0,35.3458048313,-33.6170
 548482,38.8561622014\H,0,34.6591957886,-31.1810438538,37.2914223002\H,
 0,36.7283077508,-32.5586536177,39.9361779395\H,0,37.4206220171,-29.552
 355519,38.2411641906\H,0,36.3738202609,-29.7627490611,36.9159822934\\V
 ersion=ES64L-G16RevC.01\HF=-1486.5561197\RMSD=9.643e-09\Dipole=1.75318
 86,3.1511491,2.1067159\Quadrupole=-367.2314015,-1733.8561655,2101.0875
 67,-3641.3503763,5427.8030988,-4514.0300725\PG=C01 [X(C20H33N6O5)]\\@
 The archive entry for this job was punched.


 Human beings, who are almost unique in having the
 ability to learn from the experience of others, are
 also remarkable for their apparent disinclination to do so.
                               -- Douglas Adams,
                                Last Chance to See
 Job cpu time:       0 days  0 hours  1 minutes 38.5 seconds.
 Elapsed time:       0 days  0 hours  0 minutes 25.2 seconds.
 File lengths (MBytes):  RWF=    264 Int=      0 D2E=      0 Chk=     40 Scr=     16
 Normal termination of Gaussian 16 at Tue May 31 11:50:35 2022.
