 Entering Gaussian System, Link 0=/opt/software/Gaussian/g16-AVX2-C.01/g16/g16
 Input=charge-conf-34.com
 Output=charge-conf-34.log
 Initial command:
 /opt/software/Gaussian/g16-AVX2-C.01/g16/l1.exe "/mnt/gs18/scratch/users/kengmith/Gau-16832.inp" -scrdir="/mnt/gs18/scratch/users/kengmith/"
 Entering Link 1 = /opt/software/Gaussian/g16-AVX2-C.01/g16/l1.exe PID=     16844.
  
 Copyright (c) 1988-2019, Gaussian, Inc.  All Rights Reserved.
  
 This is part of the Gaussian(R) 16 program.  It is based on
 the Gaussian(R) 09 system (copyright 2009, Gaussian, Inc.),
 the Gaussian(R) 03 system (copyright 2003, Gaussian, Inc.),
 the Gaussian(R) 98 system (copyright 1998, Gaussian, Inc.),
 the Gaussian(R) 94 system (copyright 1995, Gaussian, Inc.),
 the Gaussian 92(TM) system (copyright 1992, Gaussian, Inc.),
 the Gaussian 90(TM) system (copyright 1990, Gaussian, Inc.),
 the Gaussian 88(TM) system (copyright 1988, Gaussian, Inc.),
 the Gaussian 86(TM) system (copyright 1986, Carnegie Mellon
 University), and the Gaussian 82(TM) system (copyright 1983,
 Carnegie Mellon University). Gaussian is a federally registered
 trademark of Gaussian, Inc.
  
 This software contains proprietary and confidential information,
 including trade secrets, belonging to Gaussian, Inc.
  
 This software is provided under written license and may be
 used, copied, transmitted, or stored only in accord with that
 written license.
  
 The following legend is applicable only to US Government
 contracts under FAR:
  
                    RESTRICTED RIGHTS LEGEND
  
 Use, reproduction and disclosure by the US Government is
 subject to restrictions as set forth in subparagraphs (a)
 and (c) of the Commercial Computer Software - Restricted
 Rights clause in FAR 52.227-19.
  
 Gaussian, Inc.
 340 Quinnipiac St., Bldg. 40, Wallingford CT 06492
  
  
 ---------------------------------------------------------------
 Warning -- This program may not be used in any manner that
 competes with the business of Gaussian, Inc. or will provide
 assistance to any competitor of Gaussian, Inc.  The licensee
 of this program is prohibited from giving any competitor of
 Gaussian, Inc. access to this program.  By using this program,
 the user acknowledges that Gaussian, Inc. is engaged in the
 business of creating and licensing software in the field of
 computational chemistry and represents and warrants to the
 licensee that it is not a competitor of Gaussian, Inc. and that
 it will not use this program in any manner prohibited above.
 ---------------------------------------------------------------
  

 Cite this work as:
 Gaussian 16, Revision C.01,
 M. J. Frisch, G. W. Trucks, H. B. Schlegel, G. E. Scuseria, 
 M. A. Robb, J. R. Cheeseman, G. Scalmani, V. Barone, 
 G. A. Petersson, H. Nakatsuji, X. Li, M. Caricato, A. V. Marenich, 
 J. Bloino, B. G. Janesko, R. Gomperts, B. Mennucci, H. P. Hratchian, 
 J. V. Ortiz, A. F. Izmaylov, J. L. Sonnenberg, D. Williams-Young, 
 F. Ding, F. Lipparini, F. Egidi, J. Goings, B. Peng, A. Petrone, 
 T. Henderson, D. Ranasinghe, V. G. Zakrzewski, J. Gao, N. Rega, 
 G. Zheng, W. Liang, M. Hada, M. Ehara, K. Toyota, R. Fukuda, 
 J. Hasegawa, M. Ishida, T. Nakajima, Y. Honda, O. Kitao, H. Nakai, 
 T. Vreven, K. Throssell, J. A. Montgomery, Jr., J. E. Peralta, 
 F. Ogliaro, M. J. Bearpark, J. J. Heyd, E. N. Brothers, K. N. Kudin, 
 V. N. Staroverov, T. A. Keith, R. Kobayashi, J. Normand, 
 K. Raghavachari, A. P. Rendell, J. C. Burant, S. S. Iyengar, 
 J. Tomasi, M. Cossi, J. M. Millam, M. Klene, C. Adamo, R. Cammi, 
 J. W. Ochterski, R. L. Martin, K. Morokuma, O. Farkas, 
 J. B. Foresman, and D. J. Fox, Gaussian, Inc., Wallingford CT, 2019.
 
 ******************************************
 Gaussian 16:  ES64L-G16RevC.01  3-Jul-2019
                31-May-2022 
 ******************************************
 %mem=8gb
 %nproc=4
 Will use up to    4 processors via shared memory.
 %chk=conf-34.chk
 ----------------------------------------------------------------------
 # B3LYP/6-31G* empiricaldispersion=gd3 guess=read geom=check nosymm in
 tegral(ultrafinegrid)
 ----------------------------------------------------------------------
 1/29=2,38=1,172=1/1;
 2/12=2,15=1,40=1/2;
 3/5=1,6=6,7=1,11=2,14=-4,25=1,30=1,74=-5,75=-5,116=-2,124=31/1,2,3;
 4/5=1/1;
 5/5=2,38=6/2;
 6/7=2,8=2,9=2,10=2,28=1/1;
 99/5=1,9=1/99;
 -----------------------------------------------------
 Candidate Structure: Conf:34 Charge calc in gas phase
 -----------------------------------------------------
 Structure from the checkpoint file:  "conf-34.chk"
 Charge =  1 Multiplicity = 1
 Redundant internal coordinates found in file.  (old form).
 N,0,31.76059354,-32.5527346794,41.3823200061
 C,0,32.2935674505,-33.4875574788,42.4440300215
 C,0,33.8070196942,-33.5332872354,42.0957445929
 O,0,34.1019137712,-33.3270894242,40.9142385588
 C,0,31.7657659902,-33.098755883,43.8548249539
 C,0,31.6811886313,-31.6152230756,44.1145566328
 C,0,32.6088926664,-30.9260469798,44.9005273811
 C,0,30.6457115023,-30.8499061042,43.5202150992
 C,0,32.5909018144,-29.5294135054,44.9955764022
 C,0,30.6278127241,-29.4704080634,43.5696769143
 C,0,31.6434065483,-28.7299613876,44.2659188216
 O,0,31.7250663658,-27.450586665,44.1991956659
 H,0,30.777022495,-32.7131631123,41.1566799405
 H,0,31.9208370229,-34.4845507738,42.1810131405
 H,0,30.7741104969,-33.5599845768,43.9506140734
 H,0,32.3920047717,-33.6014407632,44.6015257337
 H,0,33.3823708744,-31.482016572,45.4307228022
 H,0,29.8298900753,-31.3659522073,43.0090735015
 H,0,33.2878133813,-29.0085775536,45.6486378772
 H,0,29.8316539232,-28.9047022277,43.0944780131
 H,0,31.8810295256,-31.5691796666,41.6905710791
 H,0,32.3822927378,-32.6910241172,40.5594257249
 N,0,34.7227569609,-33.8470892297,43.0266536851
 C,0,36.1278332573,-34.1092045679,42.6250761241
 C,0,36.6360007947,-32.9623875903,41.7093888692
 O,0,37.1661234384,-33.1901322177,40.6416288198
 C,0,37.0015673055,-34.4112923997,43.8636912766
 C,0,37.0850636045,-33.2555124097,44.8742604139
 C,0,38.4033439547,-34.8476110399,43.4126487515
 H,0,34.4373537298,-34.0576386652,43.9739502214
 H,0,36.1325445409,-34.9847876355,41.9687097046
 H,0,36.5248333672,-35.2685252359,44.3636950351
 H,0,37.6476375465,-32.4107692802,44.4621398666
 H,0,36.0985913966,-32.8892438006,45.189818819
 H,0,37.6074735772,-33.587728041,45.776378864
 H,0,39.0061728078,-35.1333968776,44.2800387452
 H,0,38.9208355827,-34.0339642465,42.8928493028
 H,0,38.3585012815,-35.7031602002,42.7310602611
 N,0,36.3976394381,-31.6875608547,42.1804543746
 C,0,35.904655269,-30.6406415977,41.2770683675
 C,0,34.5935973684,-30.1812363321,41.9036619636
 O,0,33.4975866931,-30.2075779717,41.3571743171
 C,0,36.8871822234,-29.4692543203,41.0548967398
 C,0,36.2024049616,-28.212697396,40.4531997199
 C,0,35.932848687,-27.1659480996,41.5510094305
 N,0,34.9843908946,-26.0956819943,41.2041348686
 C,0,33.7341317626,-26.027313065,41.7183054303
 N,0,33.0188476109,-27.1042532606,41.9875509332
 N,0,33.1893742019,-24.8085901792,41.9325316539
 O,0,34.7895489061,-29.7545016789,43.1498250159
 H,0,33.9198538889,-29.6152036991,43.6336699429
 H,0,32.3507292257,-27.1454163883,42.8392847005
 H,0,36.0269951005,-31.6200959095,43.1187662865
 H,0,35.6626280603,-31.106723838,40.3197248096
 H,0,37.6824254104,-29.8414853737,40.4031820851
 H,0,37.3571461355,-29.2243548728,42.0146172093
 H,0,35.2592766646,-28.4853313452,39.9620786427
 H,0,36.8290581313,-27.7697442067,39.6724714761
 H,0,36.8765677246,-26.6874100595,41.8349434607
 H,0,35.5497076836,-27.6499169711,42.4511892801
 H,0,35.3521439001,-25.2530761437,40.7817732746
 H,0,33.291073184,-27.9967024207,41.5932474021
 H,0,32.2263700548,-24.7679359361,42.2419330398
 H,0,33.7788113805,-24.0290716354,42.1899451183
 Recover connectivity data from disk.
                           ----------------------------
                           !    Current Parameters    !
                           ! (Angstroms and Degrees)  !
 --------------------------                            --------------------------
 ! Name  Definition              Value                                          !
 --------------------------------------------------------------------------------
 ! R1    R(1,2)                  1.5117                                         !
 ! R2    R(1,13)                 1.0218                                         !
 ! R3    R(1,21)                 1.0377                                         !
 ! R4    R(1,22)                 1.0406                                         !
 ! R5    R(2,3)                  1.5537                                         !
 ! R6    R(2,5)                  1.5557                                         !
 ! R7    R(2,14)                 1.0964                                         !
 ! R8    R(3,4)                  1.2351                                         !
 ! R9    R(3,23)                 1.343                                          !
 ! R10   R(5,6)                  1.5085                                         !
 ! R11   R(5,15)                 1.0979                                         !
 ! R12   R(5,16)                 1.0966                                         !
 ! R13   R(6,7)                  1.3976                                         !
 ! R14   R(6,8)                  1.4182                                         !
 ! R15   R(7,9)                  1.4                                            !
 ! R16   R(7,17)                 1.0902                                         !
 ! R17   R(8,10)                 1.3805                                         !
 ! R18   R(8,18)                 1.0923                                         !
 ! R19   R(9,11)                 1.4385                                         !
 ! R20   R(9,19)                 1.0879                                         !
 ! R21   R(10,11)                1.4368                                         !
 ! R22   R(10,20)                1.0861                                         !
 ! R23   R(11,12)                1.2837                                         !
 ! R24   R(23,24)                1.4847                                         !
 ! R25   R(23,30)                1.0115                                         !
 ! R26   R(24,25)                1.553                                          !
 ! R27   R(24,27)                1.5456                                         !
 ! R28   R(24,31)                1.0943                                         !
 ! R29   R(25,26)                1.2137                                         !
 ! R30   R(25,39)                1.3798                                         !
 ! R31   R(27,28)                1.5375                                         !
 ! R32   R(27,29)                1.5358                                         !
 ! R33   R(27,32)                1.101                                          !
 ! R34   R(28,33)                1.0954                                         !
 ! R35   R(28,34)                1.0986                                         !
 ! R36   R(28,35)                1.0941                                         !
 ! R37   R(29,36)                1.0943                                         !
 ! R38   R(29,37)                1.0954                                         !
 ! R39   R(29,38)                1.0948                                         !
 ! R40   R(39,40)                1.4681                                         !
 ! R41   R(39,53)                1.0111                                         !
 ! R42   R(40,41)                1.524                                          !
 ! R43   R(40,43)                1.5449                                         !
 ! R44   R(40,54)                1.0919                                         !
 ! R45   R(41,42)                1.225                                          !
 ! R46   R(41,50)                1.3317                                         !
 ! R47   R(43,44)                1.5524                                         !
 ! R48   R(43,55)                1.0935                                         !
 ! R49   R(43,56)                1.0963                                         !
 ! R50   R(44,45)                1.5406                                         !
 ! R51   R(44,57)                1.0977                                         !
 ! R52   R(44,58)                1.0947                                         !
 ! R53   R(45,46)                1.4715                                         !
 ! R54   R(45,59)                1.0955                                         !
 ! R55   R(45,60)                1.0915                                         !
 ! R56   R(46,47)                1.3536                                         !
 ! R57   R(46,61)                1.0117                                         !
 ! R58   R(47,48)                1.3206                                         !
 ! R59   R(47,49)                1.352                                          !
 ! R60   R(48,52)                1.0833                                         !
 ! R61   R(48,62)                1.0129                                         !
 ! R62   R(49,63)                1.0123                                         !
 ! R63   R(49,64)                1.0106                                         !
 ! R64   R(50,51)                1.0049                                         !
 ! A1    A(2,1,13)             113.4147                                         !
 ! A2    A(2,1,21)             109.668                                          !
 ! A3    A(2,1,22)             105.2235                                         !
 ! A4    A(13,1,21)            109.0333                                         !
 ! A5    A(13,1,22)            112.3096                                         !
 ! A6    A(21,1,22)            106.9491                                         !
 ! A7    A(1,2,3)              101.7827                                         !
 ! A8    A(1,2,5)              111.2698                                         !
 ! A9    A(1,2,14)             105.9016                                         !
 ! A10   A(3,2,5)              122.7614                                         !
 ! A11   A(3,2,14)             104.5139                                         !
 ! A12   A(5,2,14)             109.2371                                         !
 ! A13   A(2,3,4)              116.2386                                         !
 ! A14   A(2,3,23)             121.0442                                         !
 ! A15   A(4,3,23)             122.6356                                         !
 ! A16   A(2,5,6)              114.8956                                         !
 ! A17   A(2,5,15)             106.2951                                         !
 ! A18   A(2,5,16)             108.0115                                         !
 ! A19   A(6,5,15)             110.3348                                         !
 ! A20   A(6,5,16)             111.4455                                         !
 ! A21   A(15,5,16)            105.2985                                         !
 ! A22   A(5,6,7)              122.995                                          !
 ! A23   A(5,6,8)              119.9678                                         !
 ! A24   A(7,6,8)              117.0157                                         !
 ! A25   A(6,7,9)              121.4382                                         !
 ! A26   A(6,7,17)             119.5361                                         !
 ! A27   A(9,7,17)             119.0034                                         !
 ! A28   A(6,8,10)             122.2569                                         !
 ! A29   A(6,8,18)             119.1108                                         !
 ! A30   A(10,8,18)            118.6316                                         !
 ! A31   A(7,9,11)             121.901                                          !
 ! A32   A(7,9,19)             120.6739                                         !
 ! A33   A(11,9,19)            117.4119                                         !
 ! A34   A(8,10,11)            121.5445                                         !
 ! A35   A(8,10,20)            120.95                                           !
 ! A36   A(11,10,20)           117.498                                          !
 ! A37   A(9,11,10)            115.1483                                         !
 ! A38   A(9,11,12)            122.5709                                         !
 ! A39   A(10,11,12)           122.2337                                         !
 ! A40   A(3,23,24)            119.9388                                         !
 ! A41   A(3,23,30)            120.3579                                         !
 ! A42   A(24,23,30)           118.9204                                         !
 ! A43   A(23,24,25)           109.8027                                         !
 ! A44   A(23,24,27)           110.6556                                         !
 ! A45   A(23,24,31)           107.9132                                         !
 ! A46   A(25,24,27)           115.5859                                         !
 ! A47   A(25,24,31)           103.638                                          !
 ! A48   A(27,24,31)           108.7753                                         !
 ! A49   A(24,25,26)           121.5392                                         !
 ! A50   A(24,25,39)           115.1147                                         !
 ! A51   A(26,25,39)           123.3105                                         !
 ! A52   A(24,27,28)           114.2362                                         !
 ! A53   A(24,27,29)           109.6419                                         !
 ! A54   A(24,27,32)           105.7444                                         !
 ! A55   A(28,27,29)           110.9168                                         !
 ! A56   A(28,27,32)           108.0779                                         !
 ! A57   A(29,27,32)           107.9022                                         !
 ! A58   A(27,28,33)           111.1186                                         !
 ! A59   A(27,28,34)           112.9951                                         !
 ! A60   A(27,28,35)           109.8528                                         !
 ! A61   A(33,28,34)           108.1874                                         !
 ! A62   A(33,28,35)           107.4061                                         !
 ! A63   A(34,28,35)           107.0464                                         !
 ! A64   A(27,29,36)           110.1338                                         !
 ! A65   A(27,29,37)           111.0701                                         !
 ! A66   A(27,29,38)           111.5595                                         !
 ! A67   A(36,29,37)           108.0509                                         !
 ! A68   A(36,29,38)           108.1777                                         !
 ! A69   A(37,29,38)           107.7207                                         !
 ! A70   A(25,39,40)           120.4508                                         !
 ! A71   A(25,39,53)           116.2178                                         !
 ! A72   A(40,39,53)           113.6016                                         !
 ! A73   A(39,40,41)           104.5281                                         !
 ! A74   A(39,40,43)           114.5592                                         !
 ! A75   A(39,40,54)           108.0322                                         !
 ! A76   A(41,40,43)           112.1894                                         !
 ! A77   A(41,40,54)           107.3654                                         !
 ! A78   A(43,40,54)           109.7864                                         !
 ! A79   A(40,41,42)           125.4365                                         !
 ! A80   A(40,41,50)           110.7786                                         !
 ! A81   A(42,41,50)           123.7801                                         !
 ! A82   A(40,43,44)           112.8877                                         !
 ! A83   A(40,43,55)           106.8649                                         !
 ! A84   A(40,43,56)           108.4275                                         !
 ! A85   A(44,43,55)           111.4283                                         !
 ! A86   A(44,43,56)           110.3395                                         !
 ! A87   A(55,43,56)           106.6202                                         !
 ! A88   A(43,44,45)           110.5452                                         !
 ! A89   A(43,44,57)           110.5707                                         !
 ! A90   A(43,44,58)           110.575                                          !
 ! A91   A(45,44,57)           109.7078                                         !
 ! A92   A(45,44,58)           109.4769                                         !
 ! A93   A(57,44,58)           105.8565                                         !
 ! A94   A(44,45,46)           116.0379                                         !
 ! A95   A(44,45,59)           109.3136                                         !
 ! A96   A(44,45,60)           110.3549                                         !
 ! A97   A(46,45,59)           107.3745                                         !
 ! A98   A(46,45,60)           106.8971                                         !
 ! A99   A(59,45,60)           106.3983                                         !
 ! A100  A(45,46,47)           122.8565                                         !
 ! A101  A(45,46,61)           118.0251                                         !
 ! A102  A(47,46,61)           116.8881                                         !
 ! A103  A(46,47,48)           122.4494                                         !
 ! A104  A(46,47,49)           118.5473                                         !
 ! A105  A(48,47,49)           118.9838                                         !
 ! A106  A(47,48,52)           121.6917                                         !
 ! A107  A(47,48,62)           119.5755                                         !
 ! A108  A(52,48,62)           115.9974                                         !
 ! A109  A(47,49,63)           117.9                                            !
 ! A110  A(47,49,64)           120.0425                                         !
 ! A111  A(63,49,64)           116.4883                                         !
 ! A112  A(41,50,51)           111.5691                                         !
 ! D1    D(13,1,2,3)           153.2811                                         !
 ! D2    D(13,1,2,5)           -74.3115                                         !
 ! D3    D(13,1,2,14)           44.2779                                         !
 ! D4    D(21,1,2,3)           -84.566                                          !
 ! D5    D(21,1,2,5)            47.8414                                         !
 ! D6    D(21,1,2,14)          166.4308                                         !
 ! D7    D(22,1,2,3)            30.1493                                         !
 ! D8    D(22,1,2,5)           162.5567                                         !
 ! D9    D(22,1,2,14)          -78.8539                                         !
 ! D10   D(1,2,3,4)            -27.1647                                         !
 ! D11   D(1,2,3,23)           156.0364                                         !
 ! D12   D(5,2,3,4)           -152.257                                          !
 ! D13   D(5,2,3,23)            30.9441                                         !
 ! D14   D(14,2,3,4)            82.9018                                         !
 ! D15   D(14,2,3,23)          -93.8971                                         !
 ! D16   D(1,2,5,6)            -38.6963                                         !
 ! D17   D(1,2,5,15)            83.6344                                         !
 ! D18   D(1,2,5,16)          -163.7775                                         !
 ! D19   D(3,2,5,6)             82.0393                                         !
 ! D20   D(3,2,5,15)          -155.63                                           !
 ! D21   D(3,2,5,16)           -43.0419                                         !
 ! D22   D(14,2,5,6)          -155.2633                                         !
 ! D23   D(14,2,5,15)          -32.9326                                         !
 ! D24   D(14,2,5,16)           79.6555                                         !
 ! D25   D(2,3,23,24)          169.6451                                         !
 ! D26   D(2,3,23,30)           -0.1135                                         !
 ! D27   D(4,3,23,24)           -6.9451                                         !
 ! D28   D(4,3,23,30)         -176.7037                                         !
 ! D29   D(2,5,6,7)           -103.5919                                         !
 ! D30   D(2,5,6,8)             74.6704                                         !
 ! D31   D(15,5,6,7)           136.2836                                         !
 ! D32   D(15,5,6,8)           -45.4541                                         !
 ! D33   D(16,5,6,7)            19.6751                                         !
 ! D34   D(16,5,6,8)          -162.0626                                         !
 ! D35   D(5,6,7,9)            172.5118                                         !
 ! D36   D(5,6,7,17)            -5.7519                                         !
 ! D37   D(8,6,7,9)             -5.7985                                         !
 ! D38   D(8,6,7,17)           175.9378                                         !
 ! D39   D(5,6,8,10)          -170.7376                                         !
 ! D40   D(5,6,8,18)             9.5726                                         !
 ! D41   D(7,6,8,10)             7.6265                                         !
 ! D42   D(7,6,8,18)          -172.0633                                         !
 ! D43   D(6,7,9,11)            -1.6365                                         !
 ! D44   D(6,7,9,19)           177.0056                                         !
 ! D45   D(17,7,9,11)          176.6363                                         !
 ! D46   D(17,7,9,19)           -4.7216                                         !
 ! D47   D(6,8,10,11)           -1.9244                                         !
 ! D48   D(6,8,10,20)          179.0945                                         !
 ! D49   D(18,8,10,11)         177.7668                                         !
 ! D50   D(18,8,10,20)          -1.2143                                         !
 ! D51   D(7,9,11,10)            7.1612                                         !
 ! D52   D(7,9,11,12)         -170.39                                           !
 ! D53   D(19,9,11,10)        -171.5232                                         !
 ! D54   D(19,9,11,12)          10.9256                                         !
 ! D55   D(8,10,11,9)           -5.3886                                         !
 ! D56   D(8,10,11,12)         172.1717                                         !
 ! D57   D(20,10,11,9)         173.6262                                         !
 ! D58   D(20,10,11,12)         -8.8134                                         !
 ! D59   D(3,23,24,25)          49.7124                                         !
 ! D60   D(3,23,24,27)         178.4888                                         !
 ! D61   D(3,23,24,31)         -62.6068                                         !
 ! D62   D(30,23,24,25)       -140.3824                                         !
 ! D63   D(30,23,24,27)        -11.606                                          !
 ! D64   D(30,23,24,31)        107.2985                                         !
 ! D65   D(23,24,25,26)       -129.2414                                         !
 ! D66   D(23,24,25,39)         48.6579                                         !
 ! D67   D(27,24,25,26)        104.7368                                         !
 ! D68   D(27,24,25,39)        -77.364                                          !
 ! D69   D(31,24,25,26)        -14.1694                                         !
 ! D70   D(31,24,25,39)        163.7298                                         !
 ! D71   D(23,24,27,28)        -61.7466                                         !
 ! D72   D(23,24,27,29)        173.057                                          !
 ! D73   D(23,24,27,32)         56.9705                                         !
 ! D74   D(25,24,27,28)         63.8394                                         !
 ! D75   D(25,24,27,29)        -61.357                                          !
 ! D76   D(25,24,27,32)       -177.4435                                         !
 ! D77   D(31,24,27,28)        179.8722                                         !
 ! D78   D(31,24,27,29)         54.6758                                         !
 ! D79   D(31,24,27,32)        -61.4107                                         !
 ! D80   D(24,25,39,40)       -136.3136                                         !
 ! D81   D(24,25,39,53)          7.5098                                         !
 ! D82   D(26,25,39,40)         41.544                                          !
 ! D83   D(26,25,39,53)       -174.6326                                         !
 ! D84   D(24,27,28,33)        -68.6411                                         !
 ! D85   D(24,27,28,34)         53.1885                                         !
 ! D86   D(24,27,28,35)        172.6474                                         !
 ! D87   D(29,27,28,33)         55.879                                          !
 ! D88   D(29,27,28,34)        177.7085                                         !
 ! D89   D(29,27,28,35)        -62.8326                                         !
 ! D90   D(32,27,28,33)        173.9734                                         !
 ! D91   D(32,27,28,34)        -64.197                                          !
 ! D92   D(32,27,28,35)         55.2619                                         !
 ! D93   D(24,27,29,36)       -175.8989                                         !
 ! D94   D(24,27,29,37)         64.4365                                         !
 ! D95   D(24,27,29,38)        -55.7586                                         !
 ! D96   D(28,27,29,36)         57.0146                                         !
 ! D97   D(28,27,29,37)        -62.65                                           !
 ! D98   D(28,27,29,38)        177.1549                                         !
 ! D99   D(32,27,29,36)        -61.1866                                         !
 ! D100  D(32,27,29,37)        179.1489                                         !
 ! D101  D(32,27,29,38)         58.9538                                         !
 ! D102  D(25,39,40,41)        121.8495                                         !
 ! D103  D(25,39,40,43)       -114.9636                                         !
 ! D104  D(25,39,40,54)          7.7319                                         !
 ! D105  D(53,39,40,41)        -22.8483                                         !
 ! D106  D(53,39,40,43)        100.3386                                         !
 ! D107  D(53,39,40,54)       -136.9659                                         !
 ! D108  D(39,40,41,42)       -121.6791                                         !
 ! D109  D(39,40,41,50)         57.5425                                         !
 ! D110  D(43,40,41,42)        113.6124                                         !
 ! D111  D(43,40,41,50)        -67.166                                          !
 ! D112  D(54,40,41,42)         -7.0913                                         !
 ! D113  D(54,40,41,50)        172.1303                                         !
 ! D114  D(39,40,43,44)       -163.216                                          !
 ! D115  D(39,40,43,55)         73.9395                                         !
 ! D116  D(39,40,43,56)        -40.6454                                         !
 ! D117  D(41,40,43,44)        -44.2524                                         !
 ! D118  D(41,40,43,55)       -167.0968                                         !
 ! D119  D(41,40,43,56)         78.3183                                         !
 ! D120  D(54,40,43,44)         75.0421                                         !
 ! D121  D(54,40,43,55)        -47.8024                                         !
 ! D122  D(54,40,43,56)       -162.3873                                         !
 ! D123  D(40,41,50,51)       -169.1135                                         !
 ! D124  D(42,41,50,51)         10.1235                                         !
 ! D125  D(40,43,44,45)        101.0208                                         !
 ! D126  D(40,43,44,57)        -20.6682                                         !
 ! D127  D(40,43,44,58)       -137.5786                                         !
 ! D128  D(55,43,44,45)       -138.7157                                         !
 ! D129  D(55,43,44,57)         99.5954                                         !
 ! D130  D(55,43,44,58)        -17.315                                          !
 ! D131  D(56,43,44,45)        -20.4746                                         !
 ! D132  D(56,43,44,57)       -142.1635                                         !
 ! D133  D(56,43,44,58)        100.9261                                         !
 ! D134  D(43,44,45,46)       -164.3973                                         !
 ! D135  D(43,44,45,59)         74.0431                                         !
 ! D136  D(43,44,45,60)        -42.6425                                         !
 ! D137  D(57,44,45,46)        -42.2008                                         !
 ! D138  D(57,44,45,59)       -163.7604                                         !
 ! D139  D(57,44,45,60)         79.554                                          !
 ! D140  D(58,44,45,46)         73.5546                                         !
 ! D141  D(58,44,45,59)        -48.005                                          !
 ! D142  D(58,44,45,60)       -164.6906                                         !
 ! D143  D(44,45,46,47)        107.6182                                         !
 ! D144  D(44,45,46,61)        -89.8938                                         !
 ! D145  D(59,45,46,47)       -129.7961                                         !
 ! D146  D(59,45,46,61)         32.692                                          !
 ! D147  D(60,45,46,47)        -15.9548                                         !
 ! D148  D(60,45,46,61)        146.5332                                         !
 ! D149  D(45,46,47,48)        -34.6451                                         !
 ! D150  D(45,46,47,49)        146.9773                                         !
 ! D151  D(61,46,47,48)        162.6815                                         !
 ! D152  D(61,46,47,49)        -15.6961                                         !
 ! D153  D(46,47,48,52)        144.4956                                         !
 ! D154  D(46,47,48,62)        -16.0161                                         !
 ! D155  D(49,47,48,52)        -37.1336                                         !
 ! D156  D(49,47,48,62)        162.3547                                         !
 ! D157  D(46,47,49,63)        174.8568                                         !
 ! D158  D(46,47,49,64)        -32.3686                                         !
 ! D159  D(48,47,49,63)         -3.5782                                         !
 ! D160  D(48,47,49,64)        149.1965                                         !
 --------------------------------------------------------------------------------
 Symmetry turned off by external request.
 Stoichiometry    C20H33N6O5(1+)
 Framework group  C1[X(C20H33N6O5)]
 Deg. of freedom   186
 Full point group                 C1      NOp   1
                          Input orientation:                          
 ---------------------------------------------------------------------
 Center     Atomic      Atomic             Coordinates (Angstroms)
 Number     Number       Type             X           Y           Z
 ---------------------------------------------------------------------
      1          7           0       31.760594  -32.552735   41.382320
      2          6           0       32.293567  -33.487557   42.444030
      3          6           0       33.807020  -33.533287   42.095745
      4          8           0       34.101914  -33.327089   40.914239
      5          6           0       31.765766  -33.098756   43.854825
      6          6           0       31.681189  -31.615223   44.114557
      7          6           0       32.608893  -30.926047   44.900527
      8          6           0       30.645712  -30.849906   43.520215
      9          6           0       32.590902  -29.529414   44.995576
     10          6           0       30.627813  -29.470408   43.569677
     11          6           0       31.643407  -28.729961   44.265919
     12          8           0       31.725066  -27.450587   44.199196
     13          1           0       30.777022  -32.713163   41.156680
     14          1           0       31.920837  -34.484551   42.181013
     15          1           0       30.774110  -33.559985   43.950614
     16          1           0       32.392005  -33.601441   44.601526
     17          1           0       33.382371  -31.482017   45.430723
     18          1           0       29.829890  -31.365952   43.009074
     19          1           0       33.287813  -29.008578   45.648638
     20          1           0       29.831654  -28.904702   43.094478
     21          1           0       31.881030  -31.569180   41.690571
     22          1           0       32.382293  -32.691024   40.559426
     23          7           0       34.722757  -33.847089   43.026654
     24          6           0       36.127833  -34.109205   42.625076
     25          6           0       36.636001  -32.962388   41.709389
     26          8           0       37.166123  -33.190132   40.641629
     27          6           0       37.001567  -34.411292   43.863691
     28          6           0       37.085064  -33.255512   44.874260
     29          6           0       38.403344  -34.847611   43.412649
     30          1           0       34.437354  -34.057639   43.973950
     31          1           0       36.132545  -34.984788   41.968710
     32          1           0       36.524833  -35.268525   44.363695
     33          1           0       37.647638  -32.410769   44.462140
     34          1           0       36.098591  -32.889244   45.189819
     35          1           0       37.607474  -33.587728   45.776379
     36          1           0       39.006173  -35.133397   44.280039
     37          1           0       38.920836  -34.033964   42.892849
     38          1           0       38.358501  -35.703160   42.731060
     39          7           0       36.397639  -31.687561   42.180454
     40          6           0       35.904655  -30.640642   41.277068
     41          6           0       34.593597  -30.181236   41.903662
     42          8           0       33.497587  -30.207578   41.357174
     43          6           0       36.887182  -29.469254   41.054897
     44          6           0       36.202405  -28.212697   40.453200
     45          6           0       35.932849  -27.165948   41.551009
     46          7           0       34.984391  -26.095682   41.204135
     47          6           0       33.734132  -26.027313   41.718305
     48          7           0       33.018848  -27.104253   41.987551
     49          7           0       33.189374  -24.808590   41.932532
     50          8           0       34.789549  -29.754502   43.149825
     51          1           0       33.919854  -29.615204   43.633670
     52          1           0       32.350729  -27.145416   42.839285
     53          1           0       36.026995  -31.620096   43.118766
     54          1           0       35.662628  -31.106724   40.319725
     55          1           0       37.682425  -29.841485   40.403182
     56          1           0       37.357146  -29.224355   42.014617
     57          1           0       35.259277  -28.485331   39.962079
     58          1           0       36.829058  -27.769744   39.672471
     59          1           0       36.876568  -26.687410   41.834943
     60          1           0       35.549708  -27.649917   42.451189
     61          1           0       35.352144  -25.253076   40.781773
     62          1           0       33.291073  -27.996702   41.593247
     63          1           0       32.226370  -24.767936   42.241933
     64          1           0       33.778811  -24.029072   42.189945
 ---------------------------------------------------------------------
 Rotational constants (GHZ):           0.2001787           0.1164311           0.0890534
 Standard basis: 6-31G(d) (6D, 7F)
   531 basis functions,  1000 primitive gaussians,   531 cartesian basis functions
   117 alpha electrons      117 beta electrons
       nuclear repulsion energy      3535.3459169997 Hartrees.
 NAtoms=   64 NActive=   64 NUniq=   64 SFac= 1.00D+00 NAtFMM=   60 NAOKFM=T Big=T
 Integral buffers will be    131072 words long.
 Raffenetti 2 integral format.
 Two-electron integral symmetry is turned off.
 Nuclear repulsion after empirical dispersion term =     3535.2526230475 Hartrees.
 One-electron integrals computed using PRISM.
 NBasis=   531 RedAO= T EigKep=  4.56D-04  NBF=   531
 NBsUse=   531 1.00D-06 EigRej= -1.00D+00 NBFU=   531
 Initial guess from the checkpoint file:  "conf-34.chk"
 B after Tr=     0.000000    0.000000    0.000000
         Rot=    1.000000    0.000000    0.000000    0.000000 Ang=   0.00 deg.
 Requested convergence on RMS density matrix=1.00D-08 within 128 cycles.
 Requested convergence on MAX density matrix=1.00D-06.
 Requested convergence on             energy=1.00D-06.
 No special actions if energy rises.
 SCF Done:  E(RB3LYP) =  -1486.53890607     A.U. after    1 cycles
            NFock=  1  Conv=0.77D-08     -V/T= 2.0094

 **********************************************************************

            Population analysis using the SCF Density.

 **********************************************************************

 Alpha  occ. eigenvalues --  -19.30698 -19.26820 -19.26203 -19.21473 -19.15996
 Alpha  occ. eigenvalues --  -14.57768 -14.50495 -14.49489 -14.49030 -14.46057
 Alpha  occ. eigenvalues --  -14.45590 -10.44691 -10.44387 -10.43529 -10.39947
 Alpha  occ. eigenvalues --  -10.38706 -10.34459 -10.34417 -10.34209 -10.33027
 Alpha  occ. eigenvalues --  -10.31584 -10.30637 -10.29921 -10.29485 -10.28761
 Alpha  occ. eigenvalues --  -10.28614 -10.28517 -10.28051 -10.26480 -10.26068
 Alpha  occ. eigenvalues --  -10.25928  -1.22492  -1.18972  -1.13668  -1.13429
 Alpha  occ. eigenvalues --   -1.13223  -1.12350  -1.06309  -1.05511  -1.03095
 Alpha  occ. eigenvalues --   -1.02674  -1.00417  -0.94555  -0.92227  -0.90814
 Alpha  occ. eigenvalues --   -0.90026  -0.85777  -0.83894  -0.83246  -0.81318
 Alpha  occ. eigenvalues --   -0.79366  -0.78253  -0.76518  -0.75507  -0.73933
 Alpha  occ. eigenvalues --   -0.73023  -0.72575  -0.70847  -0.70446  -0.70079
 Alpha  occ. eigenvalues --   -0.68967  -0.68544  -0.67933  -0.67416  -0.66533
 Alpha  occ. eigenvalues --   -0.64771  -0.63410  -0.62396  -0.61681  -0.61277
 Alpha  occ. eigenvalues --   -0.60419  -0.60163  -0.59312  -0.58846  -0.57564
 Alpha  occ. eigenvalues --   -0.57316  -0.56542  -0.56157  -0.55545  -0.55462
 Alpha  occ. eigenvalues --   -0.54578  -0.54115  -0.53529  -0.53278  -0.52849
 Alpha  occ. eigenvalues --   -0.52342  -0.51686  -0.50955  -0.50527  -0.50208
 Alpha  occ. eigenvalues --   -0.50020  -0.49381  -0.48422  -0.48385  -0.47662
 Alpha  occ. eigenvalues --   -0.47382  -0.46632  -0.46087  -0.45492  -0.45043
 Alpha  occ. eigenvalues --   -0.44313  -0.44102  -0.43878  -0.43769  -0.43482
 Alpha  occ. eigenvalues --   -0.43081  -0.40691  -0.40455  -0.39878  -0.39764
 Alpha  occ. eigenvalues --   -0.39287  -0.37968  -0.35167  -0.34693  -0.34404
 Alpha  occ. eigenvalues --   -0.30138  -0.27616
 Alpha virt. eigenvalues --   -0.13082  -0.12761  -0.10625  -0.09849  -0.08840
 Alpha virt. eigenvalues --   -0.08020  -0.07026  -0.05884  -0.05176  -0.02950
 Alpha virt. eigenvalues --   -0.02073  -0.01380  -0.00700   0.00073   0.00568
 Alpha virt. eigenvalues --    0.00992   0.01139   0.01555   0.02150   0.02621
 Alpha virt. eigenvalues --    0.03073   0.03177   0.03225   0.03742   0.04046
 Alpha virt. eigenvalues --    0.04781   0.05018   0.05269   0.05904   0.06208
 Alpha virt. eigenvalues --    0.06710   0.07114   0.07514   0.08083   0.08824
 Alpha virt. eigenvalues --    0.08886   0.09354   0.09914   0.10067   0.10451
 Alpha virt. eigenvalues --    0.10841   0.11201   0.11841   0.12311   0.12914
 Alpha virt. eigenvalues --    0.13225   0.13627   0.13958   0.14674   0.15028
 Alpha virt. eigenvalues --    0.15289   0.15656   0.16751   0.17324   0.18105
 Alpha virt. eigenvalues --    0.18585   0.20577   0.21476   0.22210   0.22922
 Alpha virt. eigenvalues --    0.24457   0.25839   0.26209   0.26913   0.27775
 Alpha virt. eigenvalues --    0.28646   0.29890   0.31015   0.31894   0.34698
 Alpha virt. eigenvalues --    0.37793   0.38501   0.39148   0.39669   0.40355
 Alpha virt. eigenvalues --    0.40894   0.41096   0.42187   0.42633   0.42799
 Alpha virt. eigenvalues --    0.43106   0.43646   0.44186   0.44612   0.45075
 Alpha virt. eigenvalues --    0.45610   0.45998   0.46408   0.47740   0.47922
 Alpha virt. eigenvalues --    0.48128   0.48461   0.48750   0.49801   0.49911
 Alpha virt. eigenvalues --    0.51172   0.51287   0.51639   0.52272   0.52555
 Alpha virt. eigenvalues --    0.52871   0.53525   0.53686   0.55012   0.55157
 Alpha virt. eigenvalues --    0.55263   0.56179   0.56937   0.57660   0.57920
 Alpha virt. eigenvalues --    0.58249   0.58610   0.59674   0.60583   0.61031
 Alpha virt. eigenvalues --    0.61327   0.62772   0.63367   0.63942   0.64690
 Alpha virt. eigenvalues --    0.65262   0.66232   0.66961   0.67216   0.67883
 Alpha virt. eigenvalues --    0.68328   0.69055   0.69524   0.70106   0.70489
 Alpha virt. eigenvalues --    0.70958   0.71370   0.71677   0.72056   0.73446
 Alpha virt. eigenvalues --    0.73795   0.74004   0.74542   0.74983   0.75500
 Alpha virt. eigenvalues --    0.75774   0.75931   0.76106   0.76755   0.76947
 Alpha virt. eigenvalues --    0.77269   0.77930   0.78256   0.78425   0.78986
 Alpha virt. eigenvalues --    0.79176   0.80073   0.80355   0.80957   0.81702
 Alpha virt. eigenvalues --    0.82065   0.82419   0.83176   0.83258   0.83941
 Alpha virt. eigenvalues --    0.84320   0.84355   0.85080   0.86312   0.86748
 Alpha virt. eigenvalues --    0.87210   0.87750   0.88692   0.88907   0.89619
 Alpha virt. eigenvalues --    0.90609   0.90997   0.91266   0.91976   0.93758
 Alpha virt. eigenvalues --    0.93859   0.96212   0.96451   0.97067   0.98207
 Alpha virt. eigenvalues --    0.98641   0.99173   1.00460   1.01815   1.02461
 Alpha virt. eigenvalues --    1.02641   1.03596   1.04517   1.06187   1.06549
 Alpha virt. eigenvalues --    1.07293   1.08192   1.08528   1.09425   1.11647
 Alpha virt. eigenvalues --    1.11850   1.12520   1.14215   1.15194   1.16565
 Alpha virt. eigenvalues --    1.16931   1.17666   1.18739   1.19879   1.20679
 Alpha virt. eigenvalues --    1.21801   1.22739   1.23033   1.24256   1.24939
 Alpha virt. eigenvalues --    1.26690   1.26895   1.28845   1.30185   1.30418
 Alpha virt. eigenvalues --    1.31391   1.32358   1.34144   1.36085   1.36744
 Alpha virt. eigenvalues --    1.37478   1.38008   1.38371   1.39185   1.39339
 Alpha virt. eigenvalues --    1.41362   1.42057   1.42740   1.43326   1.44163
 Alpha virt. eigenvalues --    1.46041   1.47557   1.48729   1.49157   1.50673
 Alpha virt. eigenvalues --    1.51289   1.53590   1.54109   1.55437   1.57689
 Alpha virt. eigenvalues --    1.58776   1.59446   1.60059   1.61355   1.61994
 Alpha virt. eigenvalues --    1.62353   1.62647   1.64155   1.64267   1.64957
 Alpha virt. eigenvalues --    1.65799   1.68071   1.68442   1.68869   1.69612
 Alpha virt. eigenvalues --    1.70780   1.71104   1.71827   1.72657   1.72988
 Alpha virt. eigenvalues --    1.73808   1.74555   1.75099   1.75318   1.75978
 Alpha virt. eigenvalues --    1.76454   1.77610   1.78109   1.79194   1.79633
 Alpha virt. eigenvalues --    1.80967   1.81316   1.82662   1.82921   1.83988
 Alpha virt. eigenvalues --    1.84239   1.84669   1.86057   1.86912   1.87566
 Alpha virt. eigenvalues --    1.88340   1.89033   1.89446   1.90256   1.91210
 Alpha virt. eigenvalues --    1.91894   1.92355   1.93062   1.94004   1.94430
 Alpha virt. eigenvalues --    1.95415   1.96338   1.96672   1.96975   1.97255
 Alpha virt. eigenvalues --    1.98529   1.99076   2.00189   2.00929   2.02604
 Alpha virt. eigenvalues --    2.03536   2.04377   2.05734   2.06186   2.06555
 Alpha virt. eigenvalues --    2.06915   2.07973   2.09131   2.09874   2.11775
 Alpha virt. eigenvalues --    2.14204   2.15034   2.16024   2.16907   2.17399
 Alpha virt. eigenvalues --    2.18257   2.19643   2.20297   2.21711   2.21788
 Alpha virt. eigenvalues --    2.22142   2.24165   2.25040   2.25706   2.26390
 Alpha virt. eigenvalues --    2.27189   2.28004   2.29365   2.29745   2.30445
 Alpha virt. eigenvalues --    2.30910   2.33517   2.34593   2.36530   2.36800
 Alpha virt. eigenvalues --    2.38724   2.39187   2.42031   2.42610   2.43083
 Alpha virt. eigenvalues --    2.44019   2.45412   2.46071   2.47590   2.48649
 Alpha virt. eigenvalues --    2.49398   2.50691   2.51082   2.52617   2.53134
 Alpha virt. eigenvalues --    2.54128   2.55046   2.56013   2.56593   2.56679
 Alpha virt. eigenvalues --    2.58229   2.59206   2.62790   2.63418   2.63671
 Alpha virt. eigenvalues --    2.64298   2.66366   2.66731   2.69254   2.71535
 Alpha virt. eigenvalues --    2.73022   2.74422   2.77425   2.80957   2.81137
 Alpha virt. eigenvalues --    2.83794   2.84220   2.89140   2.89535   2.91980
 Alpha virt. eigenvalues --    2.94448   2.95828   2.98139   2.99054   3.02594
 Alpha virt. eigenvalues --    3.05793   3.07185   3.29123   3.69142   3.70884
 Alpha virt. eigenvalues --    3.83493   3.85121   3.88884   3.92914   3.95170
 Alpha virt. eigenvalues --    3.99802   4.02897   4.07017   4.07094   4.08975
 Alpha virt. eigenvalues --    4.10148   4.14118   4.16677   4.18578   4.21172
 Alpha virt. eigenvalues --    4.23119   4.25750   4.28019   4.32400   4.33649
 Alpha virt. eigenvalues --    4.38924   4.40944   4.44647   4.50543   4.54242
 Alpha virt. eigenvalues --    4.57370   4.58947   4.61829   4.75485
          Condensed to atoms (all electrons):
 Mulliken charges:
               1
     1  N   -0.755191
     2  C   -0.126639
     3  C    0.669552
     4  O   -0.526881
     5  C   -0.385009
     6  C    0.150360
     7  C   -0.189078
     8  C   -0.237816
     9  C   -0.323803
    10  C   -0.178837
    11  C    0.432591
    12  O   -0.679329
    13  H    0.402789
    14  H    0.224623
    15  H    0.185450
    16  H    0.169846
    17  H    0.123176
    18  H    0.110497
    19  H    0.153381
    20  H    0.140142
    21  H    0.445440
    22  H    0.430279
    23  N   -0.651256
    24  C   -0.025694
    25  C    0.607110
    26  O   -0.475815
    27  C   -0.128683
    28  C   -0.479143
    29  C   -0.454729
    30  H    0.352058
    31  H    0.202137
    32  H    0.147006
    33  H    0.172476
    34  H    0.129945
    35  H    0.181953
    36  H    0.167837
    37  H    0.174644
    38  H    0.168726
    39  N   -0.613938
    40  C    0.003787
    41  C    0.563667
    42  O   -0.533422
    43  C   -0.281500
    44  C   -0.293965
    45  C   -0.190733
    46  N   -0.590865
    47  C    0.747919
    48  N   -0.792110
    49  N   -0.740992
    50  O   -0.577756
    51  H    0.433167
    52  H    0.432907
    53  H    0.347067
    54  H    0.207035
    55  H    0.192770
    56  H    0.165104
    57  H    0.162535
    58  H    0.171813
    59  H    0.183515
    60  H    0.200829
    61  H    0.353559
    62  H    0.371989
    63  H    0.387950
    64  H    0.365551
 Sum of Mulliken charges =   1.00000
 Mulliken charges with hydrogens summed into heavy atoms:
               1
     1  N    0.523317
     2  C    0.097985
     3  C    0.669552
     4  O   -0.526881
     5  C   -0.029713
     6  C    0.150360
     7  C   -0.065902
     8  C   -0.127319
     9  C   -0.170422
    10  C   -0.038695
    11  C    0.432591
    12  O   -0.679329
    23  N   -0.299199
    24  C    0.176443
    25  C    0.607110
    26  O   -0.475815
    27  C    0.018323
    28  C    0.005231
    29  C    0.056479
    39  N   -0.266871
    40  C    0.210822
    41  C    0.563667
    42  O   -0.533422
    43  C    0.076374
    44  C    0.040384
    45  C    0.193611
    46  N   -0.237306
    47  C    0.747919
    48  N    0.012785
    49  N    0.012509
    50  O   -0.144589
 Electronic spatial extent (au):  <R**2>=        3298240.3090
 Charge=              1.0000 electrons
 Dipole moment (field-independent basis, Debye):
    X=            162.5587    Y=           -145.8542    Z=            202.4550  Tot=            297.8033
 Quadrupole moment (field-independent basis, Debye-Ang):
   XX=           5344.4876   YY=           4346.8189   ZZ=           8350.3668
   XY=          -4909.5111   XZ=           6872.3706   YZ=          -6177.1601
 Traceless Quadrupole moment (field-independent basis, Debye-Ang):
   XX=           -669.4035   YY=          -1667.0722   ZZ=           2336.4757
   XY=          -4909.5111   XZ=           6872.3706   YZ=          -6177.1601
 Octapole moment (field-independent basis, Debye-Ang**2):
  XXX=         169986.0447  YYY=        -126558.2329  ZZZ=         336278.8745  XYY=         145437.2045
  XXY=        -160452.1167  XXZ=         226568.7105  XZZ=         284286.5969  YZZ=        -256011.1506
  YYZ=         184945.5796  XYZ=        -208610.3753
 Hexadecapole moment (field-independent basis, Debye-Ang**3):
 XXXX=        5181519.0330 YYYY=        3569291.2558 ZZZZ=       13163753.0012 XXXY=       -5065900.8124
 XXXZ=        7226843.4796 YYYX=       -4203449.4260 YYYZ=       -5410252.7316 ZZZX=       11484312.6949
 ZZZY=      -10363324.2648 XXYY=        4716805.7231 XXZZ=        9389981.5464 YYZZ=        7695389.2108
 XXYZ=       -6839996.2424 YYXZ=        6211240.9386 ZZXY=       -8672142.7396
 N-N= 3.535252623048D+03 E-N=-1.050649894762D+04  KE= 1.472712426858D+03
 Unable to Open any file for archive entry.
 1\1\GINC-LAC-316\SP\RB3LYP\6-31G(d)\C20H33N6O5(1+)\KENGMITH\31-May-202
 2\0\\# B3LYP/6-31G* empiricaldispersion=gd3 guess=read geom=check nosy
 mm integral(ultrafinegrid)\\Candidate Structure: Conf:34 Charge calc i
 n gas phase\\1,1\N,0,31.76059354,-32.5527346794,41.3823200061\C,0,32.2
 935674505,-33.4875574788,42.4440300215\C,0,33.8070196942,-33.533287235
 4,42.0957445929\O,0,34.1019137712,-33.3270894242,40.9142385588\C,0,31.
 7657659902,-33.098755883,43.8548249539\C,0,31.6811886313,-31.615223075
 6,44.1145566328\C,0,32.6088926664,-30.9260469798,44.9005273811\C,0,30.
 6457115023,-30.8499061042,43.5202150992\C,0,32.5909018144,-29.52941350
 54,44.9955764022\C,0,30.6278127241,-29.4704080634,43.5696769143\C,0,31
 .6434065483,-28.7299613876,44.2659188216\O,0,31.7250663658,-27.4505866
 65,44.1991956659\H,0,30.777022495,-32.7131631123,41.1566799405\H,0,31.
 9208370229,-34.4845507738,42.1810131405\H,0,30.7741104969,-33.55998457
 68,43.9506140734\H,0,32.3920047717,-33.6014407632,44.6015257337\H,0,33
 .3823708744,-31.482016572,45.4307228022\H,0,29.8298900753,-31.36595220
 73,43.0090735015\H,0,33.2878133813,-29.0085775536,45.6486378772\H,0,29
 .8316539232,-28.9047022277,43.0944780131\H,0,31.8810295256,-31.5691796
 666,41.6905710791\H,0,32.3822927378,-32.6910241172,40.5594257249\N,0,3
 4.7227569609,-33.8470892297,43.0266536851\C,0,36.1278332573,-34.109204
 5679,42.6250761241\C,0,36.6360007947,-32.9623875903,41.7093888692\O,0,
 37.1661234384,-33.1901322177,40.6416288198\C,0,37.0015673055,-34.41129
 23997,43.8636912766\C,0,37.0850636045,-33.2555124097,44.8742604139\C,0
 ,38.4033439547,-34.8476110399,43.4126487515\H,0,34.4373537298,-34.0576
 386652,43.9739502214\H,0,36.1325445409,-34.9847876355,41.9687097046\H,
 0,36.5248333672,-35.2685252359,44.3636950351\H,0,37.6476375465,-32.410
 7692802,44.4621398666\H,0,36.0985913966,-32.8892438006,45.189818819\H,
 0,37.6074735772,-33.587728041,45.776378864\H,0,39.0061728078,-35.13339
 68776,44.2800387452\H,0,38.9208355827,-34.0339642465,42.8928493028\H,0
 ,38.3585012815,-35.7031602002,42.7310602611\N,0,36.3976394381,-31.6875
 608547,42.1804543746\C,0,35.904655269,-30.6406415977,41.2770683675\C,0
 ,34.5935973684,-30.1812363321,41.9036619636\O,0,33.4975866931,-30.2075
 779717,41.3571743171\C,0,36.8871822234,-29.4692543203,41.0548967398\C,
 0,36.2024049616,-28.212697396,40.4531997199\C,0,35.932848687,-27.16594
 80996,41.5510094305\N,0,34.9843908946,-26.0956819943,41.2041348686\C,0
 ,33.7341317626,-26.027313065,41.7183054303\N,0,33.0188476109,-27.10425
 32606,41.9875509332\N,0,33.1893742019,-24.8085901792,41.9325316539\O,0
 ,34.7895489061,-29.7545016789,43.1498250159\H,0,33.9198538889,-29.6152
 036991,43.6336699429\H,0,32.3507292257,-27.1454163883,42.8392847005\H,
 0,36.0269951005,-31.6200959095,43.1187662865\H,0,35.6626280603,-31.106
 723838,40.3197248096\H,0,37.6824254104,-29.8414853737,40.4031820851\H,
 0,37.3571461355,-29.2243548728,42.0146172093\H,0,35.2592766646,-28.485
 3313452,39.9620786427\H,0,36.8290581313,-27.7697442067,39.6724714761\H
 ,0,36.8765677246,-26.6874100595,41.8349434607\H,0,35.5497076836,-27.64
 99169711,42.4511892801\H,0,35.3521439001,-25.2530761437,40.7817732746\
 H,0,33.291073184,-27.9967024207,41.5932474021\H,0,32.2263700548,-24.76
 79359361,42.2419330398\H,0,33.7788113805,-24.0290716354,42.1899451183\
 \Version=ES64L-G16RevC.01\HF=-1486.5389061\RMSD=7.665e-09\Dipole=-0.85
 12239,0.658427,-0.7887698\Quadrupole=-497.6850903,-1239.4273358,1737.1
 124261,-3650.1011624,5109.4390924,-4592.5671199\PG=C01 [X(C20H33N6O5)]
 \\@
 The archive entry for this job was punched.


 MEMORIES ARE LIKE AN ENGLISH GRAMMER LESSON -
 PRESENT TENSE, AND PAST PERFECT.
 Job cpu time:       0 days  0 hours  1 minutes 41.4 seconds.
 Elapsed time:       0 days  0 hours  0 minutes 26.0 seconds.
 File lengths (MBytes):  RWF=    264 Int=      0 D2E=      0 Chk=     40 Scr=     16
 Normal termination of Gaussian 16 at Tue May 31 11:50:36 2022.
