 Entering Gaussian System, Link 0=/opt/software/Gaussian/g16-AVX2-C.01/g16/g16
 Input=charge-conf-962.com
 Output=charge-conf-962.log
 Initial command:
 /opt/software/Gaussian/g16-AVX2-C.01/g16/l1.exe "/mnt/gs18/scratch/users/kengmith/Gau-829.inp" -scrdir="/mnt/gs18/scratch/users/kengmith/"
 Entering Link 1 = /opt/software/Gaussian/g16-AVX2-C.01/g16/l1.exe PID=       840.
  
 Copyright (c) 1988-2019, Gaussian, Inc.  All Rights Reserved.
  
 This is part of the Gaussian(R) 16 program.  It is based on
 the Gaussian(R) 09 system (copyright 2009, Gaussian, Inc.),
 the Gaussian(R) 03 system (copyright 2003, Gaussian, Inc.),
 the Gaussian(R) 98 system (copyright 1998, Gaussian, Inc.),
 the Gaussian(R) 94 system (copyright 1995, Gaussian, Inc.),
 the Gaussian 92(TM) system (copyright 1992, Gaussian, Inc.),
 the Gaussian 90(TM) system (copyright 1990, Gaussian, Inc.),
 the Gaussian 88(TM) system (copyright 1988, Gaussian, Inc.),
 the Gaussian 86(TM) system (copyright 1986, Carnegie Mellon
 University), and the Gaussian 82(TM) system (copyright 1983,
 Carnegie Mellon University). Gaussian is a federally registered
 trademark of Gaussian, Inc.
  
 This software contains proprietary and confidential information,
 including trade secrets, belonging to Gaussian, Inc.
  
 This software is provided under written license and may be
 used, copied, transmitted, or stored only in accord with that
 written license.
  
 The following legend is applicable only to US Government
 contracts under FAR:
  
                    RESTRICTED RIGHTS LEGEND
  
 Use, reproduction and disclosure by the US Government is
 subject to restrictions as set forth in subparagraphs (a)
 and (c) of the Commercial Computer Software - Restricted
 Rights clause in FAR 52.227-19.
  
 Gaussian, Inc.
 340 Quinnipiac St., Bldg. 40, Wallingford CT 06492
  
  
 ---------------------------------------------------------------
 Warning -- This program may not be used in any manner that
 competes with the business of Gaussian, Inc. or will provide
 assistance to any competitor of Gaussian, Inc.  The licensee
 of this program is prohibited from giving any competitor of
 Gaussian, Inc. access to this program.  By using this program,
 the user acknowledges that Gaussian, Inc. is engaged in the
 business of creating and licensing software in the field of
 computational chemistry and represents and warrants to the
 licensee that it is not a competitor of Gaussian, Inc. and that
 it will not use this program in any manner prohibited above.
 ---------------------------------------------------------------
  

 Cite this work as:
 Gaussian 16, Revision C.01,
 M. J. Frisch, G. W. Trucks, H. B. Schlegel, G. E. Scuseria, 
 M. A. Robb, J. R. Cheeseman, G. Scalmani, V. Barone, 
 G. A. Petersson, H. Nakatsuji, X. Li, M. Caricato, A. V. Marenich, 
 J. Bloino, B. G. Janesko, R. Gomperts, B. Mennucci, H. P. Hratchian, 
 J. V. Ortiz, A. F. Izmaylov, J. L. Sonnenberg, D. Williams-Young, 
 F. Ding, F. Lipparini, F. Egidi, J. Goings, B. Peng, A. Petrone, 
 T. Henderson, D. Ranasinghe, V. G. Zakrzewski, J. Gao, N. Rega, 
 G. Zheng, W. Liang, M. Hada, M. Ehara, K. Toyota, R. Fukuda, 
 J. Hasegawa, M. Ishida, T. Nakajima, Y. Honda, O. Kitao, H. Nakai, 
 T. Vreven, K. Throssell, J. A. Montgomery, Jr., J. E. Peralta, 
 F. Ogliaro, M. J. Bearpark, J. J. Heyd, E. N. Brothers, K. N. Kudin, 
 V. N. Staroverov, T. A. Keith, R. Kobayashi, J. Normand, 
 K. Raghavachari, A. P. Rendell, J. C. Burant, S. S. Iyengar, 
 J. Tomasi, M. Cossi, J. M. Millam, M. Klene, C. Adamo, R. Cammi, 
 J. W. Ochterski, R. L. Martin, K. Morokuma, O. Farkas, 
 J. B. Foresman, and D. J. Fox, Gaussian, Inc., Wallingford CT, 2019.
 
 ******************************************
 Gaussian 16:  ES64L-G16RevC.01  3-Jul-2019
                31-May-2022 
 ******************************************
 %mem=8gb
 %nproc=4
 Will use up to    4 processors via shared memory.
 %chk=conf-962.chk
 ----------------------------------------------------------------------
 # B3LYP/6-31G* empiricaldispersion=gd3 guess=read geom=check nosymm in
 tegral(ultrafinegrid)
 ----------------------------------------------------------------------
 1/29=2,38=1,172=1/1;
 2/12=2,15=1,40=1/2;
 3/5=1,6=6,7=1,11=2,14=-4,25=1,30=1,74=-5,75=-5,116=-2,124=31/1,2,3;
 4/5=1/1;
 5/5=2,38=6/2;
 6/7=2,8=2,9=2,10=2,28=1/1;
 99/5=1,9=1/99;
 ------------------------------------------------------
 Candidate Structure: Conf:962 Charge calc in gas phase
 ------------------------------------------------------
 Structure from the checkpoint file:  "conf-962.chk"
 Charge =  1 Multiplicity = 1
 Redundant internal coordinates found in file.  (old form).
 N,0,31.4981908211,-29.2303574314,40.1935873715
 C,0,30.7977894444,-30.3074447813,41.0036346899
 C,0,31.8677928849,-31.4285062384,41.0271525183
 O,0,32.5720404379,-31.5553375711,40.0233102168
 C,0,30.2131748335,-29.7350385609,42.3186576784
 C,0,31.2380759079,-29.272245439,43.3184880265
 C,0,31.6445401653,-30.106157859,44.3889157137
 C,0,31.9203711106,-28.0538159317,43.1812821427
 C,0,32.7549473708,-29.835154911,45.1628315486
 C,0,33.0614303591,-27.7546315527,43.9264348638
 C,0,33.590400381,-28.6658979871,44.9326521326
 O,0,34.6812702748,-28.4807265353,45.5237338143
 H,0,32.3065994611,-28.8251179264,40.7169694761
 H,0,29.9842523602,-30.6666200152,40.3614647015
 H,0,29.5221232621,-28.9285256464,42.030648795
 H,0,29.5751089275,-30.5230602789,42.7401412379
 H,0,31.0369914169,-30.9832010532,44.63186612
 H,0,31.5715844518,-27.3233255405,42.4474914915
 H,0,33.0289510275,-30.4762039851,45.9962307149
 H,0,33.5405456891,-26.7820882001,43.8385636264
 H,0,31.922615864,-29.6951796762,39.3749311291
 H,0,30.8638778415,-28.4815036412,39.9039212287
 N,0,31.9950843651,-32.2143594665,42.1146201503
 C,0,33.0905988099,-33.1862050681,42.1710353275
 C,0,34.4683210022,-32.503044483,42.121861356
 O,0,35.4474147307,-33.1682074412,41.7445829038
 C,0,32.9365614815,-34.1572763376,43.3727241146
 C,0,33.3395406945,-33.5196995712,44.7101108816
 C,0,33.715679645,-35.457015365,43.1264062646
 H,0,31.5225850069,-31.9623684048,42.9721903176
 H,0,33.0566454886,-33.7627699484,41.2423927477
 H,0,31.8669319151,-34.4061350362,43.4093892446
 H,0,33.1024294709,-34.195649359,45.5371523636
 H,0,34.419322125,-33.3270752686,44.7416556454
 H,0,32.834614155,-32.5688822109,44.8987400923
 H,0,34.7872425131,-35.2586856124,43.0288515066
 H,0,33.381291685,-35.957331997,42.2111848163
 H,0,33.5674137649,-36.1462192301,43.963796225
 N,0,34.564126484,-31.2089296732,42.5015646221
 C,0,35.6476418263,-30.3326934251,42.0321825406
 C,0,35.0527668035,-29.452882962,40.9175726677
 O,0,35.3712016798,-29.5491413084,39.7616957975
 C,0,36.3473990982,-29.5485410546,43.1564874311
 C,0,36.8140777586,-30.403195056,44.3455559195
 C,0,38.0812344061,-31.2328535188,44.1127469301
 N,0,37.8662387814,-32.2817985491,43.0983144084
 C,0,38.695135199,-32.6146665207,42.1104458356
 N,0,40.0054121545,-32.3143264671,42.174033023
 N,0,38.2064714699,-33.2345844349,41.0261261841
 O,0,34.0528668882,-28.6014566221,41.2835765011
 H,0,33.9371686374,-28.4494117811,42.2659033574
 H,0,40.5985790833,-32.3929888373,41.3610984176
 H,0,33.7708725096,-30.7752129571,42.9694268087
 H,0,36.3543452824,-30.9733446062,41.5109476315
 H,0,35.6858348822,-28.7881735519,43.5781732259
 H,0,37.1965396118,-29.0177933731,42.7054998511
 H,0,35.9951803259,-31.0516239268,44.680092528
 H,0,36.9976902467,-29.7292388665,45.1868750243
 H,0,38.4036629261,-31.6993896138,45.0508270725
 H,0,38.8889601253,-30.5805410293,43.762193247
 H,0,36.922037104,-32.6522672357,42.9896290878
 H,0,40.4379080936,-32.0472478852,43.0454379941
 H,0,38.8093548043,-33.7606425829,40.4105596064
 H,0,37.1962627913,-33.3497265687,40.9463331917
 Recover connectivity data from disk.
                           ----------------------------
                           !    Current Parameters    !
                           ! (Angstroms and Degrees)  !
 --------------------------                            --------------------------
 ! Name  Definition              Value                                          !
 --------------------------------------------------------------------------------
 ! R1    R(1,2)                  1.5188                                         !
 ! R2    R(1,13)                 1.0448                                         !
 ! R3    R(1,21)                 1.0327                                         !
 ! R4    R(1,22)                 1.0233                                         !
 ! R5    R(2,3)                  1.5499                                         !
 ! R6    R(2,5)                  1.5488                                         !
 ! R7    R(2,14)                 1.0969                                         !
 ! R8    R(3,4)                  1.2328                                         !
 ! R9    R(3,23)                 1.3477                                         !
 ! R10   R(5,6)                  1.5047                                         !
 ! R11   R(5,15)                 1.1004                                         !
 ! R12   R(5,16)                 1.0981                                         !
 ! R13   R(6,7)                  1.4165                                         !
 ! R14   R(6,8)                  1.4032                                         !
 ! R15   R(7,9)                  1.3804                                         !
 ! R16   R(7,17)                 1.0942                                         !
 ! R17   R(8,10)                 1.3953                                         !
 ! R18   R(8,18)                 1.0926                                         !
 ! R19   R(9,11)                 1.4554                                         !
 ! R20   R(9,19)                 1.0865                                         !
 ! R21   R(10,11)                1.4569                                         !
 ! R22   R(10,20)                1.0877                                         !
 ! R23   R(11,12)                1.2545                                         !
 ! R24   R(23,24)                1.4655                                         !
 ! R25   R(23,30)                1.011                                          !
 ! R26   R(24,25)                1.5386                                         !
 ! R27   R(24,27)                1.5527                                         !
 ! R28   R(24,31)                1.0936                                         !
 ! R29   R(25,26)                1.2423                                         !
 ! R30   R(25,39)                1.3521                                         !
 ! R31   R(27,28)                1.5354                                         !
 ! R32   R(27,29)                1.5353                                         !
 ! R33   R(27,32)                1.0988                                         !
 ! R34   R(28,33)                1.0941                                         !
 ! R35   R(28,34)                1.0973                                         !
 ! R36   R(28,35)                1.093                                          !
 ! R37   R(29,36)                1.0941                                         !
 ! R38   R(29,37)                1.0953                                         !
 ! R39   R(29,38)                1.0946                                         !
 ! R40   R(39,40)                1.4704                                         !
 ! R41   R(39,53)                1.018                                          !
 ! R42   R(40,41)                1.5396                                         !
 ! R43   R(40,43)                1.539                                          !
 ! R44   R(40,54)                1.087                                          !
 ! R45   R(41,42)                1.2028                                         !
 ! R46   R(41,50)                1.3633                                         !
 ! R47   R(43,44)                1.5369                                         !
 ! R48   R(43,55)                1.0925                                         !
 ! R49   R(43,56)                1.0982                                         !
 ! R50   R(44,45)                1.5324                                         !
 ! R51   R(44,57)                1.0968                                         !
 ! R52   R(44,58)                1.0935                                         !
 ! R53   R(45,46)                1.475                                          !
 ! R54   R(45,59)                1.0962                                         !
 ! R55   R(45,60)                1.0958                                         !
 ! R56   R(46,47)                1.3318                                         !
 ! R57   R(46,61)                1.0201                                         !
 ! R58   R(47,48)                1.3458                                         !
 ! R59   R(47,49)                1.3412                                         !
 ! R60   R(48,52)                1.0094                                         !
 ! R61   R(48,62)                1.0088                                         !
 ! R62   R(49,63)                1.0095                                         !
 ! R63   R(49,64)                1.0199                                         !
 ! R64   R(50,51)                1.0007                                         !
 ! A1    A(2,1,13)             111.3881                                         !
 ! A2    A(2,1,21)             107.0457                                         !
 ! A3    A(2,1,22)             112.588                                          !
 ! A4    A(13,1,21)            104.6962                                         !
 ! A5    A(13,1,22)            109.7301                                         !
 ! A6    A(21,1,22)            111.0864                                         !
 ! A7    A(1,2,3)              101.6932                                         !
 ! A8    A(1,2,5)              111.3961                                         !
 ! A9    A(1,2,14)             105.1879                                         !
 ! A10   A(3,2,5)              120.9995                                         !
 ! A11   A(3,2,14)             106.5024                                         !
 ! A12   A(5,2,14)             109.7635                                         !
 ! A13   A(2,3,4)              117.1577                                         !
 ! A14   A(2,3,23)             119.9474                                         !
 ! A15   A(4,3,23)             122.8949                                         !
 ! A16   A(2,5,6)              114.8811                                         !
 ! A17   A(2,5,15)             106.6002                                         !
 ! A18   A(2,5,16)             106.2612                                         !
 ! A19   A(6,5,15)             112.0996                                         !
 ! A20   A(6,5,16)             111.1894                                         !
 ! A21   A(15,5,16)            105.16                                           !
 ! A22   A(5,6,7)              121.098                                          !
 ! A23   A(5,6,8)              122.2273                                         !
 ! A24   A(7,6,8)              116.4596                                         !
 ! A25   A(6,7,9)              122.6115                                         !
 ! A26   A(6,7,17)             118.7068                                         !
 ! A27   A(9,7,17)             118.6541                                         !
 ! A28   A(6,8,10)             122.1156                                         !
 ! A29   A(6,8,18)             119.4069                                         !
 ! A30   A(10,8,18)            118.4497                                         !
 ! A31   A(7,9,11)             122.0621                                         !
 ! A32   A(7,9,19)             121.1358                                         !
 ! A33   A(11,9,19)            116.7788                                         !
 ! A34   A(8,10,11)            122.1163                                         !
 ! A35   A(8,10,20)            120.5844                                         !
 ! A36   A(11,10,20)           117.0719                                         !
 ! A37   A(9,11,10)            113.7854                                         !
 ! A38   A(9,11,12)            122.9056                                         !
 ! A39   A(10,11,12)           123.2857                                         !
 ! A40   A(3,23,24)            119.231                                          !
 ! A41   A(3,23,30)            119.6662                                         !
 ! A42   A(24,23,30)           118.8145                                         !
 ! A43   A(23,24,25)           111.9432                                         !
 ! A44   A(23,24,27)           111.7384                                         !
 ! A45   A(23,24,31)           107.0807                                         !
 ! A46   A(25,24,27)           113.0336                                         !
 ! A47   A(25,24,31)           103.5773                                         !
 ! A48   A(27,24,31)           108.9291                                         !
 ! A49   A(24,25,26)           118.534                                          !
 ! A50   A(24,25,39)           118.6502                                         !
 ! A51   A(26,25,39)           122.8133                                         !
 ! A52   A(24,27,28)           112.8544                                         !
 ! A53   A(24,27,29)           110.7909                                         !
 ! A54   A(24,27,32)           105.3102                                         !
 ! A55   A(28,27,29)           110.9836                                         !
 ! A56   A(28,27,32)           108.6912                                         !
 ! A57   A(29,27,32)           107.9161                                         !
 ! A58   A(27,28,33)           110.1808                                         !
 ! A59   A(27,28,34)           110.8674                                         !
 ! A60   A(27,28,35)           112.9742                                         !
 ! A61   A(33,28,34)           107.4562                                         !
 ! A62   A(33,28,35)           107.8709                                         !
 ! A63   A(34,28,35)           107.2734                                         !
 ! A64   A(27,29,36)           110.9691                                         !
 ! A65   A(27,29,37)           111.4587                                         !
 ! A66   A(27,29,38)           109.972                                          !
 ! A67   A(36,29,37)           107.8958                                         !
 ! A68   A(36,29,38)           108.3606                                         !
 ! A69   A(37,29,38)           108.075                                          !
 ! A70   A(25,39,40)           122.2041                                         !
 ! A71   A(25,39,53)           118.7935                                         !
 ! A72   A(40,39,53)           117.8419                                         !
 ! A73   A(39,40,41)           106.6739                                         !
 ! A74   A(39,40,43)           113.9203                                         !
 ! A75   A(39,40,54)           106.3158                                         !
 ! A76   A(41,40,43)           114.4183                                         !
 ! A77   A(41,40,54)           103.9372                                         !
 ! A78   A(43,40,54)           110.7931                                         !
 ! A79   A(40,41,42)           123.2095                                         !
 ! A80   A(40,41,50)           116.4819                                         !
 ! A81   A(42,41,50)           120.1416                                         !
 ! A82   A(40,43,44)           114.8294                                         !
 ! A83   A(40,43,55)           111.1765                                         !
 ! A84   A(40,43,56)           107.325                                          !
 ! A85   A(44,43,55)           105.7992                                         !
 ! A86   A(44,43,56)           110.5896                                         !
 ! A87   A(55,43,56)           106.8785                                         !
 ! A88   A(43,44,45)           115.7612                                         !
 ! A89   A(43,44,57)           109.7567                                         !
 ! A90   A(43,44,58)           107.6682                                         !
 ! A91   A(45,44,57)           110.0994                                         !
 ! A92   A(45,44,58)           108.1634                                         !
 ! A93   A(57,44,58)           104.7778                                         !
 ! A94   A(44,45,46)           111.6531                                         !
 ! A95   A(44,45,59)           110.0989                                         !
 ! A96   A(44,45,60)           109.6229                                         !
 ! A97   A(46,45,59)           109.194                                          !
 ! A98   A(46,45,60)           108.1049                                         !
 ! A99   A(59,45,60)           108.0775                                         !
 ! A100  A(45,46,47)           126.6669                                         !
 ! A101  A(45,46,61)           117.8053                                         !
 ! A102  A(47,46,61)           113.9713                                         !
 ! A103  A(46,47,48)           121.0068                                         !
 ! A104  A(46,47,49)           119.2376                                         !
 ! A105  A(48,47,49)           119.7418                                         !
 ! A106  A(47,48,52)           121.1112                                         !
 ! A107  A(47,48,62)           121.1517                                         !
 ! A108  A(52,48,62)           117.6687                                         !
 ! A109  A(47,49,63)           121.0804                                         !
 ! A110  A(47,49,64)           118.4458                                         !
 ! A111  A(63,49,64)           119.0125                                         !
 ! A112  A(41,50,51)           116.3084                                         !
 ! D1    D(13,1,2,3)           -68.4361                                         !
 ! D2    D(13,1,2,5)            61.8023                                         !
 ! D3    D(13,1,2,14)         -179.3374                                         !
 ! D4    D(21,1,2,3)            45.4587                                         !
 ! D5    D(21,1,2,5)           175.6971                                         !
 ! D6    D(21,1,2,14)          -65.4425                                         !
 ! D7    D(22,1,2,3)           167.8109                                         !
 ! D8    D(22,1,2,5)           -61.9508                                         !
 ! D9    D(22,1,2,14)           56.9096                                         !
 ! D10   D(1,2,3,4)            -34.5902                                         !
 ! D11   D(1,2,3,23)           145.482                                          !
 ! D12   D(5,2,3,4)           -158.5752                                         !
 ! D13   D(5,2,3,23)            21.497                                          !
 ! D14   D(14,2,3,4)            75.3078                                         !
 ! D15   D(14,2,3,23)         -104.62                                           !
 ! D16   D(1,2,5,6)            -66.9059                                         !
 ! D17   D(1,2,5,15)            57.9146                                         !
 ! D18   D(1,2,5,16)           169.7053                                         !
 ! D19   D(3,2,5,6)             52.3929                                         !
 ! D20   D(3,2,5,15)           177.2134                                         !
 ! D21   D(3,2,5,16)           -70.9958                                         !
 ! D22   D(14,2,5,6)           177.0048                                         !
 ! D23   D(14,2,5,15)          -58.1747                                         !
 ! D24   D(14,2,5,16)           53.6161                                         !
 ! D25   D(2,3,23,24)         -174.3778                                         !
 ! D26   D(2,3,23,30)          -11.753                                          !
 ! D27   D(4,3,23,24)            5.6987                                         !
 ! D28   D(4,3,23,30)          168.3235                                         !
 ! D29   D(2,5,6,7)            -97.2794                                         !
 ! D30   D(2,5,6,8)             77.2006                                         !
 ! D31   D(15,5,6,7)           140.8359                                         !
 ! D32   D(15,5,6,8)           -44.6842                                         !
 ! D33   D(16,5,6,7)            23.4405                                         !
 ! D34   D(16,5,6,8)          -162.0796                                         !
 ! D35   D(5,6,7,9)            166.8803                                         !
 ! D36   D(5,6,7,17)           -15.0593                                         !
 ! D37   D(8,6,7,9)             -7.9045                                         !
 ! D38   D(8,6,7,17)           170.1559                                         !
 ! D39   D(5,6,8,10)          -165.707                                          !
 ! D40   D(5,6,8,18)            12.3448                                         !
 ! D41   D(7,6,8,10)             9.0139                                         !
 ! D42   D(7,6,8,18)          -172.9343                                         !
 ! D43   D(6,7,9,11)             0.0548                                         !
 ! D44   D(6,7,9,19)           178.2458                                         !
 ! D45   D(17,7,9,11)         -178.0066                                         !
 ! D46   D(17,7,9,19)            0.1844                                         !
 ! D47   D(6,8,10,11)           -2.3975                                         !
 ! D48   D(6,8,10,20)         -176.7577                                         !
 ! D49   D(18,8,10,11)         179.5327                                         !
 ! D50   D(18,8,10,20)           5.1726                                         !
 ! D51   D(7,9,11,10)            6.4548                                         !
 ! D52   D(7,9,11,12)         -171.8395                                         !
 ! D53   D(19,9,11,10)        -171.8108                                         !
 ! D54   D(19,9,11,12)           9.8949                                         !
 ! D55   D(8,10,11,9)           -5.3293                                         !
 ! D56   D(8,10,11,12)         172.9576                                         !
 ! D57   D(20,10,11,9)         169.2186                                         !
 ! D58   D(20,10,11,12)        -12.4945                                         !
 ! D59   D(3,23,24,25)          61.7917                                         !
 ! D60   D(3,23,24,27)        -170.2737                                         !
 ! D61   D(3,23,24,31)         -51.0733                                         !
 ! D62   D(30,23,24,25)       -100.9816                                         !
 ! D63   D(30,23,24,27)         26.9531                                         !
 ! D64   D(30,23,24,31)        146.1534                                         !
 ! D65   D(23,24,25,26)       -157.7059                                         !
 ! D66   D(23,24,25,39)         22.8523                                         !
 ! D67   D(27,24,25,26)         75.0525                                         !
 ! D68   D(27,24,25,39)       -104.3893                                         !
 ! D69   D(31,24,25,26)        -42.6781                                         !
 ! D70   D(31,24,25,39)        137.8801                                         !
 ! D71   D(23,24,27,28)        -77.21                                           !
 ! D72   D(23,24,27,29)        157.641                                          !
 ! D73   D(23,24,27,32)         41.2112                                         !
 ! D74   D(25,24,27,28)         50.1394                                         !
 ! D75   D(25,24,27,29)        -75.0097                                         !
 ! D76   D(25,24,27,32)        168.5606                                         !
 ! D77   D(31,24,27,28)        164.6893                                         !
 ! D78   D(31,24,27,29)         39.5403                                         !
 ! D79   D(31,24,27,32)        -76.8895                                         !
 ! D80   D(24,25,39,40)       -156.1434                                         !
 ! D81   D(24,25,39,53)         11.2729                                         !
 ! D82   D(26,25,39,40)         24.44                                           !
 ! D83   D(26,25,39,53)       -168.1436                                         !
 ! D84   D(24,27,28,33)        173.2433                                         !
 ! D85   D(24,27,28,34)        -67.9312                                         !
 ! D86   D(24,27,28,35)         52.5174                                         !
 ! D87   D(29,27,28,33)        -61.7124                                         !
 ! D88   D(29,27,28,34)         57.1132                                         !
 ! D89   D(29,27,28,35)        177.5617                                         !
 ! D90   D(32,27,28,33)         56.8145                                         !
 ! D91   D(32,27,28,34)        175.6401                                         !
 ! D92   D(32,27,28,35)        -63.9113                                         !
 ! D93   D(24,27,29,36)         62.2425                                         !
 ! D94   D(24,27,29,37)        -58.0382                                         !
 ! D95   D(24,27,29,38)       -177.8764                                         !
 ! D96   D(28,27,29,36)        -63.9552                                         !
 ! D97   D(28,27,29,37)        175.7641                                         !
 ! D98   D(28,27,29,38)         55.9259                                         !
 ! D99   D(32,27,29,36)        177.0507                                         !
 ! D100  D(32,27,29,37)         56.7701                                         !
 ! D101  D(32,27,29,38)        -63.0682                                         !
 ! D102  D(25,39,40,41)        101.627                                          !
 ! D103  D(25,39,40,43)       -131.1483                                         !
 ! D104  D(25,39,40,54)         -8.8393                                         !
 ! D105  D(53,39,40,41)        -65.9033                                         !
 ! D106  D(53,39,40,43)         61.3214                                         !
 ! D107  D(53,39,40,54)       -176.3696                                         !
 ! D108  D(39,40,41,42)       -111.7509                                         !
 ! D109  D(39,40,41,50)         63.5493                                         !
 ! D110  D(43,40,41,42)        121.3201                                         !
 ! D111  D(43,40,41,50)        -63.3796                                         !
 ! D112  D(54,40,41,42)          0.3654                                         !
 ! D113  D(54,40,41,50)        175.6656                                         !
 ! D114  D(39,40,43,44)         50.7536                                         !
 ! D115  D(39,40,43,55)        -69.3107                                         !
 ! D116  D(39,40,43,56)        174.137                                          !
 ! D117  D(41,40,43,44)        173.8534                                         !
 ! D118  D(41,40,43,55)         53.7891                                         !
 ! D119  D(41,40,43,56)        -62.7632                                         !
 ! D120  D(54,40,43,44)        -69.0594                                         !
 ! D121  D(54,40,43,55)        170.8763                                         !
 ! D122  D(54,40,43,56)         54.324                                          !
 ! D123  D(40,41,50,51)         14.5054                                         !
 ! D124  D(42,41,50,51)       -170.0412                                         !
 ! D125  D(40,43,44,45)         76.3153                                         !
 ! D126  D(40,43,44,57)        -49.0487                                         !
 ! D127  D(40,43,44,58)       -162.5548                                         !
 ! D128  D(55,43,44,45)       -160.6884                                         !
 ! D129  D(55,43,44,57)         73.9477                                         !
 ! D130  D(55,43,44,58)        -39.5585                                         !
 ! D131  D(56,43,44,45)        -45.3078                                         !
 ! D132  D(56,43,44,57)       -170.6717                                         !
 ! D133  D(56,43,44,58)         75.8221                                         !
 ! D134  D(43,44,45,46)        -65.9399                                         !
 ! D135  D(43,44,45,59)        172.5976                                         !
 ! D136  D(43,44,45,60)         53.8296                                         !
 ! D137  D(57,44,45,46)         59.2484                                         !
 ! D138  D(57,44,45,59)        -62.2141                                         !
 ! D139  D(57,44,45,60)        179.0179                                         !
 ! D140  D(58,44,45,46)        173.1967                                         !
 ! D141  D(58,44,45,59)         51.7342                                         !
 ! D142  D(58,44,45,60)        -67.0338                                         !
 ! D143  D(44,45,46,47)        136.6717                                         !
 ! D144  D(44,45,46,61)        -28.1751                                         !
 ! D145  D(59,45,46,47)       -101.3433                                         !
 ! D146  D(59,45,46,61)         93.81                                           !
 ! D147  D(60,45,46,47)         16.0116                                         !
 ! D148  D(60,45,46,61)       -148.8352                                         !
 ! D149  D(45,46,47,48)         21.2521                                         !
 ! D150  D(45,46,47,49)       -157.3958                                         !
 ! D151  D(61,46,47,48)       -173.4057                                         !
 ! D152  D(61,46,47,49)          7.9465                                         !
 ! D153  D(46,47,48,52)       -167.4915                                         !
 ! D154  D(46,47,48,62)         15.5875                                         !
 ! D155  D(49,47,48,52)         11.1496                                         !
 ! D156  D(49,47,48,62)       -165.7714                                         !
 ! D157  D(46,47,49,63)       -159.9543                                         !
 ! D158  D(46,47,49,64)          6.1168                                         !
 ! D159  D(48,47,49,63)         21.3805                                         !
 ! D160  D(48,47,49,64)       -172.5484                                         !
 --------------------------------------------------------------------------------
 Symmetry turned off by external request.
 Stoichiometry    C20H33N6O5(1+)
 Framework group  C1[X(C20H33N6O5)]
 Deg. of freedom   186
 Full point group                 C1      NOp   1
                          Input orientation:                          
 ---------------------------------------------------------------------
 Center     Atomic      Atomic             Coordinates (Angstroms)
 Number     Number       Type             X           Y           Z
 ---------------------------------------------------------------------
      1          7           0       31.498191  -29.230357   40.193587
      2          6           0       30.797789  -30.307445   41.003635
      3          6           0       31.867793  -31.428506   41.027153
      4          8           0       32.572040  -31.555338   40.023310
      5          6           0       30.213175  -29.735039   42.318658
      6          6           0       31.238076  -29.272245   43.318488
      7          6           0       31.644540  -30.106158   44.388916
      8          6           0       31.920371  -28.053816   43.181282
      9          6           0       32.754947  -29.835155   45.162832
     10          6           0       33.061430  -27.754632   43.926435
     11          6           0       33.590400  -28.665898   44.932652
     12          8           0       34.681270  -28.480727   45.523734
     13          1           0       32.306599  -28.825118   40.716969
     14          1           0       29.984252  -30.666620   40.361465
     15          1           0       29.522123  -28.928526   42.030649
     16          1           0       29.575109  -30.523060   42.740141
     17          1           0       31.036991  -30.983201   44.631866
     18          1           0       31.571584  -27.323326   42.447491
     19          1           0       33.028951  -30.476204   45.996231
     20          1           0       33.540546  -26.782088   43.838564
     21          1           0       31.922616  -29.695180   39.374931
     22          1           0       30.863878  -28.481504   39.903921
     23          7           0       31.995084  -32.214359   42.114620
     24          6           0       33.090599  -33.186205   42.171035
     25          6           0       34.468321  -32.503044   42.121861
     26          8           0       35.447415  -33.168207   41.744583
     27          6           0       32.936561  -34.157276   43.372724
     28          6           0       33.339541  -33.519700   44.710111
     29          6           0       33.715680  -35.457015   43.126406
     30          1           0       31.522585  -31.962368   42.972190
     31          1           0       33.056645  -33.762770   41.242393
     32          1           0       31.866932  -34.406135   43.409389
     33          1           0       33.102429  -34.195649   45.537152
     34          1           0       34.419322  -33.327075   44.741656
     35          1           0       32.834614  -32.568882   44.898740
     36          1           0       34.787243  -35.258686   43.028852
     37          1           0       33.381292  -35.957332   42.211185
     38          1           0       33.567414  -36.146219   43.963796
     39          7           0       34.564126  -31.208930   42.501565
     40          6           0       35.647642  -30.332693   42.032183
     41          6           0       35.052767  -29.452883   40.917573
     42          8           0       35.371202  -29.549141   39.761696
     43          6           0       36.347399  -29.548541   43.156487
     44          6           0       36.814078  -30.403195   44.345556
     45          6           0       38.081234  -31.232854   44.112747
     46          7           0       37.866239  -32.281799   43.098314
     47          6           0       38.695135  -32.614667   42.110446
     48          7           0       40.005412  -32.314326   42.174033
     49          7           0       38.206471  -33.234584   41.026126
     50          8           0       34.052867  -28.601457   41.283577
     51          1           0       33.937169  -28.449412   42.265903
     52          1           0       40.598579  -32.392989   41.361098
     53          1           0       33.770873  -30.775213   42.969427
     54          1           0       36.354345  -30.973345   41.510948
     55          1           0       35.685835  -28.788174   43.578173
     56          1           0       37.196540  -29.017793   42.705500
     57          1           0       35.995180  -31.051624   44.680093
     58          1           0       36.997690  -29.729239   45.186875
     59          1           0       38.403663  -31.699390   45.050827
     60          1           0       38.888960  -30.580541   43.762193
     61          1           0       36.922037  -32.652267   42.989629
     62          1           0       40.437908  -32.047248   43.045438
     63          1           0       38.809355  -33.760643   40.410560
     64          1           0       37.196263  -33.349727   40.946333
 ---------------------------------------------------------------------
 Rotational constants (GHZ):           0.2008054           0.1240841           0.1122013
 Standard basis: 6-31G(d) (6D, 7F)
   531 basis functions,  1000 primitive gaussians,   531 cartesian basis functions
   117 alpha electrons      117 beta electrons
       nuclear repulsion energy      3625.8976697137 Hartrees.
 NAtoms=   64 NActive=   64 NUniq=   64 SFac= 1.00D+00 NAtFMM=   60 NAOKFM=T Big=T
 Integral buffers will be    131072 words long.
 Raffenetti 2 integral format.
 Two-electron integral symmetry is turned off.
 Nuclear repulsion after empirical dispersion term =     3625.7953059660 Hartrees.
 One-electron integrals computed using PRISM.
 NBasis=   531 RedAO= T EigKep=  4.90D-04  NBF=   531
 NBsUse=   531 1.00D-06 EigRej= -1.00D+00 NBFU=   531
 Initial guess from the checkpoint file:  "conf-962.chk"
 B after Tr=     0.000000    0.000000    0.000000
         Rot=    1.000000    0.000000    0.000000    0.000000 Ang=   0.00 deg.
 Requested convergence on RMS density matrix=1.00D-08 within 128 cycles.
 Requested convergence on MAX density matrix=1.00D-06.
 Requested convergence on             energy=1.00D-06.
 No special actions if energy rises.
 SCF Done:  E(RB3LYP) =  -1486.54086700     A.U. after    1 cycles
            NFock=  1  Conv=0.47D-08     -V/T= 2.0094

 **********************************************************************

            Population analysis using the SCF Density.

 **********************************************************************

 Alpha  occ. eigenvalues --  -19.29666 -19.25463 -19.25229 -19.24054 -19.13579
 Alpha  occ. eigenvalues --  -14.57694 -14.51762 -14.50532 -14.50301 -14.49484
 Alpha  occ. eigenvalues --  -14.48634 -10.47401 -10.42810 -10.42332 -10.42052
 Alpha  occ. eigenvalues --  -10.39168 -10.35287 -10.35042 -10.35039 -10.32029
 Alpha  occ. eigenvalues --  -10.30854 -10.29766 -10.29123 -10.28975 -10.27710
 Alpha  occ. eigenvalues --  -10.27653 -10.27591 -10.27003 -10.26872 -10.24718
 Alpha  occ. eigenvalues --  -10.24356  -1.20020  -1.18143  -1.16659  -1.15781
 Alpha  occ. eigenvalues --   -1.12342  -1.11753  -1.06421  -1.05163  -1.04575
 Alpha  occ. eigenvalues --   -1.03940  -1.03484  -0.93829  -0.92003  -0.90854
 Alpha  occ. eigenvalues --   -0.89327  -0.86883  -0.83212  -0.82234  -0.81234
 Alpha  occ. eigenvalues --   -0.79968  -0.78477  -0.77588  -0.75498  -0.73590
 Alpha  occ. eigenvalues --   -0.73305  -0.72642  -0.71824  -0.71540  -0.70956
 Alpha  occ. eigenvalues --   -0.69735  -0.69164  -0.68405  -0.67761  -0.66333
 Alpha  occ. eigenvalues --   -0.65108  -0.64699  -0.64517  -0.64004  -0.61843
 Alpha  occ. eigenvalues --   -0.60400  -0.60132  -0.59610  -0.58753  -0.57522
 Alpha  occ. eigenvalues --   -0.57295  -0.56560  -0.56176  -0.55417  -0.54695
 Alpha  occ. eigenvalues --   -0.54636  -0.54360  -0.53797  -0.53252  -0.52596
 Alpha  occ. eigenvalues --   -0.52367  -0.51934  -0.51369  -0.50877  -0.49608
 Alpha  occ. eigenvalues --   -0.49478  -0.49193  -0.48679  -0.48501  -0.47735
 Alpha  occ. eigenvalues --   -0.46977  -0.45967  -0.45783  -0.45199  -0.44669
 Alpha  occ. eigenvalues --   -0.44581  -0.44125  -0.43823  -0.42420  -0.42266
 Alpha  occ. eigenvalues --   -0.41871  -0.41658  -0.41073  -0.40366  -0.39581
 Alpha  occ. eigenvalues --   -0.39444  -0.37808  -0.37303  -0.36095  -0.33323
 Alpha  occ. eigenvalues --   -0.27324  -0.25293
 Alpha virt. eigenvalues --   -0.12869  -0.12234  -0.11502  -0.09120  -0.08657
 Alpha virt. eigenvalues --   -0.07701  -0.06978  -0.05878  -0.03513  -0.03288
 Alpha virt. eigenvalues --   -0.02620  -0.02126  -0.01542  -0.01159  -0.00094
 Alpha virt. eigenvalues --    0.00052   0.00819   0.01728   0.02183   0.02375
 Alpha virt. eigenvalues --    0.02889   0.03442   0.03817   0.04225   0.04826
 Alpha virt. eigenvalues --    0.04920   0.05385   0.05856   0.06269   0.06589
 Alpha virt. eigenvalues --    0.07028   0.07225   0.07463   0.07763   0.08214
 Alpha virt. eigenvalues --    0.08536   0.09089   0.09686   0.09892   0.10516
 Alpha virt. eigenvalues --    0.11137   0.11408   0.11795   0.12275   0.12393
 Alpha virt. eigenvalues --    0.12817   0.13051   0.13411   0.13905   0.14497
 Alpha virt. eigenvalues --    0.15237   0.16256   0.17153   0.18087   0.18983
 Alpha virt. eigenvalues --    0.19079   0.21505   0.22572   0.23300   0.24032
 Alpha virt. eigenvalues --    0.24590   0.25099   0.26040   0.26367   0.27290
 Alpha virt. eigenvalues --    0.28216   0.29789   0.31016   0.31633   0.36378
 Alpha virt. eigenvalues --    0.37149   0.37640   0.38828   0.38936   0.39634
 Alpha virt. eigenvalues --    0.39951   0.40144   0.40928   0.41040   0.41793
 Alpha virt. eigenvalues --    0.42401   0.43057   0.44113   0.44229   0.45139
 Alpha virt. eigenvalues --    0.45697   0.45908   0.46868   0.47109   0.47527
 Alpha virt. eigenvalues --    0.48414   0.48798   0.48956   0.50327   0.50910
 Alpha virt. eigenvalues --    0.51242   0.51716   0.51874   0.53021   0.53083
 Alpha virt. eigenvalues --    0.53572   0.54020   0.54647   0.54974   0.55377
 Alpha virt. eigenvalues --    0.56165   0.56725   0.57090   0.57873   0.58515
 Alpha virt. eigenvalues --    0.59008   0.60097   0.60381   0.60685   0.61016
 Alpha virt. eigenvalues --    0.61717   0.63141   0.63380   0.64173   0.64863
 Alpha virt. eigenvalues --    0.65847   0.66872   0.67455   0.67739   0.68033
 Alpha virt. eigenvalues --    0.69009   0.69271   0.69719   0.70051   0.70428
 Alpha virt. eigenvalues --    0.71309   0.71974   0.72291   0.72495   0.72842
 Alpha virt. eigenvalues --    0.72978   0.73693   0.74179   0.75095   0.75114
 Alpha virt. eigenvalues --    0.75592   0.76682   0.76924   0.77423   0.77943
 Alpha virt. eigenvalues --    0.78695   0.78916   0.79105   0.79848   0.80131
 Alpha virt. eigenvalues --    0.80605   0.81039   0.81470   0.81805   0.82133
 Alpha virt. eigenvalues --    0.82816   0.83399   0.84043   0.84527   0.84981
 Alpha virt. eigenvalues --    0.85007   0.85683   0.86671   0.87348   0.88252
 Alpha virt. eigenvalues --    0.88844   0.89282   0.90380   0.90577   0.91937
 Alpha virt. eigenvalues --    0.92609   0.93170   0.93445   0.94920   0.95605
 Alpha virt. eigenvalues --    0.96005   0.96836   0.97529   0.98999   0.99863
 Alpha virt. eigenvalues --    1.00148   1.01172   1.01846   1.02100   1.03123
 Alpha virt. eigenvalues --    1.03954   1.04237   1.05141   1.05659   1.07590
 Alpha virt. eigenvalues --    1.09063   1.09919   1.12014   1.12305   1.12711
 Alpha virt. eigenvalues --    1.13056   1.14231   1.15097   1.16655   1.17210
 Alpha virt. eigenvalues --    1.18403   1.18608   1.19643   1.19951   1.20716
 Alpha virt. eigenvalues --    1.21587   1.22390   1.22983   1.23824   1.24738
 Alpha virt. eigenvalues --    1.25806   1.28231   1.29023   1.29445   1.31460
 Alpha virt. eigenvalues --    1.32745   1.33565   1.34942   1.35918   1.37294
 Alpha virt. eigenvalues --    1.37902   1.38559   1.39046   1.39698   1.40869
 Alpha virt. eigenvalues --    1.41399   1.43301   1.44313   1.45428   1.46254
 Alpha virt. eigenvalues --    1.46976   1.48370   1.49031   1.50347   1.50924
 Alpha virt. eigenvalues --    1.52256   1.52619   1.52920   1.54257   1.55865
 Alpha virt. eigenvalues --    1.56281   1.57185   1.58397   1.59809   1.60808
 Alpha virt. eigenvalues --    1.63629   1.64341   1.65164   1.66165   1.66506
 Alpha virt. eigenvalues --    1.67567   1.68630   1.68809   1.68979   1.69855
 Alpha virt. eigenvalues --    1.70862   1.71041   1.71533   1.71570   1.72820
 Alpha virt. eigenvalues --    1.73507   1.74933   1.75714   1.76207   1.76992
 Alpha virt. eigenvalues --    1.77388   1.78661   1.79247   1.79497   1.80022
 Alpha virt. eigenvalues --    1.80853   1.81253   1.82296   1.83076   1.83641
 Alpha virt. eigenvalues --    1.84455   1.85039   1.86371   1.87093   1.87419
 Alpha virt. eigenvalues --    1.88251   1.88889   1.89995   1.90093   1.90569
 Alpha virt. eigenvalues --    1.91444   1.92076   1.92650   1.93254   1.94305
 Alpha virt. eigenvalues --    1.94842   1.95713   1.96355   1.96959   1.97502
 Alpha virt. eigenvalues --    1.98449   1.98994   1.99959   2.00471   2.01931
 Alpha virt. eigenvalues --    2.02262   2.03977   2.04956   2.05944   2.06794
 Alpha virt. eigenvalues --    2.06915   2.07338   2.08118   2.09429   2.11516
 Alpha virt. eigenvalues --    2.13096   2.13229   2.16203   2.16596   2.17318
 Alpha virt. eigenvalues --    2.17926   2.19564   2.19906   2.20390   2.20832
 Alpha virt. eigenvalues --    2.22991   2.24313   2.25085   2.25708   2.26324
 Alpha virt. eigenvalues --    2.27283   2.28174   2.28692   2.29576   2.30343
 Alpha virt. eigenvalues --    2.30890   2.32531   2.33952   2.34871   2.36399
 Alpha virt. eigenvalues --    2.36804   2.37073   2.39748   2.40129   2.42862
 Alpha virt. eigenvalues --    2.43161   2.43785   2.45533   2.45974   2.46526
 Alpha virt. eigenvalues --    2.48416   2.49643   2.50692   2.52250   2.53571
 Alpha virt. eigenvalues --    2.54341   2.55393   2.56030   2.56627   2.57334
 Alpha virt. eigenvalues --    2.58951   2.59451   2.60276   2.62159   2.63049
 Alpha virt. eigenvalues --    2.64803   2.66763   2.67980   2.68761   2.68841
 Alpha virt. eigenvalues --    2.70910   2.74096   2.78302   2.79946   2.82456
 Alpha virt. eigenvalues --    2.83545   2.85510   2.89506   2.90023   2.90417
 Alpha virt. eigenvalues --    2.94410   2.97513   2.97990   3.02042   3.03735
 Alpha virt. eigenvalues --    3.06056   3.09595   3.28811   3.66548   3.73381
 Alpha virt. eigenvalues --    3.74981   3.87814   3.92223   3.93768   3.97926
 Alpha virt. eigenvalues --    4.00378   4.03311   4.05699   4.06328   4.10201
 Alpha virt. eigenvalues --    4.12279   4.15869   4.17690   4.18787   4.21021
 Alpha virt. eigenvalues --    4.22513   4.25423   4.28653   4.30222   4.34766
 Alpha virt. eigenvalues --    4.38266   4.41545   4.45665   4.46618   4.49243
 Alpha virt. eigenvalues --    4.51137   4.59379   4.65580   4.77599
          Condensed to atoms (all electrons):
 Mulliken charges:
               1
     1  N   -0.763759
     2  C   -0.120503
     3  C    0.644848
     4  O   -0.524600
     5  C   -0.403572
     6  C    0.155190
     7  C   -0.241767
     8  C   -0.200981
     9  C   -0.228121
    10  C   -0.333027
    11  C    0.441276
    12  O   -0.620671
    13  H    0.454977
    14  H    0.218938
    15  H    0.173873
    16  H    0.182205
    17  H    0.126496
    18  H    0.108111
    19  H    0.136608
    20  H    0.151615
    21  H    0.425859
    22  H    0.403134
    23  N   -0.637550
    24  C   -0.025065
    25  C    0.643791
    26  O   -0.576729
    27  C   -0.120340
    28  C   -0.480350
    29  C   -0.449302
    30  H    0.354050
    31  H    0.211804
    32  H    0.158275
    33  H    0.178084
    34  H    0.148358
    35  H    0.157398
    36  H    0.159225
    37  H    0.159223
    38  H    0.166420
    39  N   -0.607960
    40  C   -0.092435
    41  C    0.621609
    42  O   -0.423010
    43  C   -0.312472
    44  C   -0.301780
    45  C   -0.159587
    46  N   -0.608790
    47  C    0.793011
    48  N   -0.759289
    49  N   -0.780282
    50  O   -0.651317
    51  H    0.427651
    52  H    0.380947
    53  H    0.367169
    54  H    0.178858
    55  H    0.217760
    56  H    0.155919
    57  H    0.170003
    58  H    0.217840
    59  H    0.189820
    60  H    0.168487
    61  H    0.390996
    62  H    0.386495
    63  H    0.369433
    64  H    0.427507
 Sum of Mulliken charges =   1.00000
 Mulliken charges with hydrogens summed into heavy atoms:
               1
     1  N    0.520210
     2  C    0.098435
     3  C    0.644848
     4  O   -0.524600
     5  C   -0.047495
     6  C    0.155190
     7  C   -0.115271
     8  C   -0.092870
     9  C   -0.091513
    10  C   -0.181412
    11  C    0.441276
    12  O   -0.620671
    23  N   -0.283500
    24  C    0.186739
    25  C    0.643791
    26  O   -0.576729
    27  C    0.037934
    28  C    0.003490
    29  C    0.035566
    39  N   -0.240791
    40  C    0.086423
    41  C    0.621609
    42  O   -0.423010
    43  C    0.061207
    44  C    0.086063
    45  C    0.198720
    46  N   -0.217794
    47  C    0.793011
    48  N    0.008153
    49  N    0.016658
    50  O   -0.223666
 Electronic spatial extent (au):  <R**2>=        3312845.7922
 Charge=              1.0000 electrons
 Dipole moment (field-independent basis, Debye):
    X=            169.1293    Y=           -154.7913    Z=            197.9684  Tot=            302.9135
 Quadrupole moment (field-independent basis, Debye-Ang):
   XX=           5894.1729   YY=           4815.9929   ZZ=           7965.9714
   XY=          -5477.4843   XZ=           6990.9418   YZ=          -6407.8281
 Traceless Quadrupole moment (field-independent basis, Debye-Ang):
   XX=           -331.2062   YY=          -1409.3862   ZZ=           1740.5924
   XY=          -5477.4843   XZ=           6990.9418   YZ=          -6407.8281
 Octapole moment (field-independent basis, Debye-Ang**2):
  XXX=         203800.4919  YYY=        -144766.1320  ZZZ=         311504.6996  XYY=         171406.4535
  XXY=        -191955.0645  XXZ=         244102.8977  XZZ=         282363.7086  YZZ=        -259372.3638
  YYZ=         199923.9627  XYZ=        -227295.4843
 Hexadecapole moment (field-independent basis, Debye-Ang**3):
 XXXX=        7002761.6532 YYYY=        4187334.4851 ZZZZ=       11739692.2684 XXXY=       -6678449.9470
 XXXZ=        8449597.5763 YYYX=       -5188863.8873 YYYZ=       -6019200.9839 ZZZX=       11097911.5328
 ZZZY=      -10226305.7368 XXYY=        6041057.0028 XXZZ=        9881973.3421 YYZZ=        8118253.9897
 XXYZ=       -7977666.5790 YYXZ=        7130067.9695 ZZXY=       -9230456.0598
 N-N= 3.625795305966D+03 E-N=-1.068734573768D+04  KE= 1.472711596132D+03
 Unable to Open any file for archive entry.
 1\1\GINC-SKL-148\SP\RB3LYP\6-31G(d)\C20H33N6O5(1+)\KENGMITH\31-May-202
 2\0\\# B3LYP/6-31G* empiricaldispersion=gd3 guess=read geom=check nosy
 mm integral(ultrafinegrid)\\Candidate Structure: Conf:962 Charge calc 
 in gas phase\\1,1\N,0,31.4981908211,-29.2303574314,40.1935873715\C,0,3
 0.7977894444,-30.3074447813,41.0036346899\C,0,31.8677928849,-31.428506
 2384,41.0271525183\O,0,32.5720404379,-31.5553375711,40.0233102168\C,0,
 30.2131748335,-29.7350385609,42.3186576784\C,0,31.2380759079,-29.27224
 5439,43.3184880265\C,0,31.6445401653,-30.106157859,44.3889157137\C,0,3
 1.9203711106,-28.0538159317,43.1812821427\C,0,32.7549473708,-29.835154
 911,45.1628315486\C,0,33.0614303591,-27.7546315527,43.9264348638\C,0,3
 3.590400381,-28.6658979871,44.9326521326\O,0,34.6812702748,-28.4807265
 353,45.5237338143\H,0,32.3065994611,-28.8251179264,40.7169694761\H,0,2
 9.9842523602,-30.6666200152,40.3614647015\H,0,29.5221232621,-28.928525
 6464,42.030648795\H,0,29.5751089275,-30.5230602789,42.7401412379\H,0,3
 1.0369914169,-30.9832010532,44.63186612\H,0,31.5715844518,-27.32332554
 05,42.4474914915\H,0,33.0289510275,-30.4762039851,45.9962307149\H,0,33
 .5405456891,-26.7820882001,43.8385636264\H,0,31.922615864,-29.69517967
 62,39.3749311291\H,0,30.8638778415,-28.4815036412,39.9039212287\N,0,31
 .9950843651,-32.2143594665,42.1146201503\C,0,33.0905988099,-33.1862050
 681,42.1710353275\C,0,34.4683210022,-32.503044483,42.121861356\O,0,35.
 4474147307,-33.1682074412,41.7445829038\C,0,32.9365614815,-34.15727633
 76,43.3727241146\C,0,33.3395406945,-33.5196995712,44.7101108816\C,0,33
 .715679645,-35.457015365,43.1264062646\H,0,31.5225850069,-31.962368404
 8,42.9721903176\H,0,33.0566454886,-33.7627699484,41.2423927477\H,0,31.
 8669319151,-34.4061350362,43.4093892446\H,0,33.1024294709,-34.19564935
 9,45.5371523636\H,0,34.419322125,-33.3270752686,44.7416556454\H,0,32.8
 34614155,-32.5688822109,44.8987400923\H,0,34.7872425131,-35.2586856124
 ,43.0288515066\H,0,33.381291685,-35.957331997,42.2111848163\H,0,33.567
 4137649,-36.1462192301,43.963796225\N,0,34.564126484,-31.2089296732,42
 .5015646221\C,0,35.6476418263,-30.3326934251,42.0321825406\C,0,35.0527
 668035,-29.452882962,40.9175726677\O,0,35.3712016798,-29.5491413084,39
 .7616957975\C,0,36.3473990982,-29.5485410546,43.1564874311\C,0,36.8140
 777586,-30.403195056,44.3455559195\C,0,38.0812344061,-31.2328535188,44
 .1127469301\N,0,37.8662387814,-32.2817985491,43.0983144084\C,0,38.6951
 35199,-32.6146665207,42.1104458356\N,0,40.0054121545,-32.3143264671,42
 .174033023\N,0,38.2064714699,-33.2345844349,41.0261261841\O,0,34.05286
 68882,-28.6014566221,41.2835765011\H,0,33.9371686374,-28.4494117811,42
 .2659033574\H,0,40.5985790833,-32.3929888373,41.3610984176\H,0,33.7708
 725096,-30.7752129571,42.9694268087\H,0,36.3543452824,-30.9733446062,4
 1.5109476315\H,0,35.6858348822,-28.7881735519,43.5781732259\H,0,37.196
 5396118,-29.0177933731,42.7054998511\H,0,35.9951803259,-31.0516239268,
 44.680092528\H,0,36.9976902467,-29.7292388665,45.1868750243\H,0,38.403
 6629261,-31.6993896138,45.0508270725\H,0,38.8889601253,-30.5805410293,
 43.762193247\H,0,36.922037104,-32.6522672357,42.9896290878\H,0,40.4379
 080936,-32.0472478852,43.0454379941\H,0,38.8093548043,-33.7606425829,4
 0.4105596064\H,0,37.1962627913,-33.3497265687,40.9463331917\\Version=E
 S64L-G16RevC.01\HF=-1486.540867\RMSD=4.698e-09\Dipole=1.7214104,-2.316
 6995,-2.588109\Quadrupole=-246.2436648,-1047.844091,1294.0877559,-4072
 .3752912,5197.5939043,-4764.0631618\PG=C01 [X(C20H33N6O5)]\\@
 The archive entry for this job was punched.


 BE CAREFUL NOT TO BECOME TOO GOOD OF A SONGBIRD OR 
 THEY'LL THROW YOU INTO A CAGE.

                                    -- SNOOPY TO WOODSTOCK
 Job cpu time:       0 days  0 hours  1 minutes 27.9 seconds.
 Elapsed time:       0 days  0 hours  0 minutes 22.6 seconds.
 File lengths (MBytes):  RWF=    264 Int=      0 D2E=      0 Chk=     40 Scr=     16
 Normal termination of Gaussian 16 at Tue May 31 11:50:32 2022.
