 Entering Gaussian System, Link 0=/opt/software/Gaussian/g16-AVX2-C.01/g16/g16
 Input=charge-conf-34.com
 Output=charge-conf-34.log
 Initial command:
 /opt/software/Gaussian/g16-AVX2-C.01/g16/l1.exe "/mnt/gs18/scratch/users/kengmith/Gau-10166.inp" -scrdir="/mnt/gs18/scratch/users/kengmith/"
 Entering Link 1 = /opt/software/Gaussian/g16-AVX2-C.01/g16/l1.exe PID=     10176.
  
 Copyright (c) 1988-2019, Gaussian, Inc.  All Rights Reserved.
  
 This is part of the Gaussian(R) 16 program.  It is based on
 the Gaussian(R) 09 system (copyright 2009, Gaussian, Inc.),
 the Gaussian(R) 03 system (copyright 2003, Gaussian, Inc.),
 the Gaussian(R) 98 system (copyright 1998, Gaussian, Inc.),
 the Gaussian(R) 94 system (copyright 1995, Gaussian, Inc.),
 the Gaussian 92(TM) system (copyright 1992, Gaussian, Inc.),
 the Gaussian 90(TM) system (copyright 1990, Gaussian, Inc.),
 the Gaussian 88(TM) system (copyright 1988, Gaussian, Inc.),
 the Gaussian 86(TM) system (copyright 1986, Carnegie Mellon
 University), and the Gaussian 82(TM) system (copyright 1983,
 Carnegie Mellon University). Gaussian is a federally registered
 trademark of Gaussian, Inc.
  
 This software contains proprietary and confidential information,
 including trade secrets, belonging to Gaussian, Inc.
  
 This software is provided under written license and may be
 used, copied, transmitted, or stored only in accord with that
 written license.
  
 The following legend is applicable only to US Government
 contracts under FAR:
  
                    RESTRICTED RIGHTS LEGEND
  
 Use, reproduction and disclosure by the US Government is
 subject to restrictions as set forth in subparagraphs (a)
 and (c) of the Commercial Computer Software - Restricted
 Rights clause in FAR 52.227-19.
  
 Gaussian, Inc.
 340 Quinnipiac St., Bldg. 40, Wallingford CT 06492
  
  
 ---------------------------------------------------------------
 Warning -- This program may not be used in any manner that
 competes with the business of Gaussian, Inc. or will provide
 assistance to any competitor of Gaussian, Inc.  The licensee
 of this program is prohibited from giving any competitor of
 Gaussian, Inc. access to this program.  By using this program,
 the user acknowledges that Gaussian, Inc. is engaged in the
 business of creating and licensing software in the field of
 computational chemistry and represents and warrants to the
 licensee that it is not a competitor of Gaussian, Inc. and that
 it will not use this program in any manner prohibited above.
 ---------------------------------------------------------------
  

 Cite this work as:
 Gaussian 16, Revision C.01,
 M. J. Frisch, G. W. Trucks, H. B. Schlegel, G. E. Scuseria, 
 M. A. Robb, J. R. Cheeseman, G. Scalmani, V. Barone, 
 G. A. Petersson, H. Nakatsuji, X. Li, M. Caricato, A. V. Marenich, 
 J. Bloino, B. G. Janesko, R. Gomperts, B. Mennucci, H. P. Hratchian, 
 J. V. Ortiz, A. F. Izmaylov, J. L. Sonnenberg, D. Williams-Young, 
 F. Ding, F. Lipparini, F. Egidi, J. Goings, B. Peng, A. Petrone, 
 T. Henderson, D. Ranasinghe, V. G. Zakrzewski, J. Gao, N. Rega, 
 G. Zheng, W. Liang, M. Hada, M. Ehara, K. Toyota, R. Fukuda, 
 J. Hasegawa, M. Ishida, T. Nakajima, Y. Honda, O. Kitao, H. Nakai, 
 T. Vreven, K. Throssell, J. A. Montgomery, Jr., J. E. Peralta, 
 F. Ogliaro, M. J. Bearpark, J. J. Heyd, E. N. Brothers, K. N. Kudin, 
 V. N. Staroverov, T. A. Keith, R. Kobayashi, J. Normand, 
 K. Raghavachari, A. P. Rendell, J. C. Burant, S. S. Iyengar, 
 J. Tomasi, M. Cossi, J. M. Millam, M. Klene, C. Adamo, R. Cammi, 
 J. W. Ochterski, R. L. Martin, K. Morokuma, O. Farkas, 
 J. B. Foresman, and D. J. Fox, Gaussian, Inc., Wallingford CT, 2019.
 
 ******************************************
 Gaussian 16:  ES64L-G16RevC.01  3-Jul-2019
                24-May-2022 
 ******************************************
 %mem=8gb
 %nproc=4
 Will use up to    4 processors via shared memory.
 %chk=conf-34.chk
 ----------------------------------------------------------------------
 # B3LYP/6-31G* empiricaldispersion=gd3 guess=read geom=check nosymm in
 tegral(ultrafinegrid)
 ----------------------------------------------------------------------
 1/29=2,38=1,172=1/1;
 2/12=2,15=1,40=1/2;
 3/5=1,6=6,7=1,11=2,14=-4,25=1,30=1,74=-5,75=-5,116=-2,124=31/1,2,3;
 4/5=1/1;
 5/5=2,38=6/2;
 6/7=2,8=2,9=2,10=2,28=1/1;
 99/5=1,9=1/99;
 -----------------------------------------------------
 Candidate Structure: Conf:34 Charge calc in gas phase
 -----------------------------------------------------
 Structure from the checkpoint file:  "conf-34.chk"
 Charge =  1 Multiplicity = 1
 Redundant internal coordinates found in file.  (old form).
 N,0,-0.0450760991,-91.992039802,125.5115141925
 C,0,-1.1896917772,-91.5529755445,126.3175103225
 C,0,-0.9915243803,-90.1073500794,126.8062646783
 O,0,-0.2107011755,-89.3364347539,126.2518383641
 C,0,-2.5015938618,-91.642483288,125.5044013065
 C,0,-2.8849115357,-93.0776745456,125.070631445
 C,0,-2.4271636717,-93.4912890793,123.6640669438
 O,0,-1.117005431,-93.3796231273,123.4060777871
 O,0,-3.2087779131,-93.9028892682,122.8374242033
 H,0,0.3099293595,-91.1758018041,125.0073053094
 H,0,-1.2788717163,-92.2203042083,127.1842963045
 H,0,-2.4173806431,-90.9844675891,124.6299082813
 H,0,-3.3107028063,-91.2318085347,126.1198241592
 H,0,-3.9709779235,-93.1877838428,125.0701840498
 H,0,-2.4859520694,-93.8030323382,125.7937592112
 H,0,0.7183777606,-92.3028461907,126.109580124
 H,0,-0.6312153915,-93.0143755155,124.1984462396
 N,0,-1.7680974919,-89.712747615,127.8528092564
 C,0,-1.7564602533,-88.3374974033,128.2972735188
 C,0,-3.0573973389,-88.0715354912,129.0559742238
 O,0,-3.7028482425,-88.9681537956,129.5837948442
 C,0,-0.5124201239,-88.0339116378,129.1928863357
 C,0,-0.3985952165,-86.5751378477,129.5585269657
 C,0,-0.7286767714,-86.1117955239,130.8388275158
 C,0,-0.0448561129,-85.6254398163,128.5889010258
 C,0,-0.7213285568,-84.7485642222,131.1457991579
 C,0,-0.0343841642,-84.2596426668,128.8742719595
 C,0,-0.3685504874,-83.8128681344,130.1592164921
 O,0,-0.3926345963,-82.4996032634,130.5158562162
 H,0,-2.4191556767,-90.3392563379,128.3111259228
 H,0,-1.6898808788,-87.695842397,127.410426791
 H,0,-0.5683299029,-88.6629097608,130.0878420496
 H,0,0.3545188894,-88.3560620399,128.6082844134
 H,0,-0.9944028858,-86.8273575221,131.6132205043
 H,0,0.2290930631,-85.9605035664,127.5909766719
 H,0,-0.9359440934,-84.3930862085,132.1494643297
 H,0,0.2476529462,-83.5439636744,128.1053291032
 H,0,-0.0437357605,-81.9543489597,129.7925318935
 N,0,-3.4035622377,-86.7480946881,129.1506588765
 C,0,-4.5948540105,-86.2933633733,129.8525550236
 C,0,-4.6684011646,-84.7831376832,129.8617622025
 O,0,-5.7437534004,-84.2011650642,129.785741935
 C,0,-4.6258225567,-86.7524156413,131.3509348428
 C,0,-5.6698857892,-86.0147862249,132.2202049378
 C,0,-5.1028827526,-84.7905758255,132.9957546725
 C,0,-6.0527314607,-83.5907156083,133.1219577576
 N,0,-5.8801717215,-82.6202464568,131.9619270717
 O,0,-3.5657337624,-84.0759666712,130.1241954154
 H,0,-2.7585065775,-84.6234929381,130.2806194611
 H,0,-2.9256842826,-86.1021733919,128.5353973352
 H,0,-5.5066593578,-86.6492666318,129.3619077109
 H,0,-4.8225929722,-87.8241658986,131.331316074
 H,0,-3.6178909399,-86.6263179619,131.7644659068
 H,0,-6.079004712,-86.71992667,132.9493865255
 H,0,-6.5171024537,-85.7133290173,131.59309831
 H,0,-4.8415495086,-85.1029602565,134.0118783637
 H,0,-4.1594235485,-84.4440264319,132.555076551
 H,0,-7.1021777223,-83.8949923364,133.1159308867
 H,0,-5.8658025131,-83.0109896481,134.0286755929
 H,0,-6.5864008168,-81.8773329398,131.9776190544
 H,0,-5.9234883524,-83.1149435782,131.0254711468
 H,0,-4.9574919457,-82.1734838969,131.9972701923
 Recover connectivity data from disk.
                           ----------------------------
                           !    Current Parameters    !
                           ! (Angstroms and Degrees)  !
 --------------------------                            --------------------------
 ! Name  Definition              Value                                          !
 --------------------------------------------------------------------------------
 ! R1    R(1,2)                  1.4672                                         !
 ! R2    R(1,10)                 1.023                                          !
 ! R3    R(1,16)                 1.0184                                         !
 ! R4    R(1,17)                 1.7643                                         !
 ! R5    R(2,3)                  1.5388                                         !
 ! R6    R(2,5)                  1.546                                          !
 ! R7    R(2,11)                 1.0975                                         !
 ! R8    R(3,4)                  1.2294                                         !
 ! R9    R(3,18)                 1.3616                                         !
 ! R10   R(5,6)                  1.5475                                         !
 ! R11   R(5,12)                 1.0976                                         !
 ! R12   R(5,13)                 1.0964                                         !
 ! R13   R(6,7)                  1.5359                                         !
 ! R14   R(6,14)                 1.0916                                         !
 ! R15   R(6,15)                 1.0992                                         !
 ! R16   R(7,8)                  1.34                                           !
 ! R17   R(7,9)                  1.2098                                         !
 ! R18   R(18,19)                1.4453                                         !
 ! R19   R(18,30)                1.0131                                         !
 ! R20   R(19,20)                1.5293                                         !
 ! R21   R(19,22)                1.5627                                         !
 ! R22   R(19,31)                1.0967                                         !
 ! R23   R(20,21)                1.2244                                         !
 ! R24   R(20,39)                1.3712                                         !
 ! R25   R(22,23)                1.5082                                         !
 ! R26   R(22,32)                1.0953                                         !
 ! R27   R(22,33)                1.0941                                         !
 ! R28   R(23,24)                1.401                                          !
 ! R29   R(23,25)                1.4026                                         !
 ! R30   R(24,26)                1.3974                                         !
 ! R31   R(24,34)                1.0873                                         !
 ! R32   R(25,27)                1.3953                                         !
 ! R33   R(25,35)                1.0877                                         !
 ! R34   R(26,28)                1.4048                                         !
 ! R35   R(26,36)                1.0862                                         !
 ! R36   R(27,28)                1.4008                                         !
 ! R37   R(27,37)                1.0877                                         !
 ! R38   R(28,29)                1.361                                          !
 ! R39   R(29,38)                0.9707                                         !
 ! R40   R(39,40)                1.4555                                         !
 ! R41   R(39,50)                1.012                                          !
 ! R42   R(40,41)                1.512                                          !
 ! R43   R(40,43)                1.5674                                         !
 ! R44   R(40,51)                1.0949                                         !
 ! R45   R(41,42)                1.2251                                         !
 ! R46   R(41,48)                1.336                                          !
 ! R47   R(43,44)                1.5459                                         !
 ! R48   R(43,52)                1.0898                                         !
 ! R49   R(43,53)                1.0967                                         !
 ! R50   R(44,45)                1.5562                                         !
 ! R51   R(44,54)                1.0938                                         !
 ! R52   R(44,55)                1.0963                                         !
 ! R53   R(45,46)                1.5355                                         !
 ! R54   R(45,56)                1.0947                                         !
 ! R55   R(45,57)                1.0975                                         !
 ! R56   R(46,47)                1.5223                                         !
 ! R57   R(46,58)                1.0927                                         !
 ! R58   R(46,59)                1.0923                                         !
 ! R59   R(47,60)                1.0251                                         !
 ! R60   R(47,61)                1.06                                           !
 ! R61   R(47,62)                1.0258                                         !
 ! R62   R(48,49)                0.9879                                         !
 ! A1    A(2,1,10)             107.6213                                         !
 ! A2    A(2,1,16)             110.7057                                         !
 ! A3    A(2,1,17)             108.8489                                         !
 ! A4    A(10,1,16)            105.8313                                         !
 ! A5    A(10,1,17)            102.1699                                         !
 ! A6    A(16,1,17)            120.6146                                         !
 ! A7    A(1,2,3)              110.8029                                         !
 ! A8    A(1,2,5)              110.8399                                         !
 ! A9    A(1,2,11)             108.3784                                         !
 ! A10   A(3,2,5)              109.3117                                         !
 ! A11   A(3,2,11)             109.3187                                         !
 ! A12   A(5,2,11)             108.1318                                         !
 ! A13   A(2,3,4)              121.8468                                         !
 ! A14   A(2,3,18)             116.2905                                         !
 ! A15   A(4,3,18)             121.8116                                         !
 ! A16   A(2,5,6)              114.286                                          !
 ! A17   A(2,5,12)             108.6145                                         !
 ! A18   A(2,5,13)             108.018                                          !
 ! A19   A(6,5,12)             110.5884                                         !
 ! A20   A(6,5,13)             108.7792                                         !
 ! A21   A(12,5,13)            106.217                                          !
 ! A22   A(5,6,7)              115.6337                                         !
 ! A23   A(5,6,14)             109.8824                                         !
 ! A24   A(5,6,15)             109.7363                                         !
 ! A25   A(7,6,14)             105.6031                                         !
 ! A26   A(7,6,15)             108.4567                                         !
 ! A27   A(14,6,15)            107.1463                                         !
 ! A28   A(6,7,8)              116.4408                                         !
 ! A29   A(6,7,9)              121.6552                                         !
 ! A30   A(8,7,9)              121.9027                                         !
 ! A31   A(3,18,19)            120.4983                                         !
 ! A32   A(3,18,30)            122.343                                          !
 ! A33   A(19,18,30)           117.0303                                         !
 ! A34   A(18,19,20)           108.1308                                         !
 ! A35   A(18,19,22)           111.5622                                         !
 ! A36   A(18,19,31)           107.971                                          !
 ! A37   A(20,19,22)           111.0448                                         !
 ! A38   A(20,19,31)           110.5536                                         !
 ! A39   A(22,19,31)           107.5465                                         !
 ! A40   A(19,20,21)           122.3406                                         !
 ! A41   A(19,20,39)           114.636                                          !
 ! A42   A(21,20,39)           122.9513                                         !
 ! A43   A(19,22,23)           112.764                                          !
 ! A44   A(19,22,32)           108.4267                                         !
 ! A45   A(19,22,33)           105.5075                                         !
 ! A46   A(23,22,32)           111.1744                                         !
 ! A47   A(23,22,33)           110.7641                                         !
 ! A48   A(32,22,33)           107.9347                                         !
 ! A49   A(22,23,24)           121.5774                                         !
 ! A50   A(22,23,25)           120.4212                                         !
 ! A51   A(24,23,25)           117.8554                                         !
 ! A52   A(23,24,26)           121.4765                                         !
 ! A53   A(23,24,34)           119.3907                                         !
 ! A54   A(26,24,34)           119.1325                                         !
 ! A55   A(23,25,27)           121.5527                                         !
 ! A56   A(23,25,35)           119.2867                                         !
 ! A57   A(27,25,35)           119.1606                                         !
 ! A58   A(24,26,28)           119.792                                          !
 ! A59   A(24,26,36)           121.4146                                         !
 ! A60   A(28,26,36)           118.7242                                         !
 ! A61   A(25,27,28)           119.8671                                         !
 ! A62   A(25,27,37)           120.0945                                         !
 ! A63   A(28,27,37)           120.0315                                         !
 ! A64   A(26,28,27)           119.4511                                         !
 ! A65   A(26,28,29)           117.0158                                         !
 ! A66   A(27,28,29)           123.5259                                         !
 ! A67   A(28,29,38)           109.9002                                         !
 ! A68   A(20,39,40)           122.7815                                         !
 ! A69   A(20,39,50)           117.054                                          !
 ! A70   A(40,39,50)           118.7023                                         !
 ! A71   A(39,40,41)           110.7802                                         !
 ! A72   A(39,40,43)           112.6843                                         !
 ! A73   A(39,40,51)           111.3425                                         !
 ! A74   A(41,40,43)           106.6028                                         !
 ! A75   A(41,40,51)           106.6718                                         !
 ! A76   A(43,40,51)           108.4653                                         !
 ! A77   A(40,41,42)           121.1172                                         !
 ! A78   A(40,41,48)           119.3236                                         !
 ! A79   A(42,41,48)           119.0266                                         !
 ! A80   A(40,43,44)           114.2763                                         !
 ! A81   A(40,43,52)           105.9243                                         !
 ! A82   A(40,43,53)           107.9758                                         !
 ! A83   A(44,43,52)           110.9416                                         !
 ! A84   A(44,43,53)           110.7204                                         !
 ! A85   A(52,43,53)           106.6057                                         !
 ! A86   A(43,44,45)           114.1751                                         !
 ! A87   A(43,44,54)           108.6558                                         !
 ! A88   A(43,44,55)           109.3585                                         !
 ! A89   A(45,44,54)           108.1319                                         !
 ! A90   A(45,44,55)           110.5074                                         !
 ! A91   A(54,44,55)           105.6381                                         !
 ! A92   A(44,45,46)           115.4861                                         !
 ! A93   A(44,45,56)           108.971                                          !
 ! A94   A(44,45,57)           111.194                                          !
 ! A95   A(46,45,56)           107.1193                                         !
 ! A96   A(46,45,57)           108.5444                                         !
 ! A97   A(56,45,57)           104.9279                                         !
 ! A98   A(45,46,47)           111.4327                                         !
 ! A99   A(45,46,58)           112.0898                                         !
 ! A100  A(45,46,59)           112.153                                          !
 ! A101  A(47,46,58)           106.3914                                         !
 ! A102  A(47,46,59)           105.9509                                         !
 ! A103  A(58,46,59)           108.4652                                         !
 ! A104  A(46,47,60)           111.8543                                         !
 ! A105  A(46,47,61)           111.7821                                         !
 ! A106  A(46,47,62)           110.694                                          !
 ! A107  A(60,47,61)           108.88                                           !
 ! A108  A(60,47,62)           107.6688                                         !
 ! A109  A(61,47,62)           105.6922                                         !
 ! A110  A(41,48,49)           114.3409                                         !
 ! D1    D(10,1,2,3)           -33.2329                                         !
 ! D2    D(10,1,2,5)            88.3113                                         !
 ! D3    D(10,1,2,11)         -153.1759                                         !
 ! D4    D(16,1,2,3)            81.9848                                         !
 ! D5    D(16,1,2,5)          -156.471                                          !
 ! D6    D(16,1,2,11)          -37.9582                                         !
 ! D7    D(17,1,2,3)          -143.2412                                         !
 ! D8    D(17,1,2,5)           -21.697                                          !
 ! D9    D(17,1,2,11)           96.8158                                         !
 ! D10   D(1,2,3,4)             20.6652                                         !
 ! D11   D(1,2,3,18)          -161.8921                                         !
 ! D12   D(5,2,3,4)           -101.7732                                         !
 ! D13   D(5,2,3,18)            75.6695                                         !
 ! D14   D(11,2,3,4)           140.0445                                         !
 ! D15   D(11,2,3,18)          -42.5128                                         !
 ! D16   D(1,2,5,6)             63.1616                                         !
 ! D17   D(1,2,5,12)           -60.83                                           !
 ! D18   D(1,2,5,13)          -175.6296                                         !
 ! D19   D(3,2,5,6)           -174.4222                                         !
 ! D20   D(3,2,5,12)            61.5862                                         !
 ! D21   D(3,2,5,13)           -53.2134                                         !
 ! D22   D(11,2,5,6)           -55.5005                                         !
 ! D23   D(11,2,5,12)         -179.4921                                         !
 ! D24   D(11,2,5,13)           65.7084                                         !
 ! D25   D(2,3,18,19)         -173.6659                                         !
 ! D26   D(2,3,18,30)            2.0906                                         !
 ! D27   D(4,3,18,19)            3.7778                                         !
 ! D28   D(4,3,18,30)          179.5343                                         !
 ! D29   D(2,5,6,7)            -94.6346                                         !
 ! D30   D(2,5,6,14)           145.9736                                         !
 ! D31   D(2,5,6,15)            28.4048                                         !
 ! D32   D(12,5,6,7)            28.2932                                         !
 ! D33   D(12,5,6,14)          -91.0985                                         !
 ! D34   D(12,5,6,15)          151.3327                                         !
 ! D35   D(13,5,6,7)           144.578                                          !
 ! D36   D(13,5,6,14)           25.1862                                         !
 ! D37   D(13,5,6,15)          -92.3826                                         !
 ! D38   D(5,6,7,8)             55.4231                                         !
 ! D39   D(5,6,7,9)           -124.985                                          !
 ! D40   D(14,6,7,8)           177.1353                                         !
 ! D41   D(14,6,7,9)            -3.2728                                         !
 ! D42   D(15,6,7,8)           -68.2889                                         !
 ! D43   D(15,6,7,9)           111.303                                          !
 ! D44   D(3,18,19,20)         157.9432                                         !
 ! D45   D(3,18,19,22)         -79.6663                                         !
 ! D46   D(3,18,19,31)          38.3009                                         !
 ! D47   D(30,18,19,20)        -18.0324                                         !
 ! D48   D(30,18,19,22)        104.3581                                         !
 ! D49   D(30,18,19,31)       -137.6747                                         !
 ! D50   D(18,19,20,21)         23.7494                                         !
 ! D51   D(18,19,20,39)       -159.2529                                         !
 ! D52   D(22,19,20,21)        -98.9571                                         !
 ! D53   D(22,19,20,39)         78.0405                                         !
 ! D54   D(31,19,20,21)        141.7514                                         !
 ! D55   D(31,19,20,39)        -41.251                                          !
 ! D56   D(18,19,22,23)        174.2639                                         !
 ! D57   D(18,19,22,32)        -62.1838                                         !
 ! D58   D(18,19,22,33)         53.2381                                         !
 ! D59   D(20,19,22,23)        -65.0349                                         !
 ! D60   D(20,19,22,32)         58.5174                                         !
 ! D61   D(20,19,22,33)        173.9393                                         !
 ! D62   D(31,19,22,23)         56.042                                          !
 ! D63   D(31,19,22,32)        179.5943                                         !
 ! D64   D(31,19,22,33)        -64.9838                                         !
 ! D65   D(19,20,39,40)       -178.9907                                         !
 ! D66   D(19,20,39,50)         15.0049                                         !
 ! D67   D(21,20,39,40)         -2.0137                                         !
 ! D68   D(21,20,39,50)       -168.0181                                         !
 ! D69   D(19,22,23,24)        104.585                                          !
 ! D70   D(19,22,23,25)        -70.9285                                         !
 ! D71   D(32,22,23,24)        -17.4311                                         !
 ! D72   D(32,22,23,25)        167.0553                                         !
 ! D73   D(33,22,23,24)       -137.4332                                         !
 ! D74   D(33,22,23,25)         47.0532                                         !
 ! D75   D(22,23,24,26)       -175.0071                                         !
 ! D76   D(22,23,24,34)          5.1503                                         !
 ! D77   D(25,23,24,26)          0.6174                                         !
 ! D78   D(25,23,24,34)       -179.2253                                         !
 ! D79   D(22,23,25,27)        174.9073                                         !
 ! D80   D(22,23,25,35)         -5.1672                                         !
 ! D81   D(24,23,25,27)         -0.77                                           !
 ! D82   D(24,23,25,35)        179.1556                                         !
 ! D83   D(23,24,26,28)         -0.4118                                         !
 ! D84   D(23,24,26,36)       -177.3474                                         !
 ! D85   D(34,24,26,28)        179.4312                                         !
 ! D86   D(34,24,26,36)          2.4956                                         !
 ! D87   D(23,25,27,28)          0.715                                          !
 ! D88   D(23,25,27,37)        179.76                                           !
 ! D89   D(35,25,27,28)       -179.2106                                         !
 ! D90   D(35,25,27,37)         -0.1656                                         !
 ! D91   D(24,26,28,27)          0.3331                                         !
 ! D92   D(24,26,28,29)        179.3902                                         !
 ! D93   D(36,26,28,27)        177.3509                                         !
 ! D94   D(36,26,28,29)         -3.592                                          !
 ! D95   D(25,27,28,26)         -0.4815                                         !
 ! D96   D(25,27,28,29)       -179.4738                                         !
 ! D97   D(37,27,28,26)       -179.5271                                         !
 ! D98   D(37,27,28,29)          1.4806                                         !
 ! D99   D(26,28,29,38)        174.0401                                         !
 ! D100  D(27,28,29,38)         -6.9449                                         !
 ! D101  D(20,39,40,41)        176.5076                                         !
 ! D102  D(20,39,40,43)         57.1766                                         !
 ! D103  D(20,39,40,51)        -64.9562                                         !
 ! D104  D(50,39,40,41)        -17.7072                                         !
 ! D105  D(50,39,40,43)       -137.0381                                         !
 ! D106  D(50,39,40,51)        100.8291                                         !
 ! D107  D(39,40,41,42)        144.7368                                         !
 ! D108  D(39,40,41,48)        -43.7153                                         !
 ! D109  D(43,40,41,42)        -92.3358                                         !
 ! D110  D(43,40,41,48)         79.2121                                         !
 ! D111  D(51,40,41,42)         23.4054                                         !
 ! D112  D(51,40,41,48)       -165.0468                                         !
 ! D113  D(39,40,43,44)        165.5447                                         !
 ! D114  D(39,40,43,52)        -72.0152                                         !
 ! D115  D(39,40,43,53)         41.8767                                         !
 ! D116  D(41,40,43,44)         43.8167                                         !
 ! D117  D(41,40,43,52)        166.2567                                         !
 ! D118  D(41,40,43,53)        -79.8514                                         !
 ! D119  D(51,40,43,44)        -70.7142                                         !
 ! D120  D(51,40,43,52)         51.7259                                         !
 ! D121  D(51,40,43,53)        165.6177                                         !
 ! D122  D(40,41,48,49)          1.0816                                         !
 ! D123  D(42,41,48,49)        172.8075                                         !
 ! D124  D(40,43,44,45)        -94.8596                                         !
 ! D125  D(40,43,44,54)        144.37                                           !
 ! D126  D(40,43,44,55)         29.5242                                         !
 ! D127  D(52,43,44,45)        145.479                                          !
 ! D128  D(52,43,44,54)         24.7087                                         !
 ! D129  D(52,43,44,55)        -90.1372                                         !
 ! D130  D(53,43,44,45)         27.3199                                         !
 ! D131  D(53,43,44,54)        -93.4504                                         !
 ! D132  D(53,43,44,55)        151.7037                                         !
 ! D133  D(43,44,45,46)        143.3407                                         !
 ! D134  D(43,44,45,56)        -96.0828                                         !
 ! D135  D(43,44,45,57)         19.0967                                         !
 ! D136  D(54,44,45,46)        -95.598                                          !
 ! D137  D(54,44,45,56)         24.9785                                         !
 ! D138  D(54,44,45,57)        140.158                                          !
 ! D139  D(55,44,45,46)         19.5729                                         !
 ! D140  D(55,44,45,56)        140.1494                                         !
 ! D141  D(55,44,45,57)       -104.6711                                         !
 ! D142  D(44,45,46,47)        -90.3965                                         !
 ! D143  D(44,45,46,58)         28.7142                                         !
 ! D144  D(44,45,46,59)        151.0106                                         !
 ! D145  D(56,45,46,47)        148.026                                          !
 ! D146  D(56,45,46,58)        -92.8633                                         !
 ! D147  D(56,45,46,59)         29.433                                          !
 ! D148  D(57,45,46,47)         35.2188                                         !
 ! D149  D(57,45,46,58)        154.3294                                         !
 ! D150  D(57,45,46,59)        -83.3742                                         !
 ! D151  D(45,46,47,60)        173.0818                                         !
 ! D152  D(45,46,47,61)         50.689                                          !
 ! D153  D(45,46,47,62)        -66.847                                          !
 ! D154  D(58,46,47,60)         50.6304                                         !
 ! D155  D(58,46,47,61)        -71.7625                                         !
 ! D156  D(58,46,47,62)        170.7015                                         !
 ! D157  D(59,46,47,60)        -64.6749                                         !
 ! D158  D(59,46,47,61)        172.9322                                         !
 ! D159  D(59,46,47,62)         55.3962                                         !
 --------------------------------------------------------------------------------
 Symmetry turned off by external request.
 Stoichiometry    C20H31N4O7(1+)
 Framework group  C1[X(C20H31N4O7)]
 Deg. of freedom   180
 Full point group                 C1      NOp   1
                          Input orientation:                          
 ---------------------------------------------------------------------
 Center     Atomic      Atomic             Coordinates (Angstroms)
 Number     Number       Type             X           Y           Z
 ---------------------------------------------------------------------
      1          7           0       -0.045076  -91.992040  125.511514
      2          6           0       -1.189692  -91.552976  126.317510
      3          6           0       -0.991524  -90.107350  126.806265
      4          8           0       -0.210701  -89.336435  126.251838
      5          6           0       -2.501594  -91.642483  125.504401
      6          6           0       -2.884912  -93.077675  125.070631
      7          6           0       -2.427164  -93.491289  123.664067
      8          8           0       -1.117005  -93.379623  123.406078
      9          8           0       -3.208778  -93.902889  122.837424
     10          1           0        0.309929  -91.175802  125.007305
     11          1           0       -1.278872  -92.220304  127.184296
     12          1           0       -2.417381  -90.984468  124.629908
     13          1           0       -3.310703  -91.231809  126.119824
     14          1           0       -3.970978  -93.187784  125.070184
     15          1           0       -2.485952  -93.803032  125.793759
     16          1           0        0.718378  -92.302846  126.109580
     17          1           0       -0.631215  -93.014376  124.198446
     18          7           0       -1.768097  -89.712748  127.852809
     19          6           0       -1.756460  -88.337497  128.297274
     20          6           0       -3.057397  -88.071535  129.055974
     21          8           0       -3.702848  -88.968154  129.583795
     22          6           0       -0.512420  -88.033912  129.192886
     23          6           0       -0.398595  -86.575138  129.558527
     24          6           0       -0.728677  -86.111796  130.838828
     25          6           0       -0.044856  -85.625440  128.588901
     26          6           0       -0.721329  -84.748564  131.145799
     27          6           0       -0.034384  -84.259643  128.874272
     28          6           0       -0.368550  -83.812868  130.159216
     29          8           0       -0.392635  -82.499603  130.515856
     30          1           0       -2.419156  -90.339256  128.311126
     31          1           0       -1.689881  -87.695842  127.410427
     32          1           0       -0.568330  -88.662910  130.087842
     33          1           0        0.354519  -88.356062  128.608284
     34          1           0       -0.994403  -86.827358  131.613221
     35          1           0        0.229093  -85.960504  127.590977
     36          1           0       -0.935944  -84.393086  132.149464
     37          1           0        0.247653  -83.543964  128.105329
     38          1           0       -0.043736  -81.954349  129.792532
     39          7           0       -3.403562  -86.748095  129.150659
     40          6           0       -4.594854  -86.293363  129.852555
     41          6           0       -4.668401  -84.783138  129.861762
     42          8           0       -5.743753  -84.201165  129.785742
     43          6           0       -4.625823  -86.752416  131.350935
     44          6           0       -5.669886  -86.014786  132.220205
     45          6           0       -5.102883  -84.790576  132.995755
     46          6           0       -6.052731  -83.590716  133.121958
     47          7           0       -5.880172  -82.620246  131.961927
     48          8           0       -3.565734  -84.075967  130.124195
     49          1           0       -2.758507  -84.623493  130.280619
     50          1           0       -2.925684  -86.102173  128.535397
     51          1           0       -5.506659  -86.649267  129.361908
     52          1           0       -4.822593  -87.824166  131.331316
     53          1           0       -3.617891  -86.626318  131.764466
     54          1           0       -6.079005  -86.719927  132.949387
     55          1           0       -6.517102  -85.713329  131.593098
     56          1           0       -4.841550  -85.102960  134.011878
     57          1           0       -4.159424  -84.444026  132.555077
     58          1           0       -7.102178  -83.894992  133.115931
     59          1           0       -5.865803  -83.010990  134.028676
     60          1           0       -6.586401  -81.877333  131.977619
     61          1           0       -5.923488  -83.114944  131.025471
     62          1           0       -4.957492  -82.173484  131.997270
 ---------------------------------------------------------------------
 Rotational constants (GHZ):           0.2530853           0.0568834           0.0498937
 Standard basis: 6-31G(d) (6D, 7F)
   527 basis functions,   992 primitive gaussians,   527 cartesian basis functions
   117 alpha electrons      117 beta electrons
       nuclear repulsion energy      3212.6298567653 Hartrees.
 NAtoms=   62 NActive=   62 NUniq=   62 SFac= 1.00D+00 NAtFMM=   60 NAOKFM=T Big=T
 Integral buffers will be    131072 words long.
 Raffenetti 2 integral format.
 Two-electron integral symmetry is turned off.
 Nuclear repulsion after empirical dispersion term =     3212.5486490294 Hartrees.
 One-electron integrals computed using PRISM.
 NBasis=   527 RedAO= T EigKep=  4.35D-04  NBF=   527
 NBsUse=   527 1.00D-06 EigRej= -1.00D+00 NBFU=   527
 Initial guess from the checkpoint file:  "conf-34.chk"
 B after Tr=     0.000000    0.000000    0.000000
         Rot=    1.000000    0.000000    0.000000    0.000000 Ang=   0.00 deg.
 Requested convergence on RMS density matrix=1.00D-08 within 128 cycles.
 Requested convergence on MAX density matrix=1.00D-06.
 Requested convergence on             energy=1.00D-06.
 No special actions if energy rises.
 SCF Done:  E(RB3LYP) =  -1526.27909665     A.U. after    3 cycles
            NFock=  3  Conv=0.77D-09     -V/T= 2.0093

 **********************************************************************

            Population analysis using the SCF Density.

 **********************************************************************

 Alpha  occ. eigenvalues --  -19.35142 -19.30133 -19.29271 -19.24243 -19.20787
 Alpha  occ. eigenvalues --  -19.19821 -19.14965 -14.60864 -14.49433 -14.45511
 Alpha  occ. eigenvalues --  -14.41313 -10.48128 -10.41218 -10.40905 -10.38143
 Alpha  occ. eigenvalues --  -10.37515 -10.36983 -10.34810 -10.34437 -10.33927
 Alpha  occ. eigenvalues --  -10.32769 -10.32555 -10.31300 -10.31095 -10.30690
 Alpha  occ. eigenvalues --  -10.30685 -10.30629 -10.30575 -10.29729 -10.26928
 Alpha  occ. eigenvalues --  -10.24987  -1.26296  -1.17824  -1.17430  -1.16323
 Alpha  occ. eigenvalues --   -1.15299  -1.12724  -1.11096  -1.06000  -1.03008
 Alpha  occ. eigenvalues --   -1.02192  -0.98062  -0.97167  -0.95558  -0.91892
 Alpha  occ. eigenvalues --   -0.89533  -0.86640  -0.86246  -0.85608  -0.83540
 Alpha  occ. eigenvalues --   -0.79710  -0.78302  -0.77673  -0.75869  -0.75349
 Alpha  occ. eigenvalues --   -0.74045  -0.73704  -0.72727  -0.71089  -0.70550
 Alpha  occ. eigenvalues --   -0.69621  -0.67938  -0.67645  -0.65950  -0.65413
 Alpha  occ. eigenvalues --   -0.63574  -0.62687  -0.62213  -0.61893  -0.60822
 Alpha  occ. eigenvalues --   -0.60571  -0.59729  -0.58889  -0.58251  -0.57779
 Alpha  occ. eigenvalues --   -0.57421  -0.56533  -0.56076  -0.55668  -0.54824
 Alpha  occ. eigenvalues --   -0.54560  -0.54164  -0.53787  -0.52884  -0.52654
 Alpha  occ. eigenvalues --   -0.52544  -0.52038  -0.51795  -0.50788  -0.50283
 Alpha  occ. eigenvalues --   -0.49956  -0.49052  -0.48841  -0.48275  -0.48193
 Alpha  occ. eigenvalues --   -0.47829  -0.47355  -0.46898  -0.46503  -0.46238
 Alpha  occ. eigenvalues --   -0.45312  -0.44845  -0.44195  -0.43730  -0.43606
 Alpha  occ. eigenvalues --   -0.42276  -0.41250  -0.39617  -0.38939  -0.37863
 Alpha  occ. eigenvalues --   -0.37226  -0.35297  -0.34972  -0.33560  -0.33106
 Alpha  occ. eigenvalues --   -0.32791  -0.28595
 Alpha virt. eigenvalues --   -0.16177  -0.12712  -0.11780  -0.11177  -0.10287
 Alpha virt. eigenvalues --   -0.06877  -0.06664  -0.05685  -0.04372  -0.03710
 Alpha virt. eigenvalues --   -0.03547  -0.03122  -0.02027  -0.01559  -0.01220
 Alpha virt. eigenvalues --   -0.00161   0.00142   0.00587   0.00918   0.01448
 Alpha virt. eigenvalues --    0.01657   0.02259   0.02803   0.03253   0.03546
 Alpha virt. eigenvalues --    0.04911   0.05426   0.05564   0.06426   0.06552
 Alpha virt. eigenvalues --    0.06930   0.07386   0.07736   0.08200   0.08546
 Alpha virt. eigenvalues --    0.08689   0.08755   0.09606   0.10309   0.10502
 Alpha virt. eigenvalues --    0.11428   0.11986   0.12520   0.13081   0.13265
 Alpha virt. eigenvalues --    0.13397   0.14696   0.15138   0.15690   0.16405
 Alpha virt. eigenvalues --    0.17206   0.17301   0.18689   0.19868   0.20181
 Alpha virt. eigenvalues --    0.20939   0.21559   0.22606   0.23266   0.23463
 Alpha virt. eigenvalues --    0.24888   0.25696   0.27522   0.30036   0.31082
 Alpha virt. eigenvalues --    0.32521   0.33443   0.34406   0.34953   0.35879
 Alpha virt. eigenvalues --    0.36357   0.37453   0.38704   0.39798   0.40372
 Alpha virt. eigenvalues --    0.41518   0.42028   0.42566   0.42703   0.44004
 Alpha virt. eigenvalues --    0.44575   0.44707   0.45659   0.45966   0.46296
 Alpha virt. eigenvalues --    0.46813   0.47270   0.47790   0.47869   0.48777
 Alpha virt. eigenvalues --    0.49183   0.49598   0.50033   0.50328   0.50746
 Alpha virt. eigenvalues --    0.51406   0.52293   0.52651   0.53181   0.53465
 Alpha virt. eigenvalues --    0.53947   0.54801   0.55437   0.56127   0.56252
 Alpha virt. eigenvalues --    0.56656   0.57223   0.57839   0.58345   0.59084
 Alpha virt. eigenvalues --    0.59340   0.60375   0.61480   0.62752   0.63187
 Alpha virt. eigenvalues --    0.63660   0.64689   0.64963   0.65414   0.66011
 Alpha virt. eigenvalues --    0.66543   0.67534   0.68620   0.68968   0.69241
 Alpha virt. eigenvalues --    0.69380   0.69844   0.70362   0.70491   0.70974
 Alpha virt. eigenvalues --    0.71911   0.72255   0.72753   0.73097   0.74212
 Alpha virt. eigenvalues --    0.74397   0.74984   0.75502   0.76351   0.76612
 Alpha virt. eigenvalues --    0.77283   0.77428   0.77840   0.78192   0.78292
 Alpha virt. eigenvalues --    0.78944   0.79308   0.79401   0.79881   0.80667
 Alpha virt. eigenvalues --    0.80966   0.81448   0.82022   0.82454   0.82968
 Alpha virt. eigenvalues --    0.83542   0.83656   0.84432   0.84957   0.86130
 Alpha virt. eigenvalues --    0.86537   0.86661   0.87541   0.88193   0.88393
 Alpha virt. eigenvalues --    0.88941   0.90073   0.90296   0.91467   0.91934
 Alpha virt. eigenvalues --    0.92486   0.93259   0.93640   0.94095   0.94468
 Alpha virt. eigenvalues --    0.94623   0.96300   0.96630   0.97909   0.99397
 Alpha virt. eigenvalues --    1.01525   1.01694   1.02279   1.03470   1.03742
 Alpha virt. eigenvalues --    1.05888   1.06257   1.06691   1.08056   1.08521
 Alpha virt. eigenvalues --    1.09305   1.10265   1.11226   1.12061   1.13202
 Alpha virt. eigenvalues --    1.13533   1.14577   1.16846   1.17567   1.19428
 Alpha virt. eigenvalues --    1.20553   1.21585   1.21805   1.24759   1.25259
 Alpha virt. eigenvalues --    1.25907   1.26809   1.27337   1.28172   1.29337
 Alpha virt. eigenvalues --    1.31196   1.31464   1.32538   1.33303   1.34557
 Alpha virt. eigenvalues --    1.34858   1.35727   1.36783   1.37359   1.38942
 Alpha virt. eigenvalues --    1.39636   1.39838   1.40901   1.42350   1.43344
 Alpha virt. eigenvalues --    1.45271   1.45844   1.47884   1.48958   1.50502
 Alpha virt. eigenvalues --    1.51368   1.53314   1.54235   1.56242   1.56804
 Alpha virt. eigenvalues --    1.58254   1.58827   1.59749   1.60512   1.62035
 Alpha virt. eigenvalues --    1.62419   1.62934   1.63750   1.63836   1.65054
 Alpha virt. eigenvalues --    1.65713   1.66333   1.66591   1.67242   1.67918
 Alpha virt. eigenvalues --    1.68268   1.68404   1.69214   1.70087   1.71494
 Alpha virt. eigenvalues --    1.72950   1.73050   1.73770   1.74063   1.74504
 Alpha virt. eigenvalues --    1.74951   1.75101   1.76170   1.77396   1.77744
 Alpha virt. eigenvalues --    1.78386   1.79244   1.79555   1.79721   1.80829
 Alpha virt. eigenvalues --    1.81426   1.81822   1.83059   1.83418   1.83694
 Alpha virt. eigenvalues --    1.84462   1.85957   1.86242   1.86598   1.87451
 Alpha virt. eigenvalues --    1.88524   1.88771   1.89161   1.89881   1.90284
 Alpha virt. eigenvalues --    1.91644   1.91917   1.92236   1.93210   1.93680
 Alpha virt. eigenvalues --    1.95564   1.97277   1.99381   2.00076   2.00619
 Alpha virt. eigenvalues --    2.01185   2.02420   2.03182   2.03540   2.03860
 Alpha virt. eigenvalues --    2.04531   2.05607   2.06593   2.07886   2.08777
 Alpha virt. eigenvalues --    2.11045   2.12121   2.14990   2.15755   2.16972
 Alpha virt. eigenvalues --    2.17388   2.18303   2.19149   2.20121   2.22032
 Alpha virt. eigenvalues --    2.22624   2.23317   2.23853   2.24758   2.26496
 Alpha virt. eigenvalues --    2.26913   2.28793   2.29988   2.30370   2.30906
 Alpha virt. eigenvalues --    2.31493   2.32719   2.33312   2.34747   2.35448
 Alpha virt. eigenvalues --    2.36591   2.38411   2.38952   2.39720   2.40351
 Alpha virt. eigenvalues --    2.41199   2.41795   2.44689   2.45887   2.47537
 Alpha virt. eigenvalues --    2.48153   2.49871   2.50233   2.50790   2.53212
 Alpha virt. eigenvalues --    2.53494   2.53727   2.54308   2.55178   2.56913
 Alpha virt. eigenvalues --    2.58466   2.59559   2.61096   2.61929   2.63178
 Alpha virt. eigenvalues --    2.63369   2.65408   2.67506   2.70557   2.70968
 Alpha virt. eigenvalues --    2.73292   2.74747   2.75580   2.77630   2.79008
 Alpha virt. eigenvalues --    2.79580   2.82060   2.85231   2.85864   2.88438
 Alpha virt. eigenvalues --    2.89707   2.93874   2.95468   2.96865   3.00379
 Alpha virt. eigenvalues --    3.05343   3.06443   3.10366   3.29496   3.63629
 Alpha virt. eigenvalues --    3.81161   3.85776   3.88298   3.90974   3.92866
 Alpha virt. eigenvalues --    3.94492   3.98457   4.01578   4.03133   4.03616
 Alpha virt. eigenvalues --    4.06543   4.07274   4.14533   4.15880   4.18018
 Alpha virt. eigenvalues --    4.20886   4.24072   4.24818   4.26634   4.28262
 Alpha virt. eigenvalues --    4.32114   4.34034   4.36919   4.40319   4.43123
 Alpha virt. eigenvalues --    4.51326   4.54541   4.56251   4.57865   4.65268
          Condensed to atoms (all electrons):
 Mulliken charges:
               1
     1  N   -0.757796
     2  C   -0.070794
     3  C    0.609016
     4  O   -0.529900
     5  C   -0.281490
     6  C   -0.375006
     7  C    0.579287
     8  O   -0.597488
     9  O   -0.452585
    10  H    0.348901
    11  H    0.154367
    12  H    0.173823
    13  H    0.145930
    14  H    0.180886
    15  H    0.161283
    16  H    0.331405
    17  H    0.455392
    18  N   -0.616234
    19  C   -0.039244
    20  C    0.624192
    21  O   -0.512745
    22  C   -0.356254
    23  C    0.155114
    24  C   -0.183995
    25  C   -0.209947
    26  C   -0.252708
    27  C   -0.192548
    28  C    0.364307
    29  O   -0.633891
    30  H    0.355371
    31  H    0.179240
    32  H    0.165172
    33  H    0.206357
    34  H    0.152059
    35  H    0.178002
    36  H    0.155692
    37  H    0.155640
    38  H    0.424364
    39  N   -0.657562
    40  C   -0.001807
    41  C    0.603800
    42  O   -0.501618
    43  C   -0.308864
    44  C   -0.307494
    45  C   -0.309990
    46  C   -0.196657
    47  N   -0.763305
    48  O   -0.588011
    49  H    0.450271
    50  H    0.346630
    51  H    0.212801
    52  H    0.230865
    53  H    0.156013
    54  H    0.188519
    55  H    0.173897
    56  H    0.202551
    57  H    0.158472
    58  H    0.224923
    59  H    0.216850
    60  H    0.414485
    61  H    0.449984
    62  H    0.412070
 Sum of Mulliken charges =   1.00000
 Mulliken charges with hydrogens summed into heavy atoms:
               1
     1  N   -0.077489
     2  C    0.083573
     3  C    0.609016
     4  O   -0.529900
     5  C    0.038264
     6  C   -0.032837
     7  C    0.579287
     8  O   -0.142096
     9  O   -0.452585
    18  N   -0.260863
    19  C    0.139996
    20  C    0.624192
    21  O   -0.512745
    22  C    0.015276
    23  C    0.155114
    24  C   -0.031936
    25  C   -0.031945
    26  C   -0.097016
    27  C   -0.036908
    28  C    0.364307
    29  O   -0.209527
    39  N   -0.310931
    40  C    0.210994
    41  C    0.603800
    42  O   -0.501618
    43  C    0.078014
    44  C    0.054923
    45  C    0.051033
    46  C    0.245115
    47  N    0.513234
    48  O   -0.137740
 Electronic spatial extent (au):  <R**2>=       20277401.2649
 Charge=              1.0000 electrons
 Dipole moment (field-independent basis, Debye):
    X=            -19.6521    Y=           -398.8679    Z=            637.7083  Tot=            752.4319
 Quadrupole moment (field-independent basis, Debye-Ang):
   XX=            -64.4700   YY=          32913.9225   ZZ=          84412.7691
   XY=           1611.8089   XZ=          -2628.3389   YZ=         -53031.4844
 Traceless Quadrupole moment (field-independent basis, Debye-Ang):
   XX=         -39151.8772   YY=          -6173.4847   ZZ=          45325.3619
   XY=           1611.8089   XZ=          -2628.3389   YZ=         -53031.4844
 Octapole moment (field-independent basis, Debye-Ang**2):
  XXX=            666.5323  YYY=       -2695434.5513  ZZZ=       11143134.3342  XYY=        -131457.3554
  XXY=           6254.9189  XXZ=          -7772.0825  XZZ=        -350753.5248  YZZ=       -7027733.9092
  YYZ=        4384014.3527  XYZ=         215896.1470
 Hexadecapole moment (field-independent basis, Debye-Ang**3):
 XXXX=          -7178.9590 YYYY=      218693342.7171 ZZZZ=     1467298051.4985 XXXY=         -60979.3393
 XXXZ=          84031.6078 YYYX=       10649471.2345 YYYZ=     -359860981.4012 ZZZX=      -46715200.7258
 ZZZY=     -928556827.1879 XXYY=        -602745.5889 XXZZ=        -934512.5814 YYZZ=      581827884.2377
 XXYZ=         759256.6634 YYXZ=      -17641764.8702 ZZXY=       28848626.0871
 N-N= 3.212548649029D+03 E-N=-9.958641499520D+03  KE= 1.512254749473D+03
 Unable to Open any file for archive entry.
 1\1\GINC-LAC-312\SP\RB3LYP\6-31G(d)\C20H31N4O7(1+)\KENGMITH\24-May-202
 2\0\\# B3LYP/6-31G* empiricaldispersion=gd3 guess=read geom=check nosy
 mm integral(ultrafinegrid)\\Candidate Structure: Conf:34 Charge calc i
 n gas phase\\1,1\N,0,-0.0450760991,-91.992039802,125.5115141925\C,0,-1
 .1896917772,-91.5529755445,126.3175103225\C,0,-0.9915243803,-90.107350
 0794,126.8062646783\O,0,-0.2107011755,-89.3364347539,126.2518383641\C,
 0,-2.5015938618,-91.642483288,125.5044013065\C,0,-2.8849115357,-93.077
 6745456,125.070631445\C,0,-2.4271636717,-93.4912890793,123.6640669438\
 O,0,-1.117005431,-93.3796231273,123.4060777871\O,0,-3.2087779131,-93.9
 028892682,122.8374242033\H,0,0.3099293595,-91.1758018041,125.007305309
 4\H,0,-1.2788717163,-92.2203042083,127.1842963045\H,0,-2.4173806431,-9
 0.9844675891,124.6299082813\H,0,-3.3107028063,-91.2318085347,126.11982
 41592\H,0,-3.9709779235,-93.1877838428,125.0701840498\H,0,-2.485952069
 4,-93.8030323382,125.7937592112\H,0,0.7183777606,-92.3028461907,126.10
 9580124\H,0,-0.6312153915,-93.0143755155,124.1984462396\N,0,-1.7680974
 919,-89.712747615,127.8528092564\C,0,-1.7564602533,-88.3374974033,128.
 2972735188\C,0,-3.0573973389,-88.0715354912,129.0559742238\O,0,-3.7028
 482425,-88.9681537956,129.5837948442\C,0,-0.5124201239,-88.0339116378,
 129.1928863357\C,0,-0.3985952165,-86.5751378477,129.5585269657\C,0,-0.
 7286767714,-86.1117955239,130.8388275158\C,0,-0.0448561129,-85.6254398
 163,128.5889010258\C,0,-0.7213285568,-84.7485642222,131.1457991579\C,0
 ,-0.0343841642,-84.2596426668,128.8742719595\C,0,-0.3685504874,-83.812
 8681344,130.1592164921\O,0,-0.3926345963,-82.4996032634,130.5158562162
 \H,0,-2.4191556767,-90.3392563379,128.3111259228\H,0,-1.6898808788,-87
 .695842397,127.410426791\H,0,-0.5683299029,-88.6629097608,130.08784204
 96\H,0,0.3545188894,-88.3560620399,128.6082844134\H,0,-0.9944028858,-8
 6.8273575221,131.6132205043\H,0,0.2290930631,-85.9605035664,127.590976
 6719\H,0,-0.9359440934,-84.3930862085,132.1494643297\H,0,0.2476529462,
 -83.5439636744,128.1053291032\H,0,-0.0437357605,-81.9543489597,129.792
 5318935\N,0,-3.4035622377,-86.7480946881,129.1506588765\C,0,-4.5948540
 105,-86.2933633733,129.8525550236\C,0,-4.6684011646,-84.7831376832,129
 .8617622025\O,0,-5.7437534004,-84.2011650642,129.785741935\C,0,-4.6258
 225567,-86.7524156413,131.3509348428\C,0,-5.6698857892,-86.0147862249,
 132.2202049378\C,0,-5.1028827526,-84.7905758255,132.9957546725\C,0,-6.
 0527314607,-83.5907156083,133.1219577576\N,0,-5.8801717215,-82.6202464
 568,131.9619270717\O,0,-3.5657337624,-84.0759666712,130.1241954154\H,0
 ,-2.7585065775,-84.6234929381,130.2806194611\H,0,-2.9256842826,-86.102
 1733919,128.5353973352\H,0,-5.5066593578,-86.6492666318,129.3619077109
 \H,0,-4.8225929722,-87.8241658986,131.331316074\H,0,-3.6178909399,-86.
 6263179619,131.7644659068\H,0,-6.079004712,-86.71992667,132.9493865255
 \H,0,-6.5171024537,-85.7133290173,131.59309831\H,0,-4.8415495086,-85.1
 029602565,134.0118783637\H,0,-4.1594235485,-84.4440264319,132.55507655
 1\H,0,-7.1021777223,-83.8949923364,133.1159308867\H,0,-5.8658025131,-8
 3.0109896481,134.0286755929\H,0,-6.5864008168,-81.8773329398,131.97761
 90544\H,0,-5.9234883524,-83.1149435782,131.0254711468\H,0,-4.957491945
 7,-82.1734838969,131.9972701923\\Version=ES64L-G16RevC.01\HF=-1526.279
 0966\RMSD=7.679e-10\Dipole=-2.89281,8.5489089,7.6534054\Quadrupole=-29
 108.4611005,-4589.8345679,33698.2956684,1198.3404207,-1954.105572,-394
 27.6088814\PG=C01 [X(C20H31N4O7)]\\@
 The archive entry for this job was punched.


 Everywhere is walking distance if you have the time.
                                    -- Steven Wright
 Job cpu time:       0 days  0 hours  2 minutes 46.9 seconds.
 Elapsed time:       0 days  0 hours  0 minutes 42.7 seconds.
 File lengths (MBytes):  RWF=    264 Int=      0 D2E=      0 Chk=     40 Scr=     16
 Normal termination of Gaussian 16 at Tue May 24 19:10:12 2022.
