 Entering Gaussian System, Link 0=/opt/software/Gaussian/g16-AVX2-C.01/g16/g16
 Input=charge-conf-156.com
 Output=charge-conf-156.log
 Initial command:
 /opt/software/Gaussian/g16-AVX2-C.01/g16/l1.exe "/mnt/gs18/scratch/users/kengmith/Gau-9092.inp" -scrdir="/mnt/gs18/scratch/users/kengmith/"
 Entering Link 1 = /opt/software/Gaussian/g16-AVX2-C.01/g16/l1.exe PID=      9103.
  
 Copyright (c) 1988-2019, Gaussian, Inc.  All Rights Reserved.
  
 This is part of the Gaussian(R) 16 program.  It is based on
 the Gaussian(R) 09 system (copyright 2009, Gaussian, Inc.),
 the Gaussian(R) 03 system (copyright 2003, Gaussian, Inc.),
 the Gaussian(R) 98 system (copyright 1998, Gaussian, Inc.),
 the Gaussian(R) 94 system (copyright 1995, Gaussian, Inc.),
 the Gaussian 92(TM) system (copyright 1992, Gaussian, Inc.),
 the Gaussian 90(TM) system (copyright 1990, Gaussian, Inc.),
 the Gaussian 88(TM) system (copyright 1988, Gaussian, Inc.),
 the Gaussian 86(TM) system (copyright 1986, Carnegie Mellon
 University), and the Gaussian 82(TM) system (copyright 1983,
 Carnegie Mellon University). Gaussian is a federally registered
 trademark of Gaussian, Inc.
  
 This software contains proprietary and confidential information,
 including trade secrets, belonging to Gaussian, Inc.
  
 This software is provided under written license and may be
 used, copied, transmitted, or stored only in accord with that
 written license.
  
 The following legend is applicable only to US Government
 contracts under FAR:
  
                    RESTRICTED RIGHTS LEGEND
  
 Use, reproduction and disclosure by the US Government is
 subject to restrictions as set forth in subparagraphs (a)
 and (c) of the Commercial Computer Software - Restricted
 Rights clause in FAR 52.227-19.
  
 Gaussian, Inc.
 340 Quinnipiac St., Bldg. 40, Wallingford CT 06492
  
  
 ---------------------------------------------------------------
 Warning -- This program may not be used in any manner that
 competes with the business of Gaussian, Inc. or will provide
 assistance to any competitor of Gaussian, Inc.  The licensee
 of this program is prohibited from giving any competitor of
 Gaussian, Inc. access to this program.  By using this program,
 the user acknowledges that Gaussian, Inc. is engaged in the
 business of creating and licensing software in the field of
 computational chemistry and represents and warrants to the
 licensee that it is not a competitor of Gaussian, Inc. and that
 it will not use this program in any manner prohibited above.
 ---------------------------------------------------------------
  

 Cite this work as:
 Gaussian 16, Revision C.01,
 M. J. Frisch, G. W. Trucks, H. B. Schlegel, G. E. Scuseria, 
 M. A. Robb, J. R. Cheeseman, G. Scalmani, V. Barone, 
 G. A. Petersson, H. Nakatsuji, X. Li, M. Caricato, A. V. Marenich, 
 J. Bloino, B. G. Janesko, R. Gomperts, B. Mennucci, H. P. Hratchian, 
 J. V. Ortiz, A. F. Izmaylov, J. L. Sonnenberg, D. Williams-Young, 
 F. Ding, F. Lipparini, F. Egidi, J. Goings, B. Peng, A. Petrone, 
 T. Henderson, D. Ranasinghe, V. G. Zakrzewski, J. Gao, N. Rega, 
 G. Zheng, W. Liang, M. Hada, M. Ehara, K. Toyota, R. Fukuda, 
 J. Hasegawa, M. Ishida, T. Nakajima, Y. Honda, O. Kitao, H. Nakai, 
 T. Vreven, K. Throssell, J. A. Montgomery, Jr., J. E. Peralta, 
 F. Ogliaro, M. J. Bearpark, J. J. Heyd, E. N. Brothers, K. N. Kudin, 
 V. N. Staroverov, T. A. Keith, R. Kobayashi, J. Normand, 
 K. Raghavachari, A. P. Rendell, J. C. Burant, S. S. Iyengar, 
 J. Tomasi, M. Cossi, J. M. Millam, M. Klene, C. Adamo, R. Cammi, 
 J. W. Ochterski, R. L. Martin, K. Morokuma, O. Farkas, 
 J. B. Foresman, and D. J. Fox, Gaussian, Inc., Wallingford CT, 2019.
 
 ******************************************
 Gaussian 16:  ES64L-G16RevC.01  3-Jul-2019
                24-May-2022 
 ******************************************
 %mem=8gb
 %nproc=4
 Will use up to    4 processors via shared memory.
 %chk=conf-156.chk
 ----------------------------------------------------------------------
 # B3LYP/6-31G* empiricaldispersion=gd3 guess=read geom=check nosymm in
 tegral(ultrafinegrid)
 ----------------------------------------------------------------------
 1/29=2,38=1,172=1/1;
 2/12=2,15=1,40=1/2;
 3/5=1,6=6,7=1,11=2,14=-4,25=1,30=1,74=-5,75=-5,116=-2,124=31/1,2,3;
 4/5=1/1;
 5/5=2,38=6/2;
 6/7=2,8=2,9=2,10=2,28=1/1;
 99/5=1,9=1/99;
 ------------------------------------------------------
 Candidate Structure: Conf:156 Charge calc in gas phase
 ------------------------------------------------------
 Structure from the checkpoint file:  "conf-156.chk"
 Charge =  1 Multiplicity = 1
 Redundant internal coordinates found in file.  (old form).
 N,0,0.4904631088,-88.1166139759,125.5455136112
 C,0,-0.9524458343,-88.0462096569,126.002422408
 C,0,-1.5018876374,-86.6575236274,126.3996049694
 O,0,-2.4899157587,-86.1886793437,125.8668012468
 C,0,-1.8447819522,-88.8104430553,125.0267831076
 C,0,-1.4926046736,-90.3255289229,124.8919701632
 C,0,-0.8822513062,-90.8793063006,126.1849933658
 O,0,0.3047941833,-90.5390872199,126.4403392761
 O,0,-1.5961578164,-91.5760843585,126.9811204297
 H,0,0.7092774841,-89.1745549412,125.7361948617
 H,0,-0.927811181,-88.5928676026,126.941826794
 H,0,-1.8348221522,-88.3253058795,124.0436996431
 H,0,-2.856197089,-88.6985680901,125.4135444106
 H,0,-0.7570553446,-90.474166938,124.0938337469
 H,0,-2.3945597059,-90.8765554503,124.6157938661
 H,0,0.6049318921,-87.8669982958,124.5591977755
 H,0,1.1211258738,-87.5299541123,126.0992606699
 N,0,-0.8783640972,-86.1063304183,127.5020103831
 C,0,-1.7146186031,-85.5287309801,128.5838541004
 C,0,-1.9453775774,-86.74246668,129.5154641589
 O,0,-0.9692043533,-87.3870526285,129.9002604687
 C,0,-1.0011393911,-84.3865351538,129.3217412059
 C,0,-1.8591932454,-83.8499217683,130.4463612307
 C,0,-1.7992703349,-84.416610805,131.7289319141
 C,0,-2.7806124274,-82.8216018019,130.2199783049
 C,0,-2.6273891729,-83.9727767648,132.7540112117
 C,0,-3.6167376967,-82.364123471,131.2378266583
 C,0,-3.5419894814,-82.9405649336,132.5113020397
 O,0,-4.3273035837,-82.5468618611,133.5540610537
 H,0,-0.1748696379,-86.698930065,127.9387381502
 H,0,-2.6405081739,-85.1716232673,128.1281282153
 H,0,-0.0509199292,-84.7705534984,129.711111553
 H,0,-0.7672148712,-83.6065295231,128.5895294724
 H,0,-1.0908000177,-85.2178115764,131.925767979
 H,0,-2.8427306852,-82.36022385,129.2366212083
 H,0,-2.5750553525,-84.4016583774,133.7494526602
 H,0,-4.3194465707,-81.5557524971,131.0459104268
 H,0,-4.8812601798,-81.7988828522,133.2810428371
 N,0,-3.2162948064,-87.1656087389,129.7703276124
 C,0,-3.386755133,-88.5861779343,130.0882311644
 C,0,-2.7127548572,-89.379635442,128.9639488499
 O,0,-2.8546682029,-89.0437757439,127.8004221783
 C,0,-4.8870616498,-88.9553907981,130.1727609072
 C,0,-5.1705865827,-90.4698425343,130.020397701
 C,0,-5.4173590273,-90.8891181359,128.5471446594
 C,0,-5.1409603848,-92.3583006366,128.2314778731
 N,0,-3.6564661628,-92.6487155986,128.2132003035
 O,0,-2.0381327186,-90.4678342382,129.3409445331
 H,0,-1.6195723928,-90.8705366323,128.5086950568
 H,0,-3.9654193155,-86.7170107217,129.2581796124
 H,0,-2.8815065099,-88.81172651,131.029224812
 H,0,-5.2693424315,-88.5886557268,131.1296274746
 H,0,-5.4314907469,-88.4169828407,129.3857627725
 H,0,-6.0549275574,-90.7341132034,130.6090520948
 H,0,-4.3414135592,-91.0335521795,130.4684258226
 H,0,-6.4685885765,-90.7024272966,128.3000256725
 H,0,-4.8365437414,-90.2707985411,127.8563824671
 H,0,-5.5876899272,-93.0283786348,128.9717908097
 H,0,-5.5172726846,-92.631945445,127.2429660579
 H,0,-3.2111945272,-92.3402709086,129.0864285559
 H,0,-3.0975946365,-92.1481791797,127.457487139
 H,0,-3.4643596962,-93.6489835941,128.1029330122
 Recover connectivity data from disk.
                           ----------------------------
                           !    Current Parameters    !
                           ! (Angstroms and Degrees)  !
 --------------------------                            --------------------------
 ! Name  Definition              Value                                          !
 --------------------------------------------------------------------------------
 ! R1    R(1,2)                  1.5152                                         !
 ! R2    R(1,10)                 1.097                                          !
 ! R3    R(1,16)                 1.0238                                         !
 ! R4    R(1,17)                 1.024                                          !
 ! R5    R(2,3)                  1.5453                                         !
 ! R6    R(2,5)                  1.5272                                         !
 ! R7    R(2,11)                 1.0872                                         !
 ! R8    R(3,4)                  1.2165                                         !
 ! R9    R(3,18)                 1.3813                                         !
 ! R10   R(5,6)                  1.5613                                         !
 ! R11   R(5,12)                 1.0963                                         !
 ! R12   R(5,13)                 1.0886                                         !
 ! R13   R(6,7)                  1.5333                                         !
 ! R14   R(6,14)                 1.0955                                         !
 ! R15   R(6,15)                 1.0924                                         !
 ! R16   R(7,8)                  1.261                                          !
 ! R17   R(7,9)                  1.2763                                         !
 ! R18   R(18,19)                1.4844                                         !
 ! R19   R(18,30)                1.0182                                         !
 ! R20   R(19,20)                1.5474                                         !
 ! R21   R(19,22)                1.5356                                         !
 ! R22   R(19,31)                1.092                                          !
 ! R23   R(20,21)                1.2315                                         !
 ! R24   R(20,39)                1.3635                                         !
 ! R25   R(22,23)                1.5129                                         !
 ! R26   R(22,32)                1.0964                                         !
 ! R27   R(22,33)                1.0951                                         !
 ! R28   R(23,24)                1.4035                                         !
 ! R29   R(23,25)                1.3992                                         !
 ! R30   R(24,26)                1.3905                                         !
 ! R31   R(24,34)                1.0875                                         !
 ! R32   R(25,27)                1.3944                                         !
 ! R33   R(25,35)                1.088                                          !
 ! R34   R(26,28)                1.4003                                         !
 ! R35   R(26,36)                1.0852                                         !
 ! R36   R(27,28)                1.3999                                         !
 ! R37   R(27,37)                1.0882                                         !
 ! R38   R(28,29)                1.3635                                         !
 ! R39   R(29,38)                0.97                                           !
 ! R40   R(39,40)                1.4657                                         !
 ! R41   R(39,50)                1.0123                                         !
 ! R42   R(40,41)                1.5323                                         !
 ! R43   R(40,43)                1.5474                                         !
 ! R44   R(40,51)                1.0916                                         !
 ! R45   R(41,42)                1.2193                                         !
 ! R46   R(41,48)                1.3347                                         !
 ! R47   R(43,44)                1.5483                                         !
 ! R48   R(43,52)                1.0937                                         !
 ! R49   R(43,53)                1.098                                          !
 ! R50   R(44,45)                1.5515                                         !
 ! R51   R(44,54)                1.0947                                         !
 ! R52   R(44,55)                1.0982                                         !
 ! R53   R(45,46)                1.5279                                         !
 ! R54   R(45,56)                1.0959                                         !
 ! R55   R(45,57)                1.094                                          !
 ! R56   R(46,47)                1.5127                                         !
 ! R57   R(46,58)                1.0939                                         !
 ! R58   R(46,59)                1.0925                                         !
 ! R59   R(47,60)                1.0276                                         !
 ! R60   R(47,61)                1.0649                                         !
 ! R61   R(47,62)                1.0245                                         !
 ! R62   R(48,49)                1.0149                                         !
 ! A1    A(2,1,10)             100.5063                                         !
 ! A2    A(2,1,16)             112.6843                                         !
 ! A3    A(2,1,17)             113.3799                                         !
 ! A4    A(10,1,16)            112.35                                           !
 ! A5    A(10,1,17)            109.6129                                         !
 ! A6    A(16,1,17)            108.2053                                         !
 ! A7    A(1,2,3)              117.2487                                         !
 ! A8    A(1,2,5)              109.91                                           !
 ! A9    A(1,2,11)             102.4524                                         !
 ! A10   A(3,2,5)              113.9631                                         !
 ! A11   A(3,2,11)             103.7582                                         !
 ! A12   A(5,2,11)             108.2789                                         !
 ! A13   A(2,3,4)              121.5022                                         !
 ! A14   A(2,3,18)             113.7801                                         !
 ! A15   A(4,3,18)             124.2214                                         !
 ! A16   A(2,5,6)              114.1406                                         !
 ! A17   A(2,5,12)             110.2502                                         !
 ! A18   A(2,5,13)             105.3359                                         !
 ! A19   A(6,5,12)             110.4835                                         !
 ! A20   A(6,5,13)             109.8753                                         !
 ! A21   A(12,5,13)            106.3527                                         !
 ! A22   A(5,6,7)              111.5579                                         !
 ! A23   A(5,6,14)             110.244                                          !
 ! A24   A(5,6,15)             108.9693                                         !
 ! A25   A(7,6,14)             107.3438                                         !
 ! A26   A(7,6,15)             111.0797                                         !
 ! A27   A(14,6,15)            107.5614                                         !
 ! A28   A(6,7,8)              116.6182                                         !
 ! A29   A(6,7,9)              120.0347                                         !
 ! A30   A(8,7,9)              123.1986                                         !
 ! A31   A(3,18,19)            118.8586                                         !
 ! A32   A(3,18,30)            114.958                                          !
 ! A33   A(19,18,30)           107.6438                                         !
 ! A34   A(18,19,20)           102.5678                                         !
 ! A35   A(18,19,22)           112.2028                                         !
 ! A36   A(18,19,31)           107.5035                                         !
 ! A37   A(20,19,22)           111.3104                                         !
 ! A38   A(20,19,31)           112.4159                                         !
 ! A39   A(22,19,31)           110.5628                                         !
 ! A40   A(19,20,21)           118.7177                                         !
 ! A41   A(19,20,39)           119.6667                                         !
 ! A42   A(21,20,39)           121.1991                                         !
 ! A43   A(19,22,23)           110.9461                                         !
 ! A44   A(19,22,32)           108.2288                                         !
 ! A45   A(19,22,33)           107.9235                                         !
 ! A46   A(23,22,32)           110.5966                                         !
 ! A47   A(23,22,33)           111.4401                                         !
 ! A48   A(32,22,33)           107.5662                                         !
 ! A49   A(22,23,24)           120.7889                                         !
 ! A50   A(22,23,25)           120.9234                                         !
 ! A51   A(24,23,25)           118.2118                                         !
 ! A52   A(23,24,26)           121.2907                                         !
 ! A53   A(23,24,34)           119.3875                                         !
 ! A54   A(26,24,34)           119.3218                                         !
 ! A55   A(23,25,27)           121.191                                          !
 ! A56   A(23,25,35)           119.7028                                         !
 ! A57   A(27,25,35)           119.1032                                         !
 ! A58   A(24,26,28)           119.7676                                         !
 ! A59   A(24,26,36)           121.424                                          !
 ! A60   A(28,26,36)           118.8047                                         !
 ! A61   A(25,27,28)           119.7968                                         !
 ! A62   A(25,27,37)           120.146                                          !
 ! A63   A(28,27,37)           120.0551                                         !
 ! A64   A(26,28,27)           119.7418                                         !
 ! A65   A(26,28,29)           117.16                                           !
 ! A66   A(27,28,29)           123.0981                                         !
 ! A67   A(28,29,38)           109.6536                                         !
 ! A68   A(20,39,40)           116.7261                                         !
 ! A69   A(20,39,50)           117.2373                                         !
 ! A70   A(40,39,50)           116.9486                                         !
 ! A71   A(39,40,41)           106.9535                                         !
 ! A72   A(39,40,43)           110.8474                                         !
 ! A73   A(39,40,51)           109.4758                                         !
 ! A74   A(41,40,43)           110.0606                                         !
 ! A75   A(41,40,51)           108.7784                                         !
 ! A76   A(43,40,51)           110.6327                                         !
 ! A77   A(40,41,42)           120.4197                                         !
 ! A78   A(40,41,48)           115.9303                                         !
 ! A79   A(42,41,48)           123.5689                                         !
 ! A80   A(40,43,44)           113.9268                                         !
 ! A81   A(40,43,52)           107.859                                          !
 ! A82   A(40,43,53)           108.9408                                         !
 ! A83   A(44,43,52)           110.4918                                         !
 ! A84   A(44,43,53)           108.5602                                         !
 ! A85   A(52,43,53)           106.8183                                         !
 ! A86   A(43,44,45)           112.7621                                         !
 ! A87   A(43,44,54)           109.3383                                         !
 ! A88   A(43,44,55)           108.8857                                         !
 ! A89   A(45,44,54)           108.4742                                         !
 ! A90   A(45,44,55)           111.6397                                         !
 ! A91   A(54,44,55)           105.4648                                         !
 ! A92   A(44,45,46)           115.2936                                         !
 ! A93   A(44,45,56)           108.7025                                         !
 ! A94   A(44,45,57)           111.2469                                         !
 ! A95   A(46,45,56)           106.9024                                         !
 ! A96   A(46,45,57)           108.4802                                         !
 ! A97   A(56,45,57)           105.7005                                         !
 ! A98   A(45,46,47)           111.3839                                         !
 ! A99   A(45,46,58)           112.0436                                         !
 ! A100  A(45,46,59)           111.4357                                         !
 ! A101  A(47,46,58)           106.9377                                         !
 ! A102  A(47,46,59)           106.1999                                         !
 ! A103  A(58,46,59)           108.5562                                         !
 ! A104  A(46,47,60)           110.9365                                         !
 ! A105  A(46,47,61)           115.6807                                         !
 ! A106  A(46,47,62)           111.8853                                         !
 ! A107  A(60,47,61)           103.5659                                         !
 ! A108  A(60,47,62)           107.6544                                         !
 ! A109  A(61,47,62)           106.5068                                         !
 ! A110  A(41,48,49)           107.4782                                         !
 ! D1    D(10,1,2,3)           157.8064                                         !
 ! D2    D(10,1,2,5)           -69.9395                                         !
 ! D3    D(10,1,2,11)           44.9961                                         !
 ! D4    D(16,1,2,3)           -82.4123                                         !
 ! D5    D(16,1,2,5)            49.8418                                         !
 ! D6    D(16,1,2,11)          164.7774                                         !
 ! D7    D(17,1,2,3)            40.928                                          !
 ! D8    D(17,1,2,5)           173.1821                                         !
 ! D9    D(17,1,2,11)          -71.8824                                         !
 ! D10   D(1,2,3,4)            123.6518                                         !
 ! D11   D(1,2,3,18)           -64.1056                                         !
 ! D12   D(5,2,3,4)             -6.7453                                         !
 ! D13   D(5,2,3,18)           165.4973                                         !
 ! D14   D(11,2,3,4)          -124.2738                                         !
 ! D15   D(11,2,3,18)           47.9688                                         !
 ! D16   D(1,2,5,6)             60.2916                                         !
 ! D17   D(1,2,5,12)           -64.7436                                         !
 ! D18   D(1,2,5,13)          -179.0965                                         !
 ! D19   D(3,2,5,6)           -165.771                                          !
 ! D20   D(3,2,5,12)            69.1937                                         !
 ! D21   D(3,2,5,13)           -45.1591                                         !
 ! D22   D(11,2,5,6)           -50.8798                                         !
 ! D23   D(11,2,5,12)         -175.9151                                         !
 ! D24   D(11,2,5,13)           69.7321                                         !
 ! D25   D(2,3,18,19)         -132.6195                                         !
 ! D26   D(2,3,18,30)           -2.9612                                         !
 ! D27   D(4,3,18,19)           39.38                                           !
 ! D28   D(4,3,18,30)          169.0383                                         !
 ! D29   D(2,5,6,7)             29.1985                                         !
 ! D30   D(2,5,6,14)           -89.967                                          !
 ! D31   D(2,5,6,15)           152.2044                                         !
 ! D32   D(12,5,6,7)           154.1099                                         !
 ! D33   D(12,5,6,14)           34.9444                                         !
 ! D34   D(12,5,6,15)          -82.8842                                         !
 ! D35   D(13,5,6,7)           -88.8487                                         !
 ! D36   D(13,5,6,14)          151.9857                                         !
 ! D37   D(13,5,6,15)           34.1571                                         !
 ! D38   D(5,6,7,8)            -73.8273                                         !
 ! D39   D(5,6,7,9)            101.8851                                         !
 ! D40   D(14,6,7,8)            47.0466                                         !
 ! D41   D(14,6,7,9)          -137.241                                          !
 ! D42   D(15,6,7,8)           164.3789                                         !
 ! D43   D(15,6,7,9)           -19.9087                                         !
 ! D44   D(3,18,19,20)          89.6758                                         !
 ! D45   D(3,18,19,22)        -150.7762                                         !
 ! D46   D(3,18,19,31)         -29.0071                                         !
 ! D47   D(30,18,19,20)        -43.234                                          !
 ! D48   D(30,18,19,22)         76.314                                          !
 ! D49   D(30,18,19,31)       -161.9169                                         !
 ! D50   D(18,19,20,21)         51.9926                                         !
 ! D51   D(18,19,20,39)       -120.6914                                         !
 ! D52   D(22,19,20,21)        -68.1757                                         !
 ! D53   D(22,19,20,39)        119.1402                                         !
 ! D54   D(31,19,20,21)        167.1619                                         !
 ! D55   D(31,19,20,39)         -5.5221                                         !
 ! D56   D(18,19,22,23)       -178.1211                                         !
 ! D57   D(18,19,22,32)        -56.6111                                         !
 ! D58   D(18,19,22,33)         59.5237                                         !
 ! D59   D(20,19,22,23)        -63.823                                          !
 ! D60   D(20,19,22,32)         57.6871                                         !
 ! D61   D(20,19,22,33)        173.8219                                         !
 ! D62   D(31,19,22,23)         61.8744                                         !
 ! D63   D(31,19,22,32)       -176.6156                                         !
 ! D64   D(31,19,22,33)        -60.4808                                         !
 ! D65   D(19,20,39,40)        152.0569                                         !
 ! D66   D(19,20,39,50)          5.972                                          !
 ! D67   D(21,20,39,40)        -20.4412                                         !
 ! D68   D(21,20,39,50)       -166.526                                          !
 ! D69   D(19,22,23,24)         88.26                                           !
 ! D70   D(19,22,23,25)        -88.514                                          !
 ! D71   D(32,22,23,24)        -31.8508                                         !
 ! D72   D(32,22,23,25)        151.3752                                         !
 ! D73   D(33,22,23,24)       -151.4524                                         !
 ! D74   D(33,22,23,25)         31.7736                                         !
 ! D75   D(22,23,24,26)       -176.9884                                         !
 ! D76   D(22,23,24,34)          3.0768                                         !
 ! D77   D(25,23,24,26)         -0.1288                                         !
 ! D78   D(25,23,24,34)        179.9364                                         !
 ! D79   D(22,23,25,27)        177.0689                                         !
 ! D80   D(22,23,25,35)         -3.5709                                         !
 ! D81   D(24,23,25,27)          0.2137                                         !
 ! D82   D(24,23,25,35)        179.574                                          !
 ! D83   D(23,24,26,28)         -0.0103                                         !
 ! D84   D(23,24,26,36)       -179.2952                                         !
 ! D85   D(34,24,26,28)        179.9245                                         !
 ! D86   D(34,24,26,36)          0.6396                                         !
 ! D87   D(23,25,27,28)         -0.159                                          !
 ! D88   D(23,25,27,37)        179.3156                                         !
 ! D89   D(35,25,27,28)       -179.523                                          !
 ! D90   D(35,25,27,37)         -0.0485                                         !
 ! D91   D(24,26,28,27)          0.0687                                         !
 ! D92   D(24,26,28,29)       -179.9787                                         !
 ! D93   D(36,26,28,27)        179.3723                                         !
 ! D94   D(36,26,28,29)         -0.6751                                         !
 ! D95   D(25,27,28,26)          0.0145                                         !
 ! D96   D(25,27,28,29)       -179.9351                                         !
 ! D97   D(37,27,28,26)       -179.4605                                         !
 ! D98   D(37,27,28,29)          0.5898                                         !
 ! D99   D(26,28,29,38)        176.9068                                         !
 ! D100  D(27,28,29,38)         -3.1423                                         !
 ! D101  D(20,39,40,41)        -52.7127                                         !
 ! D102  D(20,39,40,43)       -172.6998                                         !
 ! D103  D(20,39,40,51)         64.9823                                         !
 ! D104  D(50,39,40,41)         93.4713                                         !
 ! D105  D(50,39,40,43)        -26.5159                                         !
 ! D106  D(50,39,40,51)       -148.8338                                         !
 ! D107  D(39,40,41,42)        -42.5095                                         !
 ! D108  D(39,40,41,48)        140.6493                                         !
 ! D109  D(43,40,41,42)         77.9812                                         !
 ! D110  D(43,40,41,48)        -98.8601                                         !
 ! D111  D(51,40,41,42)       -160.6607                                         !
 ! D112  D(51,40,41,48)         22.498                                          !
 ! D113  D(39,40,43,44)        160.1925                                         !
 ! D114  D(39,40,43,52)        -76.76                                           !
 ! D115  D(39,40,43,53)         38.8319                                         !
 ! D116  D(41,40,43,44)         42.078                                          !
 ! D117  D(41,40,43,52)        165.1255                                         !
 ! D118  D(41,40,43,53)        -79.2827                                         !
 ! D119  D(51,40,43,44)        -78.166                                          !
 ! D120  D(51,40,43,52)         44.8814                                         !
 ! D121  D(51,40,43,53)        160.4733                                         !
 ! D122  D(40,41,48,49)       -177.9204                                         !
 ! D123  D(42,41,48,49)          5.3488                                         !
 ! D124  D(40,43,44,45)        -90.6734                                         !
 ! D125  D(40,43,44,54)        148.5669                                         !
 ! D126  D(40,43,44,55)         33.8127                                         !
 ! D127  D(52,43,44,45)        147.7263                                         !
 ! D128  D(52,43,44,54)         26.9666                                         !
 ! D129  D(52,43,44,55)        -87.7877                                         !
 ! D130  D(53,43,44,45)         30.8984                                         !
 ! D131  D(53,43,44,54)        -89.8613                                         !
 ! D132  D(53,43,44,55)        155.3845                                         !
 ! D133  D(43,44,45,46)        156.1369                                         !
 ! D134  D(43,44,45,56)        -83.8979                                         !
 ! D135  D(43,44,45,57)         32.0884                                         !
 ! D136  D(54,44,45,46)        -82.6109                                         !
 ! D137  D(54,44,45,56)         37.3543                                         !
 ! D138  D(54,44,45,57)        153.3406                                         !
 ! D139  D(55,44,45,46)         33.1741                                         !
 ! D140  D(55,44,45,56)        153.1393                                         !
 ! D141  D(55,44,45,57)        -90.8744                                         !
 ! D142  D(44,45,46,47)        -72.8313                                         !
 ! D143  D(44,45,46,58)         46.9109                                         !
 ! D144  D(44,45,46,59)        168.7693                                         !
 ! D145  D(56,45,46,47)        166.2205                                         !
 ! D146  D(56,45,46,58)        -74.0373                                         !
 ! D147  D(56,45,46,59)         47.821                                          !
 ! D148  D(57,45,46,47)         52.6573                                         !
 ! D149  D(57,45,46,58)        172.3995                                         !
 ! D150  D(57,45,46,59)        -65.7422                                         !
 ! D151  D(45,46,47,60)         53.5993                                         !
 ! D152  D(45,46,47,61)        -63.9583                                         !
 ! D153  D(45,46,47,62)        173.8391                                         !
 ! D154  D(58,46,47,60)        -69.1243                                         !
 ! D155  D(58,46,47,61)        173.318                                          !
 ! D156  D(58,46,47,62)         51.1155                                         !
 ! D157  D(59,46,47,60)        175.097                                          !
 ! D158  D(59,46,47,61)         57.5393                                         !
 ! D159  D(59,46,47,62)        -64.6632                                         !
 --------------------------------------------------------------------------------
 Symmetry turned off by external request.
 Stoichiometry    C20H31N4O7(1+)
 Framework group  C1[X(C20H31N4O7)]
 Deg. of freedom   180
 Full point group                 C1      NOp   1
                          Input orientation:                          
 ---------------------------------------------------------------------
 Center     Atomic      Atomic             Coordinates (Angstroms)
 Number     Number       Type             X           Y           Z
 ---------------------------------------------------------------------
      1          7           0        0.490463  -88.116614  125.545514
      2          6           0       -0.952446  -88.046210  126.002422
      3          6           0       -1.501888  -86.657524  126.399605
      4          8           0       -2.489916  -86.188679  125.866801
      5          6           0       -1.844782  -88.810443  125.026783
      6          6           0       -1.492605  -90.325529  124.891970
      7          6           0       -0.882251  -90.879306  126.184993
      8          8           0        0.304794  -90.539087  126.440339
      9          8           0       -1.596158  -91.576084  126.981120
     10          1           0        0.709277  -89.174555  125.736195
     11          1           0       -0.927811  -88.592868  126.941827
     12          1           0       -1.834822  -88.325306  124.043700
     13          1           0       -2.856197  -88.698568  125.413544
     14          1           0       -0.757055  -90.474167  124.093834
     15          1           0       -2.394560  -90.876555  124.615794
     16          1           0        0.604932  -87.866998  124.559198
     17          1           0        1.121126  -87.529954  126.099261
     18          7           0       -0.878364  -86.106330  127.502010
     19          6           0       -1.714619  -85.528731  128.583854
     20          6           0       -1.945378  -86.742467  129.515464
     21          8           0       -0.969204  -87.387053  129.900260
     22          6           0       -1.001139  -84.386535  129.321741
     23          6           0       -1.859193  -83.849922  130.446361
     24          6           0       -1.799270  -84.416611  131.728932
     25          6           0       -2.780612  -82.821602  130.219978
     26          6           0       -2.627389  -83.972777  132.754011
     27          6           0       -3.616738  -82.364123  131.237827
     28          6           0       -3.541989  -82.940565  132.511302
     29          8           0       -4.327304  -82.546862  133.554061
     30          1           0       -0.174870  -86.698930  127.938738
     31          1           0       -2.640508  -85.171623  128.128128
     32          1           0       -0.050920  -84.770553  129.711112
     33          1           0       -0.767215  -83.606530  128.589529
     34          1           0       -1.090800  -85.217812  131.925768
     35          1           0       -2.842731  -82.360224  129.236621
     36          1           0       -2.575055  -84.401658  133.749453
     37          1           0       -4.319447  -81.555752  131.045910
     38          1           0       -4.881260  -81.798883  133.281043
     39          7           0       -3.216295  -87.165609  129.770328
     40          6           0       -3.386755  -88.586178  130.088231
     41          6           0       -2.712755  -89.379635  128.963949
     42          8           0       -2.854668  -89.043776  127.800422
     43          6           0       -4.887062  -88.955391  130.172761
     44          6           0       -5.170587  -90.469843  130.020398
     45          6           0       -5.417359  -90.889118  128.547145
     46          6           0       -5.140960  -92.358301  128.231478
     47          7           0       -3.656466  -92.648716  128.213200
     48          8           0       -2.038133  -90.467834  129.340945
     49          1           0       -1.619572  -90.870537  128.508695
     50          1           0       -3.965419  -86.717011  129.258180
     51          1           0       -2.881507  -88.811727  131.029225
     52          1           0       -5.269342  -88.588656  131.129627
     53          1           0       -5.431491  -88.416983  129.385763
     54          1           0       -6.054928  -90.734113  130.609052
     55          1           0       -4.341414  -91.033552  130.468426
     56          1           0       -6.468589  -90.702427  128.300026
     57          1           0       -4.836544  -90.270799  127.856382
     58          1           0       -5.587690  -93.028379  128.971791
     59          1           0       -5.517273  -92.631945  127.242966
     60          1           0       -3.211195  -92.340271  129.086429
     61          1           0       -3.097595  -92.148179  127.457487
     62          1           0       -3.464360  -93.648984  128.102933
 ---------------------------------------------------------------------
 Rotational constants (GHZ):           0.2206281           0.0902067           0.0717175
 Standard basis: 6-31G(d) (6D, 7F)
   527 basis functions,   992 primitive gaussians,   527 cartesian basis functions
   117 alpha electrons      117 beta electrons
       nuclear repulsion energy      3439.2198317495 Hartrees.
 NAtoms=   62 NActive=   62 NUniq=   62 SFac= 1.00D+00 NAtFMM=   60 NAOKFM=T Big=T
 Integral buffers will be    131072 words long.
 Raffenetti 2 integral format.
 Two-electron integral symmetry is turned off.
 Nuclear repulsion after empirical dispersion term =     3439.1325895477 Hartrees.
 One-electron integrals computed using PRISM.
 NBasis=   527 RedAO= T EigKep=  4.35D-04  NBF=   527
 NBsUse=   527 1.00D-06 EigRej= -1.00D+00 NBFU=   527
 Initial guess from the checkpoint file:  "conf-156.chk"
 B after Tr=     0.000000    0.000000    0.000000
         Rot=    1.000000    0.000000    0.000000    0.000000 Ang=   0.00 deg.
 Requested convergence on RMS density matrix=1.00D-08 within 128 cycles.
 Requested convergence on MAX density matrix=1.00D-06.
 Requested convergence on             energy=1.00D-06.
 No special actions if energy rises.
 SCF Done:  E(RB3LYP) =  -1526.28774774     A.U. after    2 cycles
            NFock=  2  Conv=0.78D-08     -V/T= 2.0093

 **********************************************************************

            Population analysis using the SCF Density.

 **********************************************************************

 Alpha  occ. eigenvalues --  -19.30037 -19.25075 -19.24279 -19.23423 -19.22828
 Alpha  occ. eigenvalues --  -19.22445 -19.21984 -14.57496 -14.56302 -14.46905
 Alpha  occ. eigenvalues --  -14.46378 -10.43246 -10.40545 -10.40100 -10.39203
 Alpha  occ. eigenvalues --  -10.38385 -10.36467 -10.34861 -10.33477 -10.32268
 Alpha  occ. eigenvalues --  -10.31697 -10.31572 -10.31324 -10.30751 -10.29761
 Alpha  occ. eigenvalues --  -10.27584 -10.26276 -10.26204 -10.25903 -10.25793
 Alpha  occ. eigenvalues --  -10.25172  -1.21585  -1.15576  -1.15385  -1.14421
 Alpha  occ. eigenvalues --   -1.12726  -1.12389  -1.12253  -1.10949  -1.06231
 Alpha  occ. eigenvalues --   -1.03367  -1.02990  -0.93608  -0.92548  -0.91165
 Alpha  occ. eigenvalues --   -0.89313  -0.87344  -0.83554  -0.83328  -0.81595
 Alpha  occ. eigenvalues --   -0.80033  -0.77357  -0.74996  -0.74713  -0.73019
 Alpha  occ. eigenvalues --   -0.71381  -0.71136  -0.70147  -0.69763  -0.69187
 Alpha  occ. eigenvalues --   -0.69094  -0.68177  -0.67613  -0.65744  -0.64372
 Alpha  occ. eigenvalues --   -0.63891  -0.63512  -0.61586  -0.61264  -0.61008
 Alpha  occ. eigenvalues --   -0.59558  -0.58929  -0.58703  -0.57852  -0.57212
 Alpha  occ. eigenvalues --   -0.56517  -0.55877  -0.55724  -0.54970  -0.54469
 Alpha  occ. eigenvalues --   -0.53922  -0.53693  -0.53209  -0.52545  -0.51790
 Alpha  occ. eigenvalues --   -0.51689  -0.51017  -0.50444  -0.50158  -0.49803
 Alpha  occ. eigenvalues --   -0.49553  -0.49070  -0.48881  -0.47845  -0.47217
 Alpha  occ. eigenvalues --   -0.47201  -0.46628  -0.46520  -0.46052  -0.45929
 Alpha  occ. eigenvalues --   -0.45531  -0.44934  -0.44006  -0.42651  -0.42464
 Alpha  occ. eigenvalues --   -0.40446  -0.39679  -0.39384  -0.38250  -0.37567
 Alpha  occ. eigenvalues --   -0.37270  -0.37015  -0.36799  -0.36044  -0.34877
 Alpha  occ. eigenvalues --   -0.32025  -0.28603
 Alpha virt. eigenvalues --   -0.12107  -0.11728  -0.08813  -0.08483  -0.08008
 Alpha virt. eigenvalues --   -0.07283  -0.06835  -0.05919  -0.03483  -0.03379
 Alpha virt. eigenvalues --   -0.02529  -0.01979  -0.00716  -0.00040   0.00334
 Alpha virt. eigenvalues --    0.00780   0.00931   0.01822   0.02479   0.02551
 Alpha virt. eigenvalues --    0.02671   0.03081   0.03686   0.04588   0.04826
 Alpha virt. eigenvalues --    0.04985   0.05627   0.05773   0.06186   0.06648
 Alpha virt. eigenvalues --    0.07095   0.07271   0.07880   0.08680   0.09294
 Alpha virt. eigenvalues --    0.09326   0.09766   0.10164   0.10715   0.11194
 Alpha virt. eigenvalues --    0.11450   0.11677   0.12111   0.12579   0.13358
 Alpha virt. eigenvalues --    0.13517   0.14049   0.15431   0.15691   0.16039
 Alpha virt. eigenvalues --    0.17126   0.18060   0.18742   0.18991   0.19873
 Alpha virt. eigenvalues --    0.22454   0.23767   0.24226   0.25630   0.26903
 Alpha virt. eigenvalues --    0.27641   0.28356   0.29276   0.29873   0.30493
 Alpha virt. eigenvalues --    0.31425   0.31478   0.34517   0.36779   0.37889
 Alpha virt. eigenvalues --    0.38465   0.39261   0.39878   0.40205   0.41319
 Alpha virt. eigenvalues --    0.42410   0.42871   0.43477   0.44742   0.44779
 Alpha virt. eigenvalues --    0.45283   0.46269   0.46744   0.46982   0.47269
 Alpha virt. eigenvalues --    0.47606   0.48756   0.48861   0.49559   0.49711
 Alpha virt. eigenvalues --    0.50217   0.51028   0.51210   0.51568   0.52313
 Alpha virt. eigenvalues --    0.52859   0.52934   0.54156   0.54533   0.54718
 Alpha virt. eigenvalues --    0.55350   0.55738   0.55995   0.56516   0.56685
 Alpha virt. eigenvalues --    0.57456   0.57957   0.58369   0.58788   0.59338
 Alpha virt. eigenvalues --    0.60054   0.60480   0.60971   0.61357   0.61972
 Alpha virt. eigenvalues --    0.62988   0.64145   0.65698   0.66035   0.66386
 Alpha virt. eigenvalues --    0.67318   0.67960   0.68397   0.68704   0.69341
 Alpha virt. eigenvalues --    0.70086   0.70265   0.70957   0.71142   0.71663
 Alpha virt. eigenvalues --    0.72034   0.72842   0.73394   0.73586   0.74221
 Alpha virt. eigenvalues --    0.74588   0.74927   0.75034   0.75910   0.76329
 Alpha virt. eigenvalues --    0.76920   0.77564   0.78302   0.78535   0.79188
 Alpha virt. eigenvalues --    0.79473   0.79924   0.80361   0.80523   0.80941
 Alpha virt. eigenvalues --    0.81757   0.82386   0.82892   0.83122   0.83219
 Alpha virt. eigenvalues --    0.84172   0.84927   0.85074   0.85775   0.86564
 Alpha virt. eigenvalues --    0.87300   0.87907   0.88187   0.89182   0.89863
 Alpha virt. eigenvalues --    0.89951   0.90337   0.91583   0.92075   0.93020
 Alpha virt. eigenvalues --    0.93303   0.94474   0.96234   0.97578   0.97821
 Alpha virt. eigenvalues --    0.98016   0.98642   0.99793   1.00787   1.01220
 Alpha virt. eigenvalues --    1.01806   1.02366   1.04724   1.05801   1.06201
 Alpha virt. eigenvalues --    1.06752   1.09104   1.09218   1.09854   1.11622
 Alpha virt. eigenvalues --    1.12192   1.12642   1.13723   1.15162   1.15348
 Alpha virt. eigenvalues --    1.16976   1.17692   1.18682   1.18943   1.19872
 Alpha virt. eigenvalues --    1.21923   1.23229   1.23964   1.25260   1.26404
 Alpha virt. eigenvalues --    1.27148   1.28948   1.30222   1.30496   1.31519
 Alpha virt. eigenvalues --    1.32195   1.33289   1.33922   1.34472   1.35958
 Alpha virt. eigenvalues --    1.36558   1.37239   1.38014   1.39244   1.39397
 Alpha virt. eigenvalues --    1.39609   1.39777   1.42639   1.43141   1.44351
 Alpha virt. eigenvalues --    1.44659   1.45649   1.46258   1.47078   1.50312
 Alpha virt. eigenvalues --    1.51203   1.51990   1.53901   1.55437   1.56343
 Alpha virt. eigenvalues --    1.58757   1.59071   1.60467   1.61022   1.62323
 Alpha virt. eigenvalues --    1.62556   1.63512   1.64854   1.65450   1.66634
 Alpha virt. eigenvalues --    1.67225   1.67391   1.68270   1.68402   1.68954
 Alpha virt. eigenvalues --    1.69567   1.70299   1.71085   1.71944   1.72460
 Alpha virt. eigenvalues --    1.72596   1.73465   1.74643   1.75141   1.76128
 Alpha virt. eigenvalues --    1.77017   1.77463   1.78091   1.78421   1.78999
 Alpha virt. eigenvalues --    1.79234   1.80207   1.81111   1.81897   1.82230
 Alpha virt. eigenvalues --    1.84099   1.84641   1.85547   1.86194   1.86955
 Alpha virt. eigenvalues --    1.87246   1.88551   1.88735   1.89087   1.89810
 Alpha virt. eigenvalues --    1.90224   1.90553   1.91133   1.91330   1.92050
 Alpha virt. eigenvalues --    1.93071   1.94606   1.95670   1.96217   1.97658
 Alpha virt. eigenvalues --    1.97777   1.99547   1.99910   2.00681   2.01335
 Alpha virt. eigenvalues --    2.02546   2.03211   2.04066   2.04976   2.05845
 Alpha virt. eigenvalues --    2.06746   2.07273   2.08546   2.09606   2.10951
 Alpha virt. eigenvalues --    2.11828   2.13969   2.15150   2.18535   2.18935
 Alpha virt. eigenvalues --    2.19560   2.20144   2.20542   2.20796   2.21721
 Alpha virt. eigenvalues --    2.22675   2.23546   2.24103   2.24792   2.25736
 Alpha virt. eigenvalues --    2.27642   2.28434   2.29880   2.30340   2.30557
 Alpha virt. eigenvalues --    2.31926   2.32382   2.32916   2.33883   2.34492
 Alpha virt. eigenvalues --    2.35358   2.37634   2.38632   2.42252   2.43263
 Alpha virt. eigenvalues --    2.44146   2.45609   2.45932   2.46941   2.47495
 Alpha virt. eigenvalues --    2.49640   2.49900   2.50770   2.54305   2.54766
 Alpha virt. eigenvalues --    2.55215   2.55913   2.56853   2.57816   2.59241
 Alpha virt. eigenvalues --    2.59413   2.59698   2.60472   2.61484   2.63721
 Alpha virt. eigenvalues --    2.66753   2.67254   2.67817   2.70040   2.71648
 Alpha virt. eigenvalues --    2.74616   2.75780   2.79896   2.80678   2.82774
 Alpha virt. eigenvalues --    2.83030   2.84817   2.86116   2.87810   2.89082
 Alpha virt. eigenvalues --    2.90673   2.93353   2.98112   2.99965   3.00324
 Alpha virt. eigenvalues --    3.01507   3.04357   3.05337   3.34737   3.67685
 Alpha virt. eigenvalues --    3.69331   3.86265   3.87547   3.90425   3.91858
 Alpha virt. eigenvalues --    3.94265   4.02255   4.04060   4.04469   4.05969
 Alpha virt. eigenvalues --    4.07760   4.12685   4.13591   4.18167   4.19588
 Alpha virt. eigenvalues --    4.23804   4.26409   4.27365   4.27502   4.30690
 Alpha virt. eigenvalues --    4.32370   4.37073   4.37881   4.42509   4.46312
 Alpha virt. eigenvalues --    4.51252   4.56625   4.60567   4.64077   4.69658
          Condensed to atoms (all electrons):
 Mulliken charges:
               1
     1  N   -0.760463
     2  C   -0.148503
     3  C    0.615062
     4  O   -0.468152
     5  C   -0.279215
     6  C   -0.363656
     7  C    0.637715
     8  O   -0.566815
     9  O   -0.633654
    10  H    0.439858
    11  H    0.234787
    12  H    0.170846
    13  H    0.213885
    14  H    0.165642
    15  H    0.164850
    16  H    0.397346
    17  H    0.399092
    18  N   -0.598830
    19  C   -0.062067
    20  C    0.624932
    21  O   -0.537415
    22  C   -0.356241
    23  C    0.141430
    24  C   -0.191255
    25  C   -0.194714
    26  C   -0.159614
    27  C   -0.191992
    28  C    0.353136
    29  O   -0.633925
    30  H    0.331369
    31  H    0.183124
    32  H    0.166340
    33  H    0.170689
    34  H    0.146952
    35  H    0.135706
    36  H    0.151665
    37  H    0.133092
    38  H    0.414165
    39  N   -0.584579
    40  C   -0.007710
    41  C    0.602275
    42  O   -0.509641
    43  C   -0.306459
    44  C   -0.304663
    45  C   -0.312748
    46  C   -0.191310
    47  N   -0.761051
    48  O   -0.619749
    49  H    0.457303
    50  H    0.345543
    51  H    0.206765
    52  H    0.192931
    53  H    0.160656
    54  H    0.179617
    55  H    0.151532
    56  H    0.190371
    57  H    0.198071
    58  H    0.205401
    59  H    0.210745
    60  H    0.412270
    61  H    0.432816
    62  H    0.406444
 Sum of Mulliken charges =   1.00000
 Mulliken charges with hydrogens summed into heavy atoms:
               1
     1  N    0.475833
     2  C    0.086285
     3  C    0.615062
     4  O   -0.468152
     5  C    0.105516
     6  C   -0.033164
     7  C    0.637715
     8  O   -0.566815
     9  O   -0.633654
    18  N   -0.267461
    19  C    0.121057
    20  C    0.624932
    21  O   -0.537415
    22  C   -0.019212
    23  C    0.141430
    24  C   -0.044303
    25  C   -0.059008
    26  C   -0.007949
    27  C   -0.058900
    28  C    0.353136
    29  O   -0.219760
    39  N   -0.239036
    40  C    0.199054
    41  C    0.602275
    42  O   -0.509641
    43  C    0.047128
    44  C    0.026487
    45  C    0.075695
    46  C    0.224835
    47  N    0.490478
    48  O   -0.162446
 Electronic spatial extent (au):  <R**2>=       20288644.4609
 Charge=              1.0000 electrons
 Dipole moment (field-independent basis, Debye):
    X=            -15.4915    Y=           -430.6982    Z=            612.4700  Tot=            748.9062
 Quadrupole moment (field-independent basis, Debye-Ang):
   XX=            -93.5831   YY=          38508.3097   ZZ=          77938.6267
   XY=           1409.0920   XZ=          -2009.9369   YZ=         -54918.9686
 Traceless Quadrupole moment (field-independent basis, Debye-Ang):
   XX=         -38878.0342   YY=           -276.1414   ZZ=          39154.1756
   XY=           1409.0920   XZ=          -2009.9369   YZ=         -54918.9686
 Octapole moment (field-independent basis, Debye-Ang**2):
  XXX=            902.0768  YYY=       -3433811.7539  ZZZ=        9896873.2671  XYY=        -128016.4938
  XXY=           8000.4849  XXZ=         -11994.9189  XZZ=        -260310.1347  YZZ=       -6988879.1563
  YYZ=        4910131.0872  XYZ=         182686.7986
 Hexadecapole moment (field-independent basis, Debye-Ang**3):
 XXXX=          -7194.3669 YYYY=      305433401.3231 ZZZZ=     1253934576.4765 XXXY=         -78429.3851
 XXXZ=         116758.1170 YYYX=       11617897.8459 YYYZ=     -437824868.8477 ZZZX=      -33652734.2412
 ZZZY=     -887551953.0903 XXYY=        -684703.5310 XXZZ=       -1539843.4457 YYZZ=      624862569.4415
 XXYZ=        1025049.7039 YYXZ=      -16585646.4951 ZZXY=       23644144.6937
 N-N= 3.439132589548D+03 E-N=-1.041320612785D+04  KE= 1.512238740436D+03
 Unable to Open any file for archive entry.
 1\1\GINC-LAC-314\SP\RB3LYP\6-31G(d)\C20H31N4O7(1+)\KENGMITH\24-May-202
 2\0\\# B3LYP/6-31G* empiricaldispersion=gd3 guess=read geom=check nosy
 mm integral(ultrafinegrid)\\Candidate Structure: Conf:156 Charge calc 
 in gas phase\\1,1\N,0,0.4904631088,-88.1166139759,125.5455136112\C,0,-
 0.9524458343,-88.0462096569,126.002422408\C,0,-1.5018876374,-86.657523
 6274,126.3996049694\O,0,-2.4899157587,-86.1886793437,125.8668012468\C,
 0,-1.8447819522,-88.8104430553,125.0267831076\C,0,-1.4926046736,-90.32
 55289229,124.8919701632\C,0,-0.8822513062,-90.8793063006,126.184993365
 8\O,0,0.3047941833,-90.5390872199,126.4403392761\O,0,-1.5961578164,-91
 .5760843585,126.9811204297\H,0,0.7092774841,-89.1745549412,125.7361948
 617\H,0,-0.927811181,-88.5928676026,126.941826794\H,0,-1.8348221522,-8
 8.3253058795,124.0436996431\H,0,-2.856197089,-88.6985680901,125.413544
 4106\H,0,-0.7570553446,-90.474166938,124.0938337469\H,0,-2.3945597059,
 -90.8765554503,124.6157938661\H,0,0.6049318921,-87.8669982958,124.5591
 977755\H,0,1.1211258738,-87.5299541123,126.0992606699\N,0,-0.878364097
 2,-86.1063304183,127.5020103831\C,0,-1.7146186031,-85.5287309801,128.5
 838541004\C,0,-1.9453775774,-86.74246668,129.5154641589\O,0,-0.9692043
 533,-87.3870526285,129.9002604687\C,0,-1.0011393911,-84.3865351538,129
 .3217412059\C,0,-1.8591932454,-83.8499217683,130.4463612307\C,0,-1.799
 2703349,-84.416610805,131.7289319141\C,0,-2.7806124274,-82.8216018019,
 130.2199783049\C,0,-2.6273891729,-83.9727767648,132.7540112117\C,0,-3.
 6167376967,-82.364123471,131.2378266583\C,0,-3.5419894814,-82.94056493
 36,132.5113020397\O,0,-4.3273035837,-82.5468618611,133.5540610537\H,0,
 -0.1748696379,-86.698930065,127.9387381502\H,0,-2.6405081739,-85.17162
 32673,128.1281282153\H,0,-0.0509199292,-84.7705534984,129.711111553\H,
 0,-0.7672148712,-83.6065295231,128.5895294724\H,0,-1.0908000177,-85.21
 78115764,131.925767979\H,0,-2.8427306852,-82.36022385,129.2366212083\H
 ,0,-2.5750553525,-84.4016583774,133.7494526602\H,0,-4.3194465707,-81.5
 557524971,131.0459104268\H,0,-4.8812601798,-81.7988828522,133.28104283
 71\N,0,-3.2162948064,-87.1656087389,129.7703276124\C,0,-3.386755133,-8
 8.5861779343,130.0882311644\C,0,-2.7127548572,-89.379635442,128.963948
 8499\O,0,-2.8546682029,-89.0437757439,127.8004221783\C,0,-4.8870616498
 ,-88.9553907981,130.1727609072\C,0,-5.1705865827,-90.4698425343,130.02
 0397701\C,0,-5.4173590273,-90.8891181359,128.5471446594\C,0,-5.1409603
 848,-92.3583006366,128.2314778731\N,0,-3.6564661628,-92.6487155986,128
 .2132003035\O,0,-2.0381327186,-90.4678342382,129.3409445331\H,0,-1.619
 5723928,-90.8705366323,128.5086950568\H,0,-3.9654193155,-86.7170107217
 ,129.2581796124\H,0,-2.8815065099,-88.81172651,131.029224812\H,0,-5.26
 93424315,-88.5886557268,131.1296274746\H,0,-5.4314907469,-88.416982840
 7,129.3857627725\H,0,-6.0549275574,-90.7341132034,130.6090520948\H,0,-
 4.3414135592,-91.0335521795,130.4684258226\H,0,-6.4685885765,-90.70242
 72966,128.3000256725\H,0,-4.8365437414,-90.2707985411,127.8563824671\H
 ,0,-5.5876899272,-93.0283786348,128.9717908097\H,0,-5.5172726846,-92.6
 31945445,127.2429660579\H,0,-3.2111945272,-92.3402709086,129.086428555
 9\H,0,-3.0975946365,-92.1481791797,127.457487139\H,0,-3.4643596962,-93
 .6489835941,128.1029330122\\Version=ES64L-G16RevC.01\HF=-1526.2877477\
 RMSD=7.753e-09\Dipole=-1.46563,-3.7038145,-2.2386737\Quadrupole=-28904
 .8655486,-205.3043648,29110.1699134,1047.625367,-1494.3388327,-40830.9
 071237\PG=C01 [X(C20H31N4O7)]\\@
 The archive entry for this job was punched.


 IF THE FACTS DO NOT CONFORM TO THE THEORY, THEY MUST BE DISPOSED OF.
 Job cpu time:       0 days  0 hours  2 minutes 21.3 seconds.
 Elapsed time:       0 days  0 hours  0 minutes 35.8 seconds.
 File lengths (MBytes):  RWF=    264 Int=      0 D2E=      0 Chk=     40 Scr=     16
 Normal termination of Gaussian 16 at Tue May 24 19:10:05 2022.
