 Entering Gaussian System, Link 0=/opt/software/Gaussian/g16-AVX2-C.01/g16/g16
 Input=charge-conf-304.com
 Output=charge-conf-304.log
 Initial command:
 /opt/software/Gaussian/g16-AVX2-C.01/g16/l1.exe "/mnt/gs18/scratch/users/kengmith/Gau-11161.inp" -scrdir="/mnt/gs18/scratch/users/kengmith/"
 Entering Link 1 = /opt/software/Gaussian/g16-AVX2-C.01/g16/l1.exe PID=     11171.
  
 Copyright (c) 1988-2019, Gaussian, Inc.  All Rights Reserved.
  
 This is part of the Gaussian(R) 16 program.  It is based on
 the Gaussian(R) 09 system (copyright 2009, Gaussian, Inc.),
 the Gaussian(R) 03 system (copyright 2003, Gaussian, Inc.),
 the Gaussian(R) 98 system (copyright 1998, Gaussian, Inc.),
 the Gaussian(R) 94 system (copyright 1995, Gaussian, Inc.),
 the Gaussian 92(TM) system (copyright 1992, Gaussian, Inc.),
 the Gaussian 90(TM) system (copyright 1990, Gaussian, Inc.),
 the Gaussian 88(TM) system (copyright 1988, Gaussian, Inc.),
 the Gaussian 86(TM) system (copyright 1986, Carnegie Mellon
 University), and the Gaussian 82(TM) system (copyright 1983,
 Carnegie Mellon University). Gaussian is a federally registered
 trademark of Gaussian, Inc.
  
 This software contains proprietary and confidential information,
 including trade secrets, belonging to Gaussian, Inc.
  
 This software is provided under written license and may be
 used, copied, transmitted, or stored only in accord with that
 written license.
  
 The following legend is applicable only to US Government
 contracts under FAR:
  
                    RESTRICTED RIGHTS LEGEND
  
 Use, reproduction and disclosure by the US Government is
 subject to restrictions as set forth in subparagraphs (a)
 and (c) of the Commercial Computer Software - Restricted
 Rights clause in FAR 52.227-19.
  
 Gaussian, Inc.
 340 Quinnipiac St., Bldg. 40, Wallingford CT 06492
  
  
 ---------------------------------------------------------------
 Warning -- This program may not be used in any manner that
 competes with the business of Gaussian, Inc. or will provide
 assistance to any competitor of Gaussian, Inc.  The licensee
 of this program is prohibited from giving any competitor of
 Gaussian, Inc. access to this program.  By using this program,
 the user acknowledges that Gaussian, Inc. is engaged in the
 business of creating and licensing software in the field of
 computational chemistry and represents and warrants to the
 licensee that it is not a competitor of Gaussian, Inc. and that
 it will not use this program in any manner prohibited above.
 ---------------------------------------------------------------
  

 Cite this work as:
 Gaussian 16, Revision C.01,
 M. J. Frisch, G. W. Trucks, H. B. Schlegel, G. E. Scuseria, 
 M. A. Robb, J. R. Cheeseman, G. Scalmani, V. Barone, 
 G. A. Petersson, H. Nakatsuji, X. Li, M. Caricato, A. V. Marenich, 
 J. Bloino, B. G. Janesko, R. Gomperts, B. Mennucci, H. P. Hratchian, 
 J. V. Ortiz, A. F. Izmaylov, J. L. Sonnenberg, D. Williams-Young, 
 F. Ding, F. Lipparini, F. Egidi, J. Goings, B. Peng, A. Petrone, 
 T. Henderson, D. Ranasinghe, V. G. Zakrzewski, J. Gao, N. Rega, 
 G. Zheng, W. Liang, M. Hada, M. Ehara, K. Toyota, R. Fukuda, 
 J. Hasegawa, M. Ishida, T. Nakajima, Y. Honda, O. Kitao, H. Nakai, 
 T. Vreven, K. Throssell, J. A. Montgomery, Jr., J. E. Peralta, 
 F. Ogliaro, M. J. Bearpark, J. J. Heyd, E. N. Brothers, K. N. Kudin, 
 V. N. Staroverov, T. A. Keith, R. Kobayashi, J. Normand, 
 K. Raghavachari, A. P. Rendell, J. C. Burant, S. S. Iyengar, 
 J. Tomasi, M. Cossi, J. M. Millam, M. Klene, C. Adamo, R. Cammi, 
 J. W. Ochterski, R. L. Martin, K. Morokuma, O. Farkas, 
 J. B. Foresman, and D. J. Fox, Gaussian, Inc., Wallingford CT, 2019.
 
 ******************************************
 Gaussian 16:  ES64L-G16RevC.01  3-Jul-2019
                24-May-2022 
 ******************************************
 %mem=8gb
 %nproc=4
 Will use up to    4 processors via shared memory.
 %chk=conf-304.chk
 ----------------------------------------------------------------------
 # B3LYP/6-31G* empiricaldispersion=gd3 guess=read geom=check nosymm in
 tegral(ultrafinegrid)
 ----------------------------------------------------------------------
 1/29=2,38=1,172=1/1;
 2/12=2,15=1,40=1/2;
 3/5=1,6=6,7=1,11=2,14=-4,25=1,30=1,74=-5,75=-5,116=-2,124=31/1,2,3;
 4/5=1/1;
 5/5=2,38=6/2;
 6/7=2,8=2,9=2,10=2,28=1/1;
 99/5=1,9=1/99;
 ------------------------------------------------------
 Candidate Structure: Conf:304 Charge calc in gas phase
 ------------------------------------------------------
 Structure from the checkpoint file:  "conf-304.chk"
 Charge =  1 Multiplicity = 1
 Redundant internal coordinates found in file.  (old form).
 N,0,0.6948107902,-88.5678436078,128.2234943137
 C,0,-0.0360557942,-88.3167654995,129.468690212
 C,0,-1.529399518,-88.6599133224,129.5668781696
 O,0,-2.1828770657,-88.117460795,130.4628943219
 C,0,0.7373072379,-88.8412785332,130.6906689766
 C,0,2.191304555,-88.3039361019,130.7623006861
 C,0,2.1926126388,-86.8178471354,130.4758588702
 O,0,2.1873598868,-86.4448851641,129.1927086103
 O,0,2.096150801,-85.963220667,131.3502659832
 H,0,0.9124679352,-89.5497287803,128.0666619966
 H,0,-0.0862002654,-87.2262988986,129.5516598604
 H,0,0.7652408053,-89.9373746556,130.679830528
 H,0,0.1830255063,-88.5384256492,131.5830441828
 H,0,2.8282578542,-88.820640466,130.0388374846
 H,0,2.5958119614,-88.4666239159,131.7631448615
 H,0,0.2212643003,-88.1800984646,127.4073450317
 H,0,1.9812083056,-87.2319117778,128.6110741099
 N,0,-2.1032868741,-89.4366803593,128.6108959087
 C,0,-3.5532568915,-89.3142708799,128.3369867963
 C,0,-3.609921707,-88.0219845203,127.5025949185
 O,0,-3.5055022102,-88.0502342358,126.2676722932
 C,0,-4.1177339886,-90.5276558033,127.5966563098
 C,0,-5.6199046904,-90.4143165956,127.4424238337
 C,0,-6.1938107628,-89.8819196851,126.2827497218
 C,0,-6.4707802945,-90.8028189992,128.4885030314
 C,0,-7.5764097207,-89.7457049442,126.1634245035
 C,0,-7.8504086984,-90.6707117605,128.385293132
 C,0,-8.4106249595,-90.1406130639,127.2155718538
 O,0,-9.7679431592,-90.0374846878,127.1698178006
 H,0,-1.5284531266,-89.7374563125,127.8324094697
 H,0,-4.0515360265,-89.1894925512,129.2995553142
 H,0,-3.6343455524,-90.6045541317,126.6165911798
 H,0,-3.8512713662,-91.4210454709,128.1726540256
 H,0,-5.5529935307,-89.5637151453,125.4657212277
 H,0,-6.0471797817,-91.2283518871,129.3962128886
 H,0,-8.0070009053,-89.337620507,125.2512447467
 H,0,-8.5111944023,-90.9804513511,129.1882231007
 H,0,-10.0416569379,-89.695764156,126.3042192881
 N,0,-3.5330934881,-86.8631218066,128.2109967193
 C,0,-3.0806266357,-85.6107106938,127.5768902102
 C,0,-1.5673291837,-85.7963265248,127.2798648007
 O,0,-0.6476353858,-85.2998773348,127.9073476717
 C,0,-3.5039189618,-84.3615194612,128.3876108438
 C,0,-2.5396563287,-83.7507314697,129.4231928733
 C,0,-2.0531650955,-84.6939689637,130.5375780476
 C,0,-0.7870788095,-84.2024201358,131.2395909475
 N,0,0.3916779829,-84.1221733557,130.2750549724
 O,0,-1.2882198651,-86.6621742129,126.3027850346
 H,0,-2.1230053151,-87.0921802009,125.9633012935
 H,0,-3.4548465473,-86.9442647255,129.2209544985
 H,0,-3.5918735951,-85.5716644232,126.6101965627
 H,0,-3.7376673876,-83.5725076622,127.6649642126
 H,0,-4.4569052631,-84.6183804109,128.8658092249
 H,0,-3.0551379437,-82.896807813,129.8797117775
 H,0,-1.6873070809,-83.331970551,128.8804622795
 H,0,-2.8263195915,-84.810998983,131.3061049354
 H,0,-1.8559551687,-85.7013937385,130.1622183627
 H,0,-0.9184720751,-83.2098738552,131.6767134142
 H,0,-0.4829267247,-84.8912053293,132.0301948301
 H,0,1.216934131,-84.6481415021,130.6649911439
 H,0,0.6745629212,-83.159185059,130.0830991992
 H,0,0.154962443,-84.5622353253,129.366784651
 Recover connectivity data from disk.
                           ----------------------------
                           !    Current Parameters    !
                           ! (Angstroms and Degrees)  !
 --------------------------                            --------------------------
 ! Name  Definition              Value                                          !
 --------------------------------------------------------------------------------
 ! R1    R(1,2)                  1.4655                                         !
 ! R2    R(1,10)                 1.0179                                         !
 ! R3    R(1,16)                 1.0201                                         !
 ! R4    R(1,17)                 1.8947                                         !
 ! R5    R(2,3)                  1.5354                                         !
 ! R6    R(2,5)                  1.5383                                         !
 ! R7    R(2,11)                 1.0948                                         !
 ! R8    R(3,4)                  1.2346                                         !
 ! R9    R(3,18)                 1.3589                                         !
 ! R10   R(5,6)                  1.5518                                         !
 ! R11   R(5,12)                 1.0965                                         !
 ! R12   R(5,13)                 1.0933                                         !
 ! R13   R(6,7)                  1.5134                                         !
 ! R14   R(6,14)                 1.0937                                         !
 ! R15   R(6,15)                 1.0917                                         !
 ! R16   R(7,8)                  1.3363                                         !
 ! R17   R(7,9)                  1.2265                                         !
 ! R18   R(18,19)                1.4807                                         !
 ! R19   R(18,30)                1.0134                                         !
 ! R20   R(19,20)                1.5393                                         !
 ! R21   R(19,22)                1.5294                                         !
 ! R22   R(19,31)                1.091                                          !
 ! R23   R(20,21)                1.2397                                         !
 ! R24   R(20,39)                1.3604                                         !
 ! R25   R(22,23)                1.5143                                         !
 ! R26   R(22,32)                1.0955                                         !
 ! R27   R(22,33)                1.0959                                         !
 ! R28   R(23,24)                1.3992                                         !
 ! R29   R(23,25)                1.4033                                         !
 ! R30   R(24,26)                1.3944                                         !
 ! R31   R(24,34)                1.086                                          !
 ! R32   R(25,27)                1.3898                                         !
 ! R33   R(25,35)                1.0883                                         !
 ! R34   R(26,28)                1.3996                                         !
 ! R35   R(26,36)                1.0881                                         !
 ! R36   R(27,28)                1.4011                                         !
 ! R37   R(27,37)                1.085                                          !
 ! R38   R(28,29)                1.362                                          !
 ! R39   R(29,38)                0.97                                           !
 ! R40   R(39,40)                1.4749                                         !
 ! R41   R(39,50)                1.0162                                         !
 ! R42   R(40,41)                1.5533                                         !
 ! R43   R(40,43)                1.5482                                         !
 ! R44   R(40,51)                1.0943                                         !
 ! R45   R(41,42)                1.219                                          !
 ! R46   R(41,48)                1.335                                          !
 ! R47   R(43,44)                1.5412                                         !
 ! R48   R(43,52)                1.0952                                         !
 ! R49   R(43,53)                1.0967                                         !
 ! R50   R(44,45)                1.5389                                         !
 ! R51   R(44,54)                1.097                                          !
 ! R52   R(44,55)                1.0938                                         !
 ! R53   R(45,46)                1.5289                                         !
 ! R54   R(45,56)                1.0964                                         !
 ! R55   R(45,57)                1.093                                          !
 ! R56   R(46,47)                1.5252                                         !
 ! R57   R(46,58)                1.0925                                         !
 ! R58   R(46,59)                1.0918                                         !
 ! R59   R(47,60)                1.0534                                         !
 ! R60   R(47,61)                1.0219                                         !
 ! R61   R(47,62)                1.0367                                         !
 ! R62   R(48,49)                0.9985                                         !
 ! A1    A(2,1,10)             113.7549                                         !
 ! A2    A(2,1,16)             112.5286                                         !
 ! A3    A(2,1,17)              92.5213                                         !
 ! A4    A(10,1,16)            110.038                                          !
 ! A5    A(10,1,17)            124.5069                                         !
 ! A6    A(16,1,17)            102.1708                                         !
 ! A7    A(1,2,3)              120.0725                                         !
 ! A8    A(1,2,5)              111.4572                                         !
 ! A9    A(1,2,11)             104.9448                                         !
 ! A10   A(3,2,5)              111.2205                                         !
 ! A11   A(3,2,11)              99.9749                                         !
 ! A12   A(5,2,11)             107.6048                                         !
 ! A13   A(2,3,4)              117.5831                                         !
 ! A14   A(2,3,18)             119.5715                                         !
 ! A15   A(4,3,18)             122.5614                                         !
 ! A16   A(2,5,6)              112.9332                                         !
 ! A17   A(2,5,12)             110.2302                                         !
 ! A18   A(2,5,13)             107.4006                                         !
 ! A19   A(6,5,12)             108.8284                                         !
 ! A20   A(6,5,13)             109.9648                                         !
 ! A21   A(12,5,13)            107.331                                          !
 ! A22   A(5,6,7)              109.3958                                         !
 ! A23   A(5,6,14)             110.5836                                         !
 ! A24   A(5,6,15)             109.7493                                         !
 ! A25   A(7,6,14)             109.768                                          !
 ! A26   A(7,6,15)             108.6342                                         !
 ! A27   A(14,6,15)            108.6782                                         !
 ! A28   A(6,7,8)              117.1165                                         !
 ! A29   A(6,7,9)              123.3129                                         !
 ! A30   A(8,7,9)              119.3276                                         !
 ! A31   A(3,18,19)            119.7647                                         !
 ! A32   A(3,18,30)            118.0688                                         !
 ! A33   A(19,18,30)           115.9703                                         !
 ! A34   A(18,19,20)           101.8722                                         !
 ! A35   A(18,19,22)           112.6679                                         !
 ! A36   A(18,19,31)           107.0661                                         !
 ! A37   A(20,19,22)           112.9598                                         !
 ! A38   A(20,19,31)           111.4324                                         !
 ! A39   A(22,19,31)           110.4409                                         !
 ! A40   A(19,20,21)           121.1822                                         !
 ! A41   A(19,20,39)           115.519                                          !
 ! A42   A(21,20,39)           122.2353                                         !
 ! A43   A(19,22,23)           110.8577                                         !
 ! A44   A(19,22,32)           109.0199                                         !
 ! A45   A(19,22,33)           107.6148                                         !
 ! A46   A(23,22,32)           110.6004                                         !
 ! A47   A(23,22,33)           110.8396                                         !
 ! A48   A(32,22,33)           107.801                                          !
 ! A49   A(22,23,24)           121.3178                                         !
 ! A50   A(22,23,25)           120.3206                                         !
 ! A51   A(24,23,25)           118.3262                                         !
 ! A52   A(23,24,26)           120.9842                                         !
 ! A53   A(23,24,34)           119.5382                                         !
 ! A54   A(26,24,34)           119.4763                                         !
 ! A55   A(23,25,27)           121.3485                                         !
 ! A56   A(23,25,35)           119.6027                                         !
 ! A57   A(27,25,35)           119.0443                                         !
 ! A58   A(24,26,28)           119.9403                                         !
 ! A59   A(24,26,36)           120.049                                          !
 ! A60   A(28,26,36)           120.0099                                         !
 ! A61   A(25,27,28)           119.662                                          !
 ! A62   A(25,27,37)           121.4979                                         !
 ! A63   A(28,27,37)           118.836                                          !
 ! A64   A(26,28,27)           119.738                                          !
 ! A65   A(26,28,29)           123.1869                                         !
 ! A66   A(27,28,29)           117.0751                                         !
 ! A67   A(28,29,38)           109.7461                                         !
 ! A68   A(20,39,40)           121.1175                                         !
 ! A69   A(20,39,50)           116.9907                                         !
 ! A70   A(40,39,50)           118.1289                                         !
 ! A71   A(39,40,41)           106.2373                                         !
 ! A72   A(39,40,43)           112.0946                                         !
 ! A73   A(39,40,51)           105.4729                                         !
 ! A74   A(41,40,43)           117.5757                                         !
 ! A75   A(41,40,51)           106.8885                                         !
 ! A76   A(43,40,51)           107.8231                                         !
 ! A77   A(40,41,42)           126.0097                                         !
 ! A78   A(40,41,48)           114.9064                                         !
 ! A79   A(42,41,48)           118.8898                                         !
 ! A80   A(40,43,44)           120.0375                                         !
 ! A81   A(40,43,52)           107.1053                                         !
 ! A82   A(40,43,53)           106.0767                                         !
 ! A83   A(44,43,52)           106.9414                                         !
 ! A84   A(44,43,53)           110.0898                                         !
 ! A85   A(52,43,53)           105.7225                                         !
 ! A86   A(43,44,45)           116.1968                                         !
 ! A87   A(43,44,54)           107.1055                                         !
 ! A88   A(43,44,55)           107.8102                                         !
 ! A89   A(45,44,54)           108.9245                                         !
 ! A90   A(45,44,55)           110.342                                          !
 ! A91   A(54,44,55)           105.9414                                         !
 ! A92   A(44,45,46)           113.4055                                         !
 ! A93   A(44,45,56)           110.4927                                         !
 ! A94   A(44,45,57)           111.9184                                         !
 ! A95   A(46,45,56)           107.2433                                         !
 ! A96   A(46,45,57)           107.7345                                         !
 ! A97   A(56,45,57)           105.6386                                         !
 ! A98   A(45,46,47)           111.5032                                         !
 ! A99   A(45,46,58)           112.1005                                         !
 ! A100  A(45,46,59)           111.123                                          !
 ! A101  A(47,46,58)           107.3489                                         !
 ! A102  A(47,46,59)           106.0118                                         !
 ! A103  A(58,46,59)           108.4778                                         !
 ! A104  A(46,47,60)           110.1874                                         !
 ! A105  A(46,47,61)           112.4779                                         !
 ! A106  A(46,47,62)           110.8099                                         !
 ! A107  A(60,47,61)           108.8555                                         !
 ! A108  A(60,47,62)           106.9328                                         !
 ! A109  A(61,47,62)           107.3779                                         !
 ! A110  A(41,48,49)           110.6923                                         !
 ! D1    D(10,1,2,3)           -75.4034                                         !
 ! D2    D(10,1,2,5)            57.2061                                         !
 ! D3    D(10,1,2,11)          173.3905                                         !
 ! D4    D(16,1,2,3)            50.6008                                         !
 ! D5    D(16,1,2,5)          -176.7896                                         !
 ! D6    D(16,1,2,11)          -60.6052                                         !
 ! D7    D(17,1,2,3)           154.885                                          !
 ! D8    D(17,1,2,5)           -72.5055                                         !
 ! D9    D(17,1,2,11)           43.6789                                         !
 ! D10   D(1,2,3,4)           -160.695                                          !
 ! D11   D(1,2,3,18)            13.3423                                         !
 ! D12   D(5,2,3,4)             66.5951                                         !
 ! D13   D(5,2,3,18)          -119.3676                                         !
 ! D14   D(11,2,3,4)           -46.8406                                         !
 ! D15   D(11,2,3,18)          127.1967                                         !
 ! D16   D(1,2,5,6)             53.38                                           !
 ! D17   D(1,2,5,12)           -68.5846                                         !
 ! D18   D(1,2,5,13)           174.7875                                         !
 ! D19   D(3,2,5,6)           -169.7175                                         !
 ! D20   D(3,2,5,12)            68.3178                                         !
 ! D21   D(3,2,5,13)           -48.31                                           !
 ! D22   D(11,2,5,6)           -61.1662                                         !
 ! D23   D(11,2,5,12)          176.8692                                         !
 ! D24   D(11,2,5,13)           60.2413                                         !
 ! D25   D(2,3,18,19)         -153.7486                                         !
 ! D26   D(2,3,18,30)           -2.5068                                         !
 ! D27   D(4,3,18,19)           19.9795                                         !
 ! D28   D(4,3,18,30)          171.2214                                         !
 ! D29   D(2,5,6,7)             45.0135                                         !
 ! D30   D(2,5,6,14)           -75.9996                                         !
 ! D31   D(2,5,6,15)           164.1128                                         !
 ! D32   D(12,5,6,7)           167.7629                                         !
 ! D33   D(12,5,6,14)           46.7498                                         !
 ! D34   D(12,5,6,15)          -73.1378                                         !
 ! D35   D(13,5,6,7)           -74.9322                                         !
 ! D36   D(13,5,6,14)          164.0547                                         !
 ! D37   D(13,5,6,15)           44.1671                                         !
 ! D38   D(5,6,7,8)            -82.9717                                         !
 ! D39   D(5,6,7,9)             91.317                                          !
 ! D40   D(14,6,7,8)            38.5351                                         !
 ! D41   D(14,6,7,9)          -147.1762                                         !
 ! D42   D(15,6,7,8)           157.2415                                         !
 ! D43   D(15,6,7,9)           -28.4699                                         !
 ! D44   D(3,18,19,20)          77.4123                                         !
 ! D45   D(3,18,19,22)        -161.2701                                         !
 ! D46   D(3,18,19,31)         -39.6608                                         !
 ! D47   D(30,18,19,20)        -74.4099                                         !
 ! D48   D(30,18,19,22)         46.9077                                         !
 ! D49   D(30,18,19,31)        168.517                                          !
 ! D50   D(18,19,20,21)         89.548                                          !
 ! D51   D(18,19,20,39)        -78.9122                                         !
 ! D52   D(22,19,20,21)        -31.567                                          !
 ! D53   D(22,19,20,39)        159.9728                                         !
 ! D54   D(31,19,20,21)       -156.5803                                         !
 ! D55   D(31,19,20,39)         34.9595                                         !
 ! D56   D(18,19,22,23)        175.1649                                         !
 ! D57   D(18,19,22,32)        -62.8561                                         !
 ! D58   D(18,19,22,33)         53.8056                                         !
 ! D59   D(20,19,22,23)        -70.0593                                         !
 ! D60   D(20,19,22,32)         51.9198                                         !
 ! D61   D(20,19,22,33)        168.5814                                         !
 ! D62   D(31,19,22,23)         55.4901                                         !
 ! D63   D(31,19,22,32)        177.4692                                         !
 ! D64   D(31,19,22,33)        -65.8691                                         !
 ! D65   D(19,20,39,40)        157.1576                                         !
 ! D66   D(19,20,39,50)         -0.5811                                         !
 ! D67   D(21,20,39,40)        -11.169                                          !
 ! D68   D(21,20,39,50)       -168.9077                                         !
 ! D69   D(19,22,23,24)         94.7169                                         !
 ! D70   D(19,22,23,25)        -83.0824                                         !
 ! D71   D(32,22,23,24)        -26.3336                                         !
 ! D72   D(32,22,23,25)        155.8671                                         !
 ! D73   D(33,22,23,24)       -145.8411                                         !
 ! D74   D(33,22,23,25)         36.3596                                         !
 ! D75   D(22,23,24,26)       -178.1629                                         !
 ! D76   D(22,23,24,34)          1.4243                                         !
 ! D77   D(25,23,24,26)         -0.321                                          !
 ! D78   D(25,23,24,34)        179.2662                                         !
 ! D79   D(22,23,25,27)        178.0565                                         !
 ! D80   D(22,23,25,35)         -2.7212                                         !
 ! D81   D(24,23,25,27)          0.1923                                         !
 ! D82   D(24,23,25,35)        179.4146                                         !
 ! D83   D(23,24,26,28)          0.2064                                         !
 ! D84   D(23,24,26,36)       -179.4748                                         !
 ! D85   D(34,24,26,28)       -179.3811                                         !
 ! D86   D(34,24,26,36)          0.9377                                         !
 ! D87   D(23,25,27,28)          0.051                                          !
 ! D88   D(23,25,27,37)        179.315                                          !
 ! D89   D(35,25,27,28)       -179.1756                                         !
 ! D90   D(35,25,27,37)          0.0884                                         !
 ! D91   D(24,26,28,27)          0.0439                                         !
 ! D92   D(24,26,28,29)       -179.9863                                         !
 ! D93   D(36,26,28,27)        179.7252                                         !
 ! D94   D(36,26,28,29)         -0.3049                                         !
 ! D95   D(25,27,28,26)         -0.1706                                         !
 ! D96   D(25,27,28,29)        179.8577                                         !
 ! D97   D(37,27,28,26)       -179.4541                                         !
 ! D98   D(37,27,28,29)          0.5742                                         !
 ! D99   D(26,28,29,38)          2.4453                                         !
 ! D100  D(27,28,29,38)       -177.584                                          !
 ! D101  D(20,39,40,41)        -69.2768                                         !
 ! D102  D(20,39,40,43)        161.0362                                         !
 ! D103  D(20,39,40,51)         43.9628                                         !
 ! D104  D(50,39,40,41)         88.2172                                         !
 ! D105  D(50,39,40,43)        -41.4697                                         !
 ! D106  D(50,39,40,51)       -158.5432                                         !
 ! D107  D(39,40,41,42)       -104.2798                                         !
 ! D108  D(39,40,41,48)         70.5696                                         !
 ! D109  D(43,40,41,42)         22.1665                                         !
 ! D110  D(43,40,41,48)       -162.9841                                         !
 ! D111  D(51,40,41,42)        143.4603                                         !
 ! D112  D(51,40,41,48)        -41.6904                                         !
 ! D113  D(39,40,43,44)         93.6664                                         !
 ! D114  D(39,40,43,52)       -144.32                                           !
 ! D115  D(39,40,43,53)        -31.754                                          !
 ! D116  D(41,40,43,44)        -29.8695                                         !
 ! D117  D(41,40,43,52)         92.1441                                         !
 ! D118  D(41,40,43,53)       -155.2899                                         !
 ! D119  D(51,40,43,44)       -150.6782                                         !
 ! D120  D(51,40,43,52)        -28.6646                                         !
 ! D121  D(51,40,43,53)         83.9014                                         !
 ! D122  D(40,41,48,49)         -3.5779                                         !
 ! D123  D(42,41,48,49)        171.6644                                         !
 ! D124  D(40,43,44,45)        -57.0265                                         !
 ! D125  D(40,43,44,54)       -179.0039                                         !
 ! D126  D(40,43,44,55)         67.3742                                         !
 ! D127  D(52,43,44,45)       -179.1202                                         !
 ! D128  D(52,43,44,54)         58.9024                                         !
 ! D129  D(52,43,44,55)        -54.7195                                         !
 ! D130  D(53,43,44,45)         66.4842                                         !
 ! D131  D(53,43,44,54)        -55.4933                                         !
 ! D132  D(53,43,44,55)       -169.1151                                         !
 ! D133  D(43,44,45,46)        161.0262                                         !
 ! D134  D(43,44,45,56)        -78.5358                                         !
 ! D135  D(43,44,45,57)         38.8891                                         !
 ! D136  D(54,44,45,46)        -77.9619                                         !
 ! D137  D(54,44,45,56)         42.4761                                         !
 ! D138  D(54,44,45,57)        159.901                                          !
 ! D139  D(55,44,45,46)         37.9363                                         !
 ! D140  D(55,44,45,56)        158.3742                                         !
 ! D141  D(55,44,45,57)        -84.2009                                         !
 ! D142  D(44,45,46,47)        -62.7099                                         !
 ! D143  D(44,45,46,58)         57.6807                                         !
 ! D144  D(44,45,46,59)        179.2539                                         !
 ! D145  D(56,45,46,47)        175.0289                                         !
 ! D146  D(56,45,46,58)        -64.5804                                         !
 ! D147  D(56,45,46,59)         56.9927                                         !
 ! D148  D(57,45,46,47)         61.7256                                         !
 ! D149  D(57,45,46,58)       -177.8838                                         !
 ! D150  D(57,45,46,59)        -56.3106                                         !
 ! D151  D(45,46,47,60)       -127.5076                                         !
 ! D152  D(45,46,47,61)        110.8392                                         !
 ! D153  D(45,46,47,62)         -9.3623                                         !
 ! D154  D(58,46,47,60)        109.3495                                         !
 ! D155  D(58,46,47,61)        -12.3037                                         !
 ! D156  D(58,46,47,62)       -132.5052                                         !
 ! D157  D(59,46,47,60)         -6.4418                                         !
 ! D158  D(59,46,47,61)       -128.095                                          !
 ! D159  D(59,46,47,62)        111.7035                                         !
 --------------------------------------------------------------------------------
 Symmetry turned off by external request.
 Stoichiometry    C20H31N4O7(1+)
 Framework group  C1[X(C20H31N4O7)]
 Deg. of freedom   180
 Full point group                 C1      NOp   1
                          Input orientation:                          
 ---------------------------------------------------------------------
 Center     Atomic      Atomic             Coordinates (Angstroms)
 Number     Number       Type             X           Y           Z
 ---------------------------------------------------------------------
      1          7           0        0.694811  -88.567844  128.223494
      2          6           0       -0.036056  -88.316765  129.468690
      3          6           0       -1.529400  -88.659913  129.566878
      4          8           0       -2.182877  -88.117461  130.462894
      5          6           0        0.737307  -88.841279  130.690669
      6          6           0        2.191305  -88.303936  130.762301
      7          6           0        2.192613  -86.817847  130.475859
      8          8           0        2.187360  -86.444885  129.192709
      9          8           0        2.096151  -85.963221  131.350266
     10          1           0        0.912468  -89.549729  128.066662
     11          1           0       -0.086200  -87.226299  129.551660
     12          1           0        0.765241  -89.937375  130.679831
     13          1           0        0.183026  -88.538426  131.583044
     14          1           0        2.828258  -88.820640  130.038837
     15          1           0        2.595812  -88.466624  131.763145
     16          1           0        0.221264  -88.180098  127.407345
     17          1           0        1.981208  -87.231912  128.611074
     18          7           0       -2.103287  -89.436680  128.610896
     19          6           0       -3.553257  -89.314271  128.336987
     20          6           0       -3.609922  -88.021985  127.502595
     21          8           0       -3.505502  -88.050234  126.267672
     22          6           0       -4.117734  -90.527656  127.596656
     23          6           0       -5.619905  -90.414317  127.442424
     24          6           0       -6.193811  -89.881920  126.282750
     25          6           0       -6.470780  -90.802819  128.488503
     26          6           0       -7.576410  -89.745705  126.163425
     27          6           0       -7.850409  -90.670712  128.385293
     28          6           0       -8.410625  -90.140613  127.215572
     29          8           0       -9.767943  -90.037485  127.169818
     30          1           0       -1.528453  -89.737456  127.832409
     31          1           0       -4.051536  -89.189493  129.299555
     32          1           0       -3.634346  -90.604554  126.616591
     33          1           0       -3.851271  -91.421045  128.172654
     34          1           0       -5.552994  -89.563715  125.465721
     35          1           0       -6.047180  -91.228352  129.396213
     36          1           0       -8.007001  -89.337621  125.251245
     37          1           0       -8.511194  -90.980451  129.188223
     38          1           0      -10.041657  -89.695764  126.304219
     39          7           0       -3.533093  -86.863122  128.210997
     40          6           0       -3.080627  -85.610711  127.576890
     41          6           0       -1.567329  -85.796327  127.279865
     42          8           0       -0.647635  -85.299877  127.907348
     43          6           0       -3.503919  -84.361519  128.387611
     44          6           0       -2.539656  -83.750731  129.423193
     45          6           0       -2.053165  -84.693969  130.537578
     46          6           0       -0.787079  -84.202420  131.239591
     47          7           0        0.391678  -84.122173  130.275055
     48          8           0       -1.288220  -86.662174  126.302785
     49          1           0       -2.123005  -87.092180  125.963301
     50          1           0       -3.454847  -86.944265  129.220954
     51          1           0       -3.591874  -85.571664  126.610197
     52          1           0       -3.737667  -83.572508  127.664964
     53          1           0       -4.456905  -84.618380  128.865809
     54          1           0       -3.055138  -82.896808  129.879712
     55          1           0       -1.687307  -83.331971  128.880462
     56          1           0       -2.826320  -84.810999  131.306105
     57          1           0       -1.855955  -85.701394  130.162218
     58          1           0       -0.918472  -83.209874  131.676713
     59          1           0       -0.482927  -84.891205  132.030195
     60          1           0        1.216934  -84.648142  130.664991
     61          1           0        0.674563  -83.159185  130.083099
     62          1           0        0.154962  -84.562235  129.366785
 ---------------------------------------------------------------------
 Rotational constants (GHZ):           0.2699199           0.0773708           0.0701891
 Standard basis: 6-31G(d) (6D, 7F)
   527 basis functions,   992 primitive gaussians,   527 cartesian basis functions
   117 alpha electrons      117 beta electrons
       nuclear repulsion energy      3432.9451271234 Hartrees.
 NAtoms=   62 NActive=   62 NUniq=   62 SFac= 1.00D+00 NAtFMM=   60 NAOKFM=T Big=T
 Integral buffers will be    131072 words long.
 Raffenetti 2 integral format.
 Two-electron integral symmetry is turned off.
 Nuclear repulsion after empirical dispersion term =     3432.8553996662 Hartrees.
 One-electron integrals computed using PRISM.
 NBasis=   527 RedAO= T EigKep=  4.35D-04  NBF=   527
 NBsUse=   527 1.00D-06 EigRej= -1.00D+00 NBFU=   527
 Initial guess from the checkpoint file:  "conf-304.chk"
 B after Tr=     0.000000    0.000000    0.000000
         Rot=    1.000000    0.000000    0.000000    0.000000 Ang=   0.00 deg.
 Requested convergence on RMS density matrix=1.00D-08 within 128 cycles.
 Requested convergence on MAX density matrix=1.00D-06.
 Requested convergence on             energy=1.00D-06.
 No special actions if energy rises.
 SCF Done:  E(RB3LYP) =  -1526.32031565     A.U. after    1 cycles
            NFock=  1  Conv=0.91D-08     -V/T= 2.0093

 **********************************************************************

            Population analysis using the SCF Density.

 **********************************************************************

 Alpha  occ. eigenvalues --  -19.31444 -19.30513 -19.27665 -19.26561 -19.25488
 Alpha  occ. eigenvalues --  -19.24577 -19.24469 -14.55702 -14.49367 -14.49350
 Alpha  occ. eigenvalues --  -14.47053 -10.45747 -10.44453 -10.42031 -10.41558
 Alpha  occ. eigenvalues --  -10.37245 -10.37243 -10.35854 -10.35233 -10.32139
 Alpha  occ. eigenvalues --  -10.32073 -10.31853 -10.31676 -10.31664 -10.31056
 Alpha  occ. eigenvalues --  -10.28931 -10.26866 -10.26525 -10.26432 -10.26066
 Alpha  occ. eigenvalues --  -10.25570  -1.23270  -1.22130  -1.17475  -1.16260
 Alpha  occ. eigenvalues --   -1.14630  -1.13648  -1.12724  -1.10671  -1.06015
 Alpha  occ. eigenvalues --   -1.05347  -1.03065  -0.93367  -0.93044  -0.91566
 Alpha  occ. eigenvalues --   -0.89985  -0.88270  -0.84165  -0.83832  -0.81984
 Alpha  occ. eigenvalues --   -0.81178  -0.77310  -0.75913  -0.75662  -0.74031
 Alpha  occ. eigenvalues --   -0.72354  -0.72194  -0.71483  -0.70821  -0.69910
 Alpha  occ. eigenvalues --   -0.69471  -0.68975  -0.67032  -0.66467  -0.65100
 Alpha  occ. eigenvalues --   -0.64381  -0.63092  -0.62367  -0.62066  -0.61679
 Alpha  occ. eigenvalues --   -0.61332  -0.59835  -0.59006  -0.58757  -0.58310
 Alpha  occ. eigenvalues --   -0.57955  -0.56898  -0.56053  -0.55844  -0.55598
 Alpha  occ. eigenvalues --   -0.54811  -0.54683  -0.54219  -0.53783  -0.53187
 Alpha  occ. eigenvalues --   -0.52782  -0.52398  -0.51607  -0.51240  -0.50685
 Alpha  occ. eigenvalues --   -0.50513  -0.49503  -0.49228  -0.48963  -0.48321
 Alpha  occ. eigenvalues --   -0.47478  -0.47375  -0.47180  -0.46996  -0.46760
 Alpha  occ. eigenvalues --   -0.46000  -0.45583  -0.44730  -0.44380  -0.43581
 Alpha  occ. eigenvalues --   -0.43347  -0.42123  -0.41831  -0.40875  -0.40422
 Alpha  occ. eigenvalues --   -0.40218  -0.40120  -0.38416  -0.37496  -0.36790
 Alpha  occ. eigenvalues --   -0.32409  -0.29022
 Alpha virt. eigenvalues --   -0.14560  -0.12591  -0.11598  -0.09884  -0.07712
 Alpha virt. eigenvalues --   -0.07481  -0.06385  -0.06293  -0.03158  -0.02379
 Alpha virt. eigenvalues --   -0.01372  -0.01109  -0.00354   0.00369   0.00547
 Alpha virt. eigenvalues --    0.00776   0.01420   0.02121   0.02585   0.02831
 Alpha virt. eigenvalues --    0.03118   0.03200   0.03515   0.04049   0.04751
 Alpha virt. eigenvalues --    0.05367   0.05555   0.05802   0.05977   0.06538
 Alpha virt. eigenvalues --    0.06715   0.07209   0.07539   0.07721   0.08327
 Alpha virt. eigenvalues --    0.08585   0.08792   0.09431   0.09837   0.10181
 Alpha virt. eigenvalues --    0.11073   0.11651   0.11770   0.12388   0.12756
 Alpha virt. eigenvalues --    0.13242   0.13426   0.13968   0.14107   0.14873
 Alpha virt. eigenvalues --    0.16232   0.16564   0.16871   0.18322   0.18637
 Alpha virt. eigenvalues --    0.22292   0.22881   0.23371   0.24310   0.24818
 Alpha virt. eigenvalues --    0.25194   0.26172   0.26804   0.27347   0.28619
 Alpha virt. eigenvalues --    0.29078   0.32711   0.34300   0.36148   0.37745
 Alpha virt. eigenvalues --    0.38317   0.38952   0.39746   0.41117   0.41408
 Alpha virt. eigenvalues --    0.41843   0.42122   0.43010   0.43025   0.43360
 Alpha virt. eigenvalues --    0.44242   0.45151   0.45571   0.45777   0.46224
 Alpha virt. eigenvalues --    0.46761   0.47058   0.47765   0.48555   0.48944
 Alpha virt. eigenvalues --    0.49655   0.50151   0.50435   0.50910   0.51824
 Alpha virt. eigenvalues --    0.51926   0.52306   0.53362   0.53449   0.53963
 Alpha virt. eigenvalues --    0.54351   0.55353   0.55471   0.56255   0.56583
 Alpha virt. eigenvalues --    0.56680   0.57559   0.57683   0.58240   0.58883
 Alpha virt. eigenvalues --    0.59896   0.60334   0.61086   0.61683   0.61845
 Alpha virt. eigenvalues --    0.62988   0.63765   0.64170   0.64626   0.65625
 Alpha virt. eigenvalues --    0.66696   0.67800   0.68211   0.68698   0.68775
 Alpha virt. eigenvalues --    0.69356   0.69857   0.70456   0.71257   0.71602
 Alpha virt. eigenvalues --    0.72545   0.72735   0.73298   0.73862   0.74821
 Alpha virt. eigenvalues --    0.74982   0.75092   0.75431   0.75813   0.76399
 Alpha virt. eigenvalues --    0.77283   0.77313   0.77726   0.78247   0.79091
 Alpha virt. eigenvalues --    0.79281   0.79835   0.80406   0.81057   0.81279
 Alpha virt. eigenvalues --    0.81605   0.81965   0.82583   0.83061   0.83296
 Alpha virt. eigenvalues --    0.83909   0.84444   0.85350   0.85990   0.86972
 Alpha virt. eigenvalues --    0.87319   0.87867   0.88264   0.88411   0.89348
 Alpha virt. eigenvalues --    0.89727   0.90194   0.90892   0.91281   0.91558
 Alpha virt. eigenvalues --    0.92702   0.93680   0.94286   0.95339   0.95783
 Alpha virt. eigenvalues --    0.97158   0.98337   0.98663   1.00914   1.01504
 Alpha virt. eigenvalues --    1.02639   1.03457   1.04527   1.06358   1.07562
 Alpha virt. eigenvalues --    1.07951   1.08382   1.08617   1.10757   1.11064
 Alpha virt. eigenvalues --    1.11397   1.12138   1.13580   1.14457   1.15428
 Alpha virt. eigenvalues --    1.16816   1.16993   1.17500   1.19448   1.19772
 Alpha virt. eigenvalues --    1.20775   1.22714   1.23456   1.23754   1.25312
 Alpha virt. eigenvalues --    1.26417   1.27513   1.28428   1.29499   1.29949
 Alpha virt. eigenvalues --    1.30130   1.31340   1.31409   1.32952   1.34408
 Alpha virt. eigenvalues --    1.34762   1.34890   1.35886   1.36816   1.38175
 Alpha virt. eigenvalues --    1.39272   1.39754   1.41081   1.42376   1.43269
 Alpha virt. eigenvalues --    1.43951   1.44949   1.45891   1.47757   1.48115
 Alpha virt. eigenvalues --    1.50218   1.51572   1.52685   1.53176   1.53418
 Alpha virt. eigenvalues --    1.54879   1.56312   1.58309   1.59506   1.60375
 Alpha virt. eigenvalues --    1.61526   1.62352   1.63248   1.64632   1.65059
 Alpha virt. eigenvalues --    1.65808   1.66610   1.66752   1.66828   1.67483
 Alpha virt. eigenvalues --    1.68956   1.69420   1.69605   1.70746   1.70942
 Alpha virt. eigenvalues --    1.71961   1.72460   1.73301   1.73507   1.74265
 Alpha virt. eigenvalues --    1.75337   1.76988   1.77778   1.78022   1.78723
 Alpha virt. eigenvalues --    1.79481   1.80131   1.80984   1.81869   1.81977
 Alpha virt. eigenvalues --    1.82783   1.83397   1.83825   1.84348   1.85210
 Alpha virt. eigenvalues --    1.85693   1.86552   1.86791   1.87902   1.88668
 Alpha virt. eigenvalues --    1.88928   1.89725   1.90182   1.90822   1.91408
 Alpha virt. eigenvalues --    1.92409   1.92660   1.94697   1.95140   1.95840
 Alpha virt. eigenvalues --    1.96521   1.97478   1.97820   1.99153   2.00020
 Alpha virt. eigenvalues --    2.00882   2.01160   2.02882   2.04281   2.05006
 Alpha virt. eigenvalues --    2.05090   2.06039   2.07049   2.07643   2.08555
 Alpha virt. eigenvalues --    2.10053   2.11467   2.12438   2.16961   2.17658
 Alpha virt. eigenvalues --    2.19129   2.19765   2.20754   2.21494   2.22445
 Alpha virt. eigenvalues --    2.23789   2.24036   2.25199   2.25383   2.25940
 Alpha virt. eigenvalues --    2.26951   2.28135   2.29205   2.29462   2.30440
 Alpha virt. eigenvalues --    2.31778   2.33276   2.33658   2.34362   2.34897
 Alpha virt. eigenvalues --    2.35971   2.36464   2.38047   2.38880   2.40463
 Alpha virt. eigenvalues --    2.41112   2.42352   2.43430   2.45352   2.46727
 Alpha virt. eigenvalues --    2.48154   2.48544   2.49877   2.50834   2.52312
 Alpha virt. eigenvalues --    2.53103   2.53743   2.53973   2.56279   2.57103
 Alpha virt. eigenvalues --    2.57786   2.58610   2.59459   2.60691   2.61614
 Alpha virt. eigenvalues --    2.63222   2.64957   2.66049   2.67434   2.70219
 Alpha virt. eigenvalues --    2.71663   2.74869   2.77135   2.77571   2.80175
 Alpha virt. eigenvalues --    2.81886   2.82512   2.86116   2.86738   2.89797
 Alpha virt. eigenvalues --    2.90506   2.92392   2.93321   2.94973   2.95742
 Alpha virt. eigenvalues --    3.02536   3.03085   3.05113   3.34367   3.72874
 Alpha virt. eigenvalues --    3.75082   3.86325   3.87445   3.88948   3.91555
 Alpha virt. eigenvalues --    3.96936   4.01982   4.04282   4.04516   4.05017
 Alpha virt. eigenvalues --    4.05981   4.11024   4.13807   4.15899   4.17958
 Alpha virt. eigenvalues --    4.19406   4.23944   4.24945   4.25171   4.27972
 Alpha virt. eigenvalues --    4.29183   4.29809   4.37237   4.41484   4.42330
 Alpha virt. eigenvalues --    4.45781   4.53866   4.56164   4.64572   4.68679
          Condensed to atoms (all electrons):
 Mulliken charges:
               1
     1  N   -0.798079
     2  C   -0.088974
     3  C    0.615495
     4  O   -0.537660
     5  C   -0.286067
     6  C   -0.353543
     7  C    0.603515
     8  O   -0.582865
     9  O   -0.498169
    10  H    0.335419
    11  H    0.179380
    12  H    0.175613
    13  H    0.200814
    14  H    0.183207
    15  H    0.208729
    16  H    0.356415
    17  H    0.461192
    18  N   -0.597945
    19  C   -0.058606
    20  C    0.628732
    21  O   -0.557360
    22  C   -0.368351
    23  C    0.140208
    24  C   -0.186311
    25  C   -0.190209
    26  C   -0.194318
    27  C   -0.155669
    28  C    0.355436
    29  O   -0.631053
    30  H    0.331238
    31  H    0.203631
    32  H    0.166443
    33  H    0.171732
    34  H    0.150889
    35  H    0.132160
    36  H    0.133103
    37  H    0.156253
    38  H    0.414999
    39  N   -0.605132
    40  C   -0.076407
    41  C    0.629370
    42  O   -0.498564
    43  C   -0.311559
    44  C   -0.267055
    45  C   -0.312360
    46  C   -0.180393
    47  N   -0.815001
    48  O   -0.585320
    49  H    0.463938
    50  H    0.382965
    51  H    0.210523
    52  H    0.182255
    53  H    0.180696
    54  H    0.167682
    55  H    0.142619
    56  H    0.185885
    57  H    0.169624
    58  H    0.200951
    59  H    0.218567
    60  H    0.439212
    61  H    0.398217
    62  H    0.459864
 Sum of Mulliken charges =   1.00000
 Mulliken charges with hydrogens summed into heavy atoms:
               1
     1  N   -0.106244
     2  C    0.090406
     3  C    0.615495
     4  O   -0.537660
     5  C    0.090360
     6  C    0.038393
     7  C    0.603515
     8  O   -0.121673
     9  O   -0.498169
    18  N   -0.266707
    19  C    0.145025
    20  C    0.628732
    21  O   -0.557360
    22  C   -0.030177
    23  C    0.140208
    24  C   -0.035422
    25  C   -0.058048
    26  C   -0.061215
    27  C    0.000583
    28  C    0.355436
    29  O   -0.216054
    39  N   -0.222167
    40  C    0.134116
    41  C    0.629370
    42  O   -0.498564
    43  C    0.051392
    44  C    0.043247
    45  C    0.043149
    46  C    0.239126
    47  N    0.482292
    48  O   -0.121383
 Electronic spatial extent (au):  <R**2>=       20261913.8901
 Charge=              1.0000 electrons
 Dipole moment (field-independent basis, Debye):
    X=             -6.1672    Y=           -415.0731    Z=            619.4841  Tot=            745.7106
 Quadrupole moment (field-independent basis, Debye-Ang):
   XX=           -134.9657   YY=          35734.3293   ZZ=          79731.6128
   XY=            527.4054   XZ=           -774.1089   YZ=         -53521.1833
 Traceless Quadrupole moment (field-independent basis, Debye-Ang):
   XX=         -38578.6245   YY=          -2709.3295   ZZ=          41287.9540
   XY=            527.4054   XZ=           -774.1089   YZ=         -53521.1833
 Octapole moment (field-independent basis, Debye-Ang**2):
  XXX=           1082.4874  YYY=       -3064077.8233  ZZZ=       10240782.7022  XYY=         -44641.3420
  XXY=          11845.3441  XXZ=         -17531.0245  XZZ=         -96725.0650  YZZ=       -6886750.3422
  YYZ=        4606763.9156  XYZ=          66141.2602
 Hexadecapole moment (field-independent basis, Debye-Ang**3):
 XXXX=         -15704.6060 YYYY=      261587859.6183 ZZZZ=     1312599633.7640 XXXY=         -96941.7766
 XXXZ=         139284.3241 YYYX=        3733651.5161 YYYZ=     -394935833.5534 ZZZX=      -12027667.2037
 ZZZY=     -884282386.1574 XXYY=       -1043579.7458 XXZZ=       -2279734.3773 YYZZ=      592618676.9458
 XXYZ=        1538459.2436 YYXZ=       -5592338.5712 ZZXY=        8255071.8274
 N-N= 3.432855399666D+03 E-N=-1.039818266633D+04  KE= 1.512260208452D+03
 Unable to Open any file for archive entry.
 1\1\GINC-LAC-312\SP\RB3LYP\6-31G(d)\C20H31N4O7(1+)\KENGMITH\24-May-202
 2\0\\# B3LYP/6-31G* empiricaldispersion=gd3 guess=read geom=check nosy
 mm integral(ultrafinegrid)\\Candidate Structure: Conf:304 Charge calc 
 in gas phase\\1,1\N,0,0.6948107902,-88.5678436078,128.2234943137\C,0,-
 0.0360557942,-88.3167654995,129.468690212\C,0,-1.529399518,-88.6599133
 224,129.5668781696\O,0,-2.1828770657,-88.117460795,130.4628943219\C,0,
 0.7373072379,-88.8412785332,130.6906689766\C,0,2.191304555,-88.3039361
 019,130.7623006861\C,0,2.1926126388,-86.8178471354,130.4758588702\O,0,
 2.1873598868,-86.4448851641,129.1927086103\O,0,2.096150801,-85.9632206
 67,131.3502659832\H,0,0.9124679352,-89.5497287803,128.0666619966\H,0,-
 0.0862002654,-87.2262988986,129.5516598604\H,0,0.7652408053,-89.937374
 6556,130.679830528\H,0,0.1830255063,-88.5384256492,131.5830441828\H,0,
 2.8282578542,-88.820640466,130.0388374846\H,0,2.5958119614,-88.4666239
 159,131.7631448615\H,0,0.2212643003,-88.1800984646,127.4073450317\H,0,
 1.9812083056,-87.2319117778,128.6110741099\N,0,-2.1032868741,-89.43668
 03593,128.6108959087\C,0,-3.5532568915,-89.3142708799,128.3369867963\C
 ,0,-3.609921707,-88.0219845203,127.5025949185\O,0,-3.5055022102,-88.05
 02342358,126.2676722932\C,0,-4.1177339886,-90.5276558033,127.596656309
 8\C,0,-5.6199046904,-90.4143165956,127.4424238337\C,0,-6.1938107628,-8
 9.8819196851,126.2827497218\C,0,-6.4707802945,-90.8028189992,128.48850
 30314\C,0,-7.5764097207,-89.7457049442,126.1634245035\C,0,-7.850408698
 4,-90.6707117605,128.385293132\C,0,-8.4106249595,-90.1406130639,127.21
 55718538\O,0,-9.7679431592,-90.0374846878,127.1698178006\H,0,-1.528453
 1266,-89.7374563125,127.8324094697\H,0,-4.0515360265,-89.1894925512,12
 9.2995553142\H,0,-3.6343455524,-90.6045541317,126.6165911798\H,0,-3.85
 12713662,-91.4210454709,128.1726540256\H,0,-5.5529935307,-89.563715145
 3,125.4657212277\H,0,-6.0471797817,-91.2283518871,129.3962128886\H,0,-
 8.0070009053,-89.337620507,125.2512447467\H,0,-8.5111944023,-90.980451
 3511,129.1882231007\H,0,-10.0416569379,-89.695764156,126.3042192881\N,
 0,-3.5330934881,-86.8631218066,128.2109967193\C,0,-3.0806266357,-85.61
 07106938,127.5768902102\C,0,-1.5673291837,-85.7963265248,127.279864800
 7\O,0,-0.6476353858,-85.2998773348,127.9073476717\C,0,-3.5039189618,-8
 4.3615194612,128.3876108438\C,0,-2.5396563287,-83.7507314697,129.42319
 28733\C,0,-2.0531650955,-84.6939689637,130.5375780476\C,0,-0.787078809
 5,-84.2024201358,131.2395909475\N,0,0.3916779829,-84.1221733557,130.27
 50549724\O,0,-1.2882198651,-86.6621742129,126.3027850346\H,0,-2.123005
 3151,-87.0921802009,125.9633012935\H,0,-3.4548465473,-86.9442647255,12
 9.2209544985\H,0,-3.5918735951,-85.5716644232,126.6101965627\H,0,-3.73
 76673876,-83.5725076622,127.6649642126\H,0,-4.4569052631,-84.618380410
 9,128.8658092249\H,0,-3.0551379437,-82.896807813,129.8797117775\H,0,-1
 .6873070809,-83.331970551,128.8804622795\H,0,-2.8263195915,-84.8109989
 83,131.3061049354\H,0,-1.8559551687,-85.7013937385,130.1622183627\H,0,
 -0.9184720751,-83.2098738552,131.6767134142\H,0,-0.4829267247,-84.8912
 053293,132.0301948301\H,0,1.216934131,-84.6481415021,130.6649911439\H,
 0,0.6745629212,-83.159185059,130.0830991992\H,0,0.154962443,-84.562235
 3253,129.366784651\\Version=ES64L-G16RevC.01\HF=-1526.3203157\RMSD=9.0
 96e-09\Dipole=2.2775423,2.2336871,0.624477\Quadrupole=-28682.2617815,-
 2014.3200691,30696.5818506,392.1130159,-575.531029,-39791.6879871\PG=C
 01 [X(C20H31N4O7)]\\@
 The archive entry for this job was punched.


 TO DRY ONE'S EYES AND LAUGH AT A FALL
 AND BAFFLED, GET UP AND BEGIN AGAIN.
           R. BROWNING
 Job cpu time:       0 days  0 hours  1 minutes 27.0 seconds.
 Elapsed time:       0 days  0 hours  0 minutes 22.2 seconds.
 File lengths (MBytes):  RWF=    264 Int=      0 D2E=      0 Chk=     40 Scr=     16
 Normal termination of Gaussian 16 at Tue May 24 19:13:16 2022.
