 Entering Gaussian System, Link 0=/opt/software/Gaussian/g16-AVX2-C.01/g16/g16
 Input=charge-conf-123.com
 Output=charge-conf-123.log
 Initial command:
 /opt/software/Gaussian/g16-AVX2-C.01/g16/l1.exe "/mnt/gs18/scratch/users/kengmith/Gau-30152.inp" -scrdir="/mnt/gs18/scratch/users/kengmith/"
 Entering Link 1 = /opt/software/Gaussian/g16-AVX2-C.01/g16/l1.exe PID=     30162.
  
 Copyright (c) 1988-2019, Gaussian, Inc.  All Rights Reserved.
  
 This is part of the Gaussian(R) 16 program.  It is based on
 the Gaussian(R) 09 system (copyright 2009, Gaussian, Inc.),
 the Gaussian(R) 03 system (copyright 2003, Gaussian, Inc.),
 the Gaussian(R) 98 system (copyright 1998, Gaussian, Inc.),
 the Gaussian(R) 94 system (copyright 1995, Gaussian, Inc.),
 the Gaussian 92(TM) system (copyright 1992, Gaussian, Inc.),
 the Gaussian 90(TM) system (copyright 1990, Gaussian, Inc.),
 the Gaussian 88(TM) system (copyright 1988, Gaussian, Inc.),
 the Gaussian 86(TM) system (copyright 1986, Carnegie Mellon
 University), and the Gaussian 82(TM) system (copyright 1983,
 Carnegie Mellon University). Gaussian is a federally registered
 trademark of Gaussian, Inc.
  
 This software contains proprietary and confidential information,
 including trade secrets, belonging to Gaussian, Inc.
  
 This software is provided under written license and may be
 used, copied, transmitted, or stored only in accord with that
 written license.
  
 The following legend is applicable only to US Government
 contracts under FAR:
  
                    RESTRICTED RIGHTS LEGEND
  
 Use, reproduction and disclosure by the US Government is
 subject to restrictions as set forth in subparagraphs (a)
 and (c) of the Commercial Computer Software - Restricted
 Rights clause in FAR 52.227-19.
  
 Gaussian, Inc.
 340 Quinnipiac St., Bldg. 40, Wallingford CT 06492
  
  
 ---------------------------------------------------------------
 Warning -- This program may not be used in any manner that
 competes with the business of Gaussian, Inc. or will provide
 assistance to any competitor of Gaussian, Inc.  The licensee
 of this program is prohibited from giving any competitor of
 Gaussian, Inc. access to this program.  By using this program,
 the user acknowledges that Gaussian, Inc. is engaged in the
 business of creating and licensing software in the field of
 computational chemistry and represents and warrants to the
 licensee that it is not a competitor of Gaussian, Inc. and that
 it will not use this program in any manner prohibited above.
 ---------------------------------------------------------------
  

 Cite this work as:
 Gaussian 16, Revision C.01,
 M. J. Frisch, G. W. Trucks, H. B. Schlegel, G. E. Scuseria, 
 M. A. Robb, J. R. Cheeseman, G. Scalmani, V. Barone, 
 G. A. Petersson, H. Nakatsuji, X. Li, M. Caricato, A. V. Marenich, 
 J. Bloino, B. G. Janesko, R. Gomperts, B. Mennucci, H. P. Hratchian, 
 J. V. Ortiz, A. F. Izmaylov, J. L. Sonnenberg, D. Williams-Young, 
 F. Ding, F. Lipparini, F. Egidi, J. Goings, B. Peng, A. Petrone, 
 T. Henderson, D. Ranasinghe, V. G. Zakrzewski, J. Gao, N. Rega, 
 G. Zheng, W. Liang, M. Hada, M. Ehara, K. Toyota, R. Fukuda, 
 J. Hasegawa, M. Ishida, T. Nakajima, Y. Honda, O. Kitao, H. Nakai, 
 T. Vreven, K. Throssell, J. A. Montgomery, Jr., J. E. Peralta, 
 F. Ogliaro, M. J. Bearpark, J. J. Heyd, E. N. Brothers, K. N. Kudin, 
 V. N. Staroverov, T. A. Keith, R. Kobayashi, J. Normand, 
 K. Raghavachari, A. P. Rendell, J. C. Burant, S. S. Iyengar, 
 J. Tomasi, M. Cossi, J. M. Millam, M. Klene, C. Adamo, R. Cammi, 
 J. W. Ochterski, R. L. Martin, K. Morokuma, O. Farkas, 
 J. B. Foresman, and D. J. Fox, Gaussian, Inc., Wallingford CT, 2019.
 
 ******************************************
 Gaussian 16:  ES64L-G16RevC.01  3-Jul-2019
                24-May-2022 
 ******************************************
 %mem=8gb
 %nproc=4
 Will use up to    4 processors via shared memory.
 %chk=conf-123.chk
 ----------------------------------------------------------------------
 # B3LYP/6-31G* empiricaldispersion=gd3 guess=read geom=check nosymm in
 tegral(ultrafinegrid)
 ----------------------------------------------------------------------
 1/29=2,38=1,172=1/1;
 2/12=2,15=1,40=1/2;
 3/5=1,6=6,7=1,11=2,14=-4,25=1,30=1,74=-5,75=-5,116=-2,124=31/1,2,3;
 4/5=1/1;
 5/5=2,38=6/2;
 6/7=2,8=2,9=2,10=2,28=1/1;
 99/5=1,9=1/99;
 ------------------------------------------------------
 Candidate Structure: Conf:123 Charge calc in gas phase
 ------------------------------------------------------
 Structure from the checkpoint file:  "conf-123.chk"
 Charge =  1 Multiplicity = 1
 Redundant internal coordinates found in file.  (old form).
 N,0,-4.8710153274,-90.1001147663,129.7471928592
 C,0,-3.7348937241,-90.1608014099,128.810243381
 C,0,-2.3418973002,-89.6778314192,129.2430868177
 O,0,-1.4110233336,-89.8134845555,128.4500399631
 C,0,-3.6746719532,-91.5254540577,128.1103174488
 C,0,-5.0054008508,-91.9208765636,127.4141406263
 C,0,-5.596389201,-90.7215398485,126.7102302362
 O,0,-6.3088764809,-89.8693528981,127.461894438
 O,0,-5.3919490888,-90.4507675825,125.5312218586
 H,0,-6.1242296198,-90.0585055224,128.4345144265
 H,0,-3.957851938,-89.3978026898,128.0519179118
 H,0,-3.4090669128,-92.308174934,128.8303880898
 H,0,-2.8670888812,-91.4776947655,127.3776329226
 H,0,-5.7259218375,-92.3000858292,128.144889869
 H,0,-4.8180193614,-92.7011967107,126.6741765364
 H,0,-4.8060951136,-90.8021796678,130.4830147727
 H,0,-4.9583653412,-89.1846324474,130.1850056599
 N,0,-2.2397380331,-88.9378757224,130.3808551218
 C,0,-1.2397831221,-87.8496665684,130.4501359396
 C,0,-1.8334933397,-86.7486651616,129.542368733
 O,0,-2.5729914346,-85.8671542342,129.9717952759
 C,0,-1.017415681,-87.3656323592,131.8846968219
 C,0,0.1295462228,-86.3797446858,131.9603133766
 C,0,-0.0876485848,-85.0013225212,131.8555700089
 C,0,1.4492127256,-86.837320731,132.0929441399
 C,0,0.9780423118,-84.1027183669,131.8885366193
 C,0,2.5217911962,-85.9536210458,132.1252316614
 C,0,2.2879297139,-84.5763349053,132.0241879701
 O,0,3.3762347684,-83.7566779506,132.0645627959
 H,0,-3.0740781227,-88.7839124175,130.9322104583
 H,0,-0.3098378691,-88.2419892205,130.0349037248
 H,0,-1.9432030656,-86.9054095007,132.248578113
 H,0,-0.8117929233,-88.2452291897,132.5054204576
 H,0,-1.0999850814,-84.6271874742,131.7362762621
 H,0,1.641278307,-87.9046863749,132.1834202564
 H,0,0.7911836383,-83.0333450186,131.8125699905
 H,0,3.5423149247,-86.3047294107,132.2375059102
 H,0,3.0890599068,-82.8314208155,132.0172947166
 N,0,-1.6275295771,-86.9355162537,128.2083532111
 C,0,-2.3501003656,-86.1698593175,127.206487549
 C,0,-3.7405094699,-85.7528900742,127.6823823424
 O,0,-4.2216019737,-84.6573158878,127.5849957511
 C,0,-2.50392978,-87.0093268057,125.9177121094
 C,0,-3.1358692096,-86.2169822409,124.749136333
 C,0,-4.0432124644,-87.0503721097,123.8174127674
 C,0,-5.5310943664,-87.0202661194,124.1729574258
 N,0,-5.8521998786,-87.7617040779,125.4493788936
 O,0,-4.5225180048,-86.8506569458,128.0516985012
 H,0,-5.3126450316,-86.458419355,128.4718809981
 H,0,-1.1203341173,-87.7631214408,127.9129442068
 H,0,-1.83357021,-85.2291880947,126.9859350701
 H,0,-1.5142440021,-87.3747012215,125.621092049
 H,0,-3.0841092804,-87.9084362082,126.1636257245
 H,0,-2.329669533,-85.7752639846,124.1558352224
 H,0,-3.7091251463,-85.3627352536,125.1328084999
 H,0,-3.9843324159,-86.6483212614,122.7998569638
 H,0,-3.69621329,-88.0898222163,123.7510420765
 H,0,-5.8828990929,-85.9926679662,124.3007498461
 H,0,-6.1301396113,-87.4991904375,123.3943882849
 H,0,-5.3305824363,-87.4176098546,126.2719996641
 H,0,-5.6585131038,-88.8014137799,125.369719499
 H,0,-6.8464910217,-87.6884086605,125.6855360994
 Recover connectivity data from disk.
                           ----------------------------
                           !    Current Parameters    !
                           ! (Angstroms and Degrees)  !
 --------------------------                            --------------------------
 ! Name  Definition              Value                                          !
 --------------------------------------------------------------------------------
 ! R1    R(1,2)                  1.4739                                         !
 ! R2    R(1,10)                 1.8153                                         !
 ! R3    R(1,16)                 1.0191                                         !
 ! R4    R(1,17)                 1.0185                                         !
 ! R5    R(2,3)                  1.5366                                         !
 ! R6    R(2,5)                  1.5349                                         !
 ! R7    R(2,11)                 1.0986                                         !
 ! R8    R(3,4)                  1.2304                                         !
 ! R9    R(3,18)                 1.3611                                         !
 ! R10   R(5,6)                  1.553                                          !
 ! R11   R(5,12)                 1.0962                                         !
 ! R12   R(5,13)                 1.0915                                         !
 ! R13   R(6,7)                  1.511                                          !
 ! R14   R(6,14)                 1.094                                          !
 ! R15   R(6,15)                 1.0916                                         !
 ! R16   R(7,8)                  1.3412                                         !
 ! R17   R(7,9)                  1.2269                                         !
 ! R18   R(18,19)                1.4795                                         !
 ! R19   R(18,30)                1.0118                                         !
 ! R20   R(19,20)                1.5456                                         !
 ! R21   R(19,22)                1.5303                                         !
 ! R22   R(19,31)                1.0914                                         !
 ! R23   R(20,21)                1.2281                                         !
 ! R24   R(20,39)                1.3627                                         !
 ! R25   R(22,23)                1.5143                                         !
 ! R26   R(22,32)                1.096                                          !
 ! R27   R(22,33)                1.096                                          !
 ! R28   R(23,24)                1.3994                                         !
 ! R29   R(23,25)                1.403                                          !
 ! R30   R(24,26)                1.3944                                         !
 ! R31   R(24,34)                1.0858                                         !
 ! R32   R(25,27)                1.3901                                         !
 ! R33   R(25,35)                1.0883                                         !
 ! R34   R(26,28)                1.3995                                         !
 ! R35   R(26,36)                1.0882                                         !
 ! R36   R(27,28)                1.4006                                         !
 ! R37   R(27,37)                1.0851                                         !
 ! R38   R(28,29)                1.363                                          !
 ! R39   R(29,38)                0.97                                           !
 ! R40   R(39,40)                1.4533                                         !
 ! R41   R(39,50)                1.0146                                         !
 ! R42   R(40,41)                1.5276                                         !
 ! R43   R(40,43)                1.5457                                         !
 ! R44   R(40,51)                1.0956                                         !
 ! R45   R(41,42)                1.2005                                         !
 ! R46   R(41,48)                1.3975                                         !
 ! R47   R(43,44)                1.5468                                         !
 ! R48   R(43,52)                1.0959                                         !
 ! R49   R(43,53)                1.0979                                         !
 ! R50   R(44,45)                1.5446                                         !
 ! R51   R(44,54)                1.0941                                         !
 ! R52   R(44,55)                1.098                                          !
 ! R53   R(45,46)                1.5301                                         !
 ! R54   R(45,56)                1.0957                                         !
 ! R55   R(45,57)                1.0978                                         !
 ! R56   R(46,47)                1.5107                                         !
 ! R57   R(46,58)                1.0936                                         !
 ! R58   R(46,59)                1.0929                                         !
 ! R59   R(47,60)                1.033                                          !
 ! R60   R(47,61)                1.0606                                         !
 ! R61   R(47,62)                1.0246                                         !
 ! R62   R(48,49)                0.9771                                         !
 ! A1    A(2,1,10)              94.2099                                         !
 ! A2    A(2,1,16)             112.4285                                         !
 ! A3    A(2,1,17)             112.1089                                         !
 ! A4    A(10,1,16)            125.583                                          !
 ! A5    A(10,1,17)            103.357                                          !
 ! A6    A(16,1,17)            108.3191                                         !
 ! A7    A(1,2,3)              120.4506                                         !
 ! A8    A(1,2,5)              110.9004                                         !
 ! A9    A(1,2,11)             104.7004                                         !
 ! A10   A(3,2,5)              111.8605                                         !
 ! A11   A(3,2,11)              99.2144                                         !
 ! A12   A(5,2,11)             108.1007                                         !
 ! A13   A(2,3,4)              118.012                                          !
 ! A14   A(2,3,18)             118.3207                                         !
 ! A15   A(4,3,18)             122.8172                                         !
 ! A16   A(2,5,6)              113.4021                                         !
 ! A17   A(2,5,12)             110.1696                                         !
 ! A18   A(2,5,13)             107.2322                                         !
 ! A19   A(6,5,12)             108.6791                                         !
 ! A20   A(6,5,13)             110.1344                                         !
 ! A21   A(12,5,13)            107.0325                                         !
 ! A22   A(5,6,7)              109.9909                                         !
 ! A23   A(5,6,14)             110.6803                                         !
 ! A24   A(5,6,15)             109.8037                                         !
 ! A25   A(7,6,14)             109.1891                                         !
 ! A26   A(7,6,15)             108.587                                          !
 ! A27   A(14,6,15)            108.5453                                         !
 ! A28   A(6,7,8)              116.8089                                         !
 ! A29   A(6,7,9)              123.8961                                         !
 ! A30   A(8,7,9)              119.1349                                         !
 ! A31   A(3,18,19)            119.3243                                         !
 ! A32   A(3,18,30)            118.4467                                         !
 ! A33   A(19,18,30)           114.8267                                         !
 ! A34   A(18,19,20)           103.6995                                         !
 ! A35   A(18,19,22)           112.0098                                         !
 ! A36   A(18,19,31)           107.0784                                         !
 ! A37   A(20,19,22)           112.402                                          !
 ! A38   A(20,19,31)           111.0959                                         !
 ! A39   A(22,19,31)           110.2767                                         !
 ! A40   A(19,20,21)           122.4962                                         !
 ! A41   A(19,20,39)           114.7867                                         !
 ! A42   A(21,20,39)           122.1221                                         !
 ! A43   A(19,22,23)           111.2722                                         !
 ! A44   A(19,22,32)           108.7422                                         !
 ! A45   A(19,22,33)           107.7183                                         !
 ! A46   A(23,22,32)           110.4755                                         !
 ! A47   A(23,22,33)           110.6161                                         !
 ! A48   A(32,22,33)           107.9041                                         !
 ! A49   A(22,23,24)           121.3325                                         !
 ! A50   A(22,23,25)           120.3178                                         !
 ! A51   A(24,23,25)           118.3151                                         !
 ! A52   A(23,24,26)           120.9585                                         !
 ! A53   A(23,24,34)           119.4942                                         !
 ! A54   A(26,24,34)           119.5441                                         !
 ! A55   A(23,25,27)           121.373                                          !
 ! A56   A(23,25,35)           119.5859                                         !
 ! A57   A(27,25,35)           119.0379                                         !
 ! A58   A(24,26,28)           119.9702                                         !
 ! A59   A(24,26,36)           120.0264                                         !
 ! A60   A(28,26,36)           120.003                                          !
 ! A61   A(25,27,28)           119.6434                                         !
 ! A62   A(25,27,37)           121.4926                                         !
 ! A63   A(28,27,37)           118.8611                                         !
 ! A64   A(26,28,27)           119.7391                                         !
 ! A65   A(26,28,29)           123.1403                                         !
 ! A66   A(27,28,29)           117.1206                                         !
 ! A67   A(28,29,38)           109.621                                          !
 ! A68   A(20,39,40)           121.8352                                         !
 ! A69   A(20,39,50)           118.192                                          !
 ! A70   A(40,39,50)           118.5264                                         !
 ! A71   A(39,40,41)           112.4319                                         !
 ! A72   A(39,40,43)           109.7632                                         !
 ! A73   A(39,40,51)           110.8986                                         !
 ! A74   A(41,40,43)           108.5057                                         !
 ! A75   A(41,40,51)           104.9203                                         !
 ! A76   A(43,40,51)           110.2043                                         !
 ! A77   A(40,41,42)           126.056                                          !
 ! A78   A(40,41,48)           112.1624                                         !
 ! A79   A(42,41,48)           120.9341                                         !
 ! A80   A(40,43,44)           113.1003                                         !
 ! A81   A(40,43,52)           108.4734                                         !
 ! A82   A(40,43,53)           108.0941                                         !
 ! A83   A(44,43,52)           109.5877                                         !
 ! A84   A(44,43,53)           111.8881                                         !
 ! A85   A(52,43,53)           105.3558                                         !
 ! A86   A(43,44,45)           114.7904                                         !
 ! A87   A(43,44,54)           108.3868                                         !
 ! A88   A(43,44,55)           110.3552                                         !
 ! A89   A(45,44,54)           108.8788                                         !
 ! A90   A(45,44,55)           108.8963                                         !
 ! A91   A(54,44,55)           105.0757                                         !
 ! A92   A(44,45,46)           114.8621                                         !
 ! A93   A(44,45,56)           109.3077                                         !
 ! A94   A(44,45,57)           111.2008                                         !
 ! A95   A(46,45,56)           105.1198                                         !
 ! A96   A(46,45,57)           109.879                                          !
 ! A97   A(56,45,57)           105.9198                                         !
 ! A98   A(45,46,47)           113.1652                                         !
 ! A99   A(45,46,58)           111.0052                                         !
 ! A100  A(45,46,59)           111.0299                                         !
 ! A101  A(47,46,58)           107.101                                          !
 ! A102  A(47,46,59)           105.6848                                         !
 ! A103  A(58,46,59)           108.5829                                         !
 ! A104  A(46,47,60)           113.7047                                         !
 ! A105  A(46,47,61)           112.2631                                         !
 ! A106  A(46,47,62)           111.4642                                         !
 ! A107  A(60,47,61)           107.1051                                         !
 ! A108  A(60,47,62)           106.4175                                         !
 ! A109  A(61,47,62)           105.347                                          !
 ! A110  A(41,48,49)           104.5256                                         !
 ! D1    D(10,1,2,3)           155.9545                                         !
 ! D2    D(10,1,2,5)           -70.6648                                         !
 ! D3    D(10,1,2,11)           45.6953                                         !
 ! D4    D(16,1,2,3)           -72.6246                                         !
 ! D5    D(16,1,2,5)            60.7561                                         !
 ! D6    D(16,1,2,11)          177.1161                                         !
 ! D7    D(17,1,2,3)            49.6985                                         !
 ! D8    D(17,1,2,5)          -176.9208                                         !
 ! D9    D(17,1,2,11)          -60.5608                                         !
 ! D10   D(1,2,3,4)            176.2596                                         !
 ! D11   D(1,2,3,18)           -13.9926                                         !
 ! D12   D(5,2,3,4)             43.2794                                         !
 ! D13   D(5,2,3,18)          -146.9728                                         !
 ! D14   D(11,2,3,4)           -70.5627                                         !
 ! D15   D(11,2,3,18)           99.1851                                         !
 ! D16   D(1,2,5,6)             53.768                                          !
 ! D17   D(1,2,5,12)           -68.2877                                         !
 ! D18   D(1,2,5,13)           175.567                                          !
 ! D19   D(3,2,5,6)           -168.6939                                         !
 ! D20   D(3,2,5,12)            69.2504                                         !
 ! D21   D(3,2,5,13)           -46.8949                                         !
 ! D22   D(11,2,5,6)           -60.4746                                         !
 ! D23   D(11,2,5,12)          177.4696                                         !
 ! D24   D(11,2,5,13)           61.3244                                         !
 ! D25   D(2,3,18,19)         -144.49                                           !
 ! D26   D(2,3,18,30)            3.9437                                         !
 ! D27   D(4,3,18,19)           24.734                                          !
 ! D28   D(4,3,18,30)          173.1676                                         !
 ! D29   D(2,5,6,7)             41.6532                                         !
 ! D30   D(2,5,6,14)           -79.0889                                         !
 ! D31   D(2,5,6,15)           161.0925                                         !
 ! D32   D(12,5,6,7)           164.5349                                         !
 ! D33   D(12,5,6,14)           43.7929                                         !
 ! D34   D(12,5,6,15)          -76.0257                                         !
 ! D35   D(13,5,6,7)           -78.511                                          !
 ! D36   D(13,5,6,14)          160.7469                                         !
 ! D37   D(13,5,6,15)           40.9283                                         !
 ! D38   D(5,6,7,8)            -82.3256                                         !
 ! D39   D(5,6,7,9)             93.0242                                         !
 ! D40   D(14,6,7,8)            39.3098                                         !
 ! D41   D(14,6,7,9)          -145.3404                                         !
 ! D42   D(15,6,7,8)           157.4957                                         !
 ! D43   D(15,6,7,9)           -27.1545                                         !
 ! D44   D(3,18,19,20)          72.939                                          !
 ! D45   D(3,18,19,22)        -165.6191                                         !
 ! D46   D(3,18,19,31)         -44.6064                                         !
 ! D47   D(30,18,19,20)        -76.5868                                         !
 ! D48   D(30,18,19,22)         44.8551                                         !
 ! D49   D(30,18,19,31)        165.8678                                         !
 ! D50   D(18,19,20,21)         90.7067                                         !
 ! D51   D(18,19,20,39)        -80.6152                                         !
 ! D52   D(22,19,20,21)        -30.472                                          !
 ! D53   D(22,19,20,39)        158.2061                                         !
 ! D54   D(31,19,20,21)       -154.5828                                         !
 ! D55   D(31,19,20,39)         34.0954                                         !
 ! D56   D(18,19,22,23)        172.7989                                         !
 ! D57   D(18,19,22,32)        -65.2968                                         !
 ! D58   D(18,19,22,33)         51.3961                                         !
 ! D59   D(20,19,22,23)        -70.9105                                         !
 ! D60   D(20,19,22,32)         50.9938                                         !
 ! D61   D(20,19,22,33)        167.6868                                         !
 ! D62   D(31,19,22,23)         53.6531                                         !
 ! D63   D(31,19,22,32)        175.5574                                         !
 ! D64   D(31,19,22,33)        -67.7496                                         !
 ! D65   D(19,20,39,40)        166.52                                           !
 ! D66   D(19,20,39,50)          0.4509                                         !
 ! D67   D(21,20,39,40)         -4.8379                                         !
 ! D68   D(21,20,39,50)       -170.907                                          !
 ! D69   D(19,22,23,24)         92.1741                                         !
 ! D70   D(19,22,23,25)        -85.6511                                         !
 ! D71   D(32,22,23,24)        -28.7184                                         !
 ! D72   D(32,22,23,25)        153.4564                                         !
 ! D73   D(33,22,23,24)       -148.1301                                         !
 ! D74   D(33,22,23,25)         34.0448                                         !
 ! D75   D(22,23,24,26)       -178.1797                                         !
 ! D76   D(22,23,24,34)          1.1627                                         !
 ! D77   D(25,23,24,26)         -0.3122                                         !
 ! D78   D(25,23,24,34)        179.0301                                         !
 ! D79   D(22,23,25,27)        178.1003                                         !
 ! D80   D(22,23,25,35)         -2.5617                                         !
 ! D81   D(24,23,25,27)          0.2104                                         !
 ! D82   D(24,23,25,35)        179.5485                                         !
 ! D83   D(23,24,26,28)          0.1849                                         !
 ! D84   D(23,24,26,36)       -179.5868                                         !
 ! D85   D(34,24,26,28)       -179.1571                                         !
 ! D86   D(34,24,26,36)          1.0712                                         !
 ! D87   D(23,25,27,28)          0.0193                                         !
 ! D88   D(23,25,27,37)        179.3916                                         !
 ! D89   D(35,25,27,28)       -179.3223                                         !
 ! D90   D(35,25,27,37)          0.05                                           !
 ! D91   D(24,26,28,27)          0.0516                                         !
 ! D92   D(24,26,28,29)       -179.96                                           !
 ! D93   D(36,26,28,27)        179.8233                                         !
 ! D94   D(36,26,28,29)         -0.1883                                         !
 ! D95   D(25,27,28,26)         -0.1521                                         !
 ! D96   D(25,27,28,29)        179.8589                                         !
 ! D97   D(37,27,28,26)       -179.541                                          !
 ! D98   D(37,27,28,29)          0.47                                           !
 ! D99   D(26,28,29,38)          1.9624                                         !
 ! D100  D(27,28,29,38)       -178.049                                          !
 ! D101  D(20,39,40,41)        -29.8285                                         !
 ! D102  D(20,39,40,43)       -150.7056                                         !
 ! D103  D(20,39,40,51)         87.2877                                         !
 ! D104  D(50,39,40,41)        136.1957                                         !
 ! D105  D(50,39,40,43)         15.3187                                         !
 ! D106  D(50,39,40,51)       -106.688                                          !
 ! D107  D(39,40,41,42)        133.1818                                         !
 ! D108  D(39,40,41,48)        -57.357                                          !
 ! D109  D(43,40,41,42)       -105.2217                                         !
 ! D110  D(43,40,41,48)         64.2395                                         !
 ! D111  D(51,40,41,42)         12.5593                                         !
 ! D112  D(51,40,41,48)       -177.9795                                         !
 ! D113  D(39,40,43,44)       -174.1392                                         !
 ! D114  D(39,40,43,52)        -52.3515                                         !
 ! D115  D(39,40,43,53)         61.4069                                         !
 ! D116  D(41,40,43,44)         62.6422                                         !
 ! D117  D(41,40,43,52)       -175.5701                                         !
 ! D118  D(41,40,43,53)        -61.8117                                         !
 ! D119  D(51,40,43,44)        -51.7193                                         !
 ! D120  D(51,40,43,52)         70.0683                                         !
 ! D121  D(51,40,43,53)       -176.1733                                         !
 ! D122  D(40,41,48,49)        170.789                                          !
 ! D123  D(42,41,48,49)        -19.1375                                         !
 ! D124  D(40,43,44,45)       -145.7056                                         !
 ! D125  D(40,43,44,54)         92.3492                                         !
 ! D126  D(40,43,44,55)        -22.212                                          !
 ! D127  D(52,43,44,45)         93.1345                                         !
 ! D128  D(52,43,44,54)        -28.8107                                         !
 ! D129  D(52,43,44,55)       -143.3719                                         !
 ! D130  D(53,43,44,45)        -23.3449                                         !
 ! D131  D(53,43,44,54)       -145.2901                                         !
 ! D132  D(53,43,44,55)        100.1487                                         !
 ! D133  D(43,44,45,46)         93.8644                                         !
 ! D134  D(43,44,45,56)       -148.2987                                         !
 ! D135  D(43,44,45,57)        -31.7069                                         !
 ! D136  D(54,44,45,46)       -144.4578                                         !
 ! D137  D(54,44,45,56)        -26.6209                                         !
 ! D138  D(54,44,45,57)         89.9709                                         !
 ! D139  D(55,44,45,46)        -30.404                                          !
 ! D140  D(55,44,45,56)         87.4329                                         !
 ! D141  D(55,44,45,57)       -155.9752                                         !
 ! D142  D(44,45,46,47)        -69.9934                                         !
 ! D143  D(44,45,46,58)         50.4644                                         !
 ! D144  D(44,45,46,59)        171.3511                                         !
 ! D145  D(56,45,46,47)        169.8289                                         !
 ! D146  D(56,45,46,58)        -69.7133                                         !
 ! D147  D(56,45,46,59)         51.1735                                         !
 ! D148  D(57,45,46,47)         56.2616                                         !
 ! D149  D(57,45,46,58)        176.7194                                         !
 ! D150  D(57,45,46,59)        -62.3938                                         !
 ! D151  D(45,46,47,60)         57.0743                                         !
 ! D152  D(45,46,47,61)        -64.7184                                         !
 ! D153  D(45,46,47,62)        177.3603                                         !
 ! D154  D(58,46,47,60)        -65.5797                                         !
 ! D155  D(58,46,47,61)        172.6276                                         !
 ! D156  D(58,46,47,62)         54.7064                                         !
 ! D157  D(59,46,47,60)        178.781                                          !
 ! D158  D(59,46,47,61)         56.9883                                         !
 ! D159  D(59,46,47,62)        -60.9329                                         !
 --------------------------------------------------------------------------------
 Symmetry turned off by external request.
 Stoichiometry    C20H31N4O7(1+)
 Framework group  C1[X(C20H31N4O7)]
 Deg. of freedom   180
 Full point group                 C1      NOp   1
                          Input orientation:                          
 ---------------------------------------------------------------------
 Center     Atomic      Atomic             Coordinates (Angstroms)
 Number     Number       Type             X           Y           Z
 ---------------------------------------------------------------------
      1          7           0       -4.871015  -90.100115  129.747193
      2          6           0       -3.734894  -90.160801  128.810243
      3          6           0       -2.341897  -89.677831  129.243087
      4          8           0       -1.411023  -89.813485  128.450040
      5          6           0       -3.674672  -91.525454  128.110317
      6          6           0       -5.005401  -91.920877  127.414141
      7          6           0       -5.596389  -90.721540  126.710230
      8          8           0       -6.308876  -89.869353  127.461894
      9          8           0       -5.391949  -90.450768  125.531222
     10          1           0       -6.124230  -90.058506  128.434514
     11          1           0       -3.957852  -89.397803  128.051918
     12          1           0       -3.409067  -92.308175  128.830388
     13          1           0       -2.867089  -91.477695  127.377633
     14          1           0       -5.725922  -92.300086  128.144890
     15          1           0       -4.818019  -92.701197  126.674177
     16          1           0       -4.806095  -90.802180  130.483015
     17          1           0       -4.958365  -89.184632  130.185006
     18          7           0       -2.239738  -88.937876  130.380855
     19          6           0       -1.239783  -87.849667  130.450136
     20          6           0       -1.833493  -86.748665  129.542369
     21          8           0       -2.572991  -85.867154  129.971795
     22          6           0       -1.017416  -87.365632  131.884697
     23          6           0        0.129546  -86.379745  131.960313
     24          6           0       -0.087649  -85.001323  131.855570
     25          6           0        1.449213  -86.837321  132.092944
     26          6           0        0.978042  -84.102718  131.888537
     27          6           0        2.521791  -85.953621  132.125232
     28          6           0        2.287930  -84.576335  132.024188
     29          8           0        3.376235  -83.756678  132.064563
     30          1           0       -3.074078  -88.783912  130.932210
     31          1           0       -0.309838  -88.241989  130.034904
     32          1           0       -1.943203  -86.905410  132.248578
     33          1           0       -0.811793  -88.245229  132.505420
     34          1           0       -1.099985  -84.627187  131.736276
     35          1           0        1.641278  -87.904686  132.183420
     36          1           0        0.791184  -83.033345  131.812570
     37          1           0        3.542315  -86.304729  132.237506
     38          1           0        3.089060  -82.831421  132.017295
     39          7           0       -1.627530  -86.935516  128.208353
     40          6           0       -2.350100  -86.169859  127.206488
     41          6           0       -3.740509  -85.752890  127.682382
     42          8           0       -4.221602  -84.657316  127.584996
     43          6           0       -2.503930  -87.009327  125.917712
     44          6           0       -3.135869  -86.216982  124.749136
     45          6           0       -4.043212  -87.050372  123.817413
     46          6           0       -5.531094  -87.020266  124.172957
     47          7           0       -5.852200  -87.761704  125.449379
     48          8           0       -4.522518  -86.850657  128.051699
     49          1           0       -5.312645  -86.458419  128.471881
     50          1           0       -1.120334  -87.763121  127.912944
     51          1           0       -1.833570  -85.229188  126.985935
     52          1           0       -1.514244  -87.374701  125.621092
     53          1           0       -3.084109  -87.908436  126.163626
     54          1           0       -2.329670  -85.775264  124.155835
     55          1           0       -3.709125  -85.362735  125.132808
     56          1           0       -3.984332  -86.648321  122.799857
     57          1           0       -3.696213  -88.089822  123.751042
     58          1           0       -5.882899  -85.992668  124.300750
     59          1           0       -6.130140  -87.499190  123.394388
     60          1           0       -5.330582  -87.417610  126.272000
     61          1           0       -5.658513  -88.801414  125.369719
     62          1           0       -6.846491  -87.688409  125.685536
 ---------------------------------------------------------------------
 Rotational constants (GHZ):           0.2419036           0.0792686           0.0669851
 Standard basis: 6-31G(d) (6D, 7F)
   527 basis functions,   992 primitive gaussians,   527 cartesian basis functions
   117 alpha electrons      117 beta electrons
       nuclear repulsion energy      3386.2929422950 Hartrees.
 NAtoms=   62 NActive=   62 NUniq=   62 SFac= 1.00D+00 NAtFMM=   60 NAOKFM=T Big=T
 Integral buffers will be    131072 words long.
 Raffenetti 2 integral format.
 Two-electron integral symmetry is turned off.
 Nuclear repulsion after empirical dispersion term =     3386.2082330662 Hartrees.
 One-electron integrals computed using PRISM.
 NBasis=   527 RedAO= T EigKep=  4.34D-04  NBF=   527
 NBsUse=   527 1.00D-06 EigRej= -1.00D+00 NBFU=   527
 Initial guess from the checkpoint file:  "conf-123.chk"
 B after Tr=     0.000000    0.000000    0.000000
         Rot=    1.000000    0.000000    0.000000    0.000000 Ang=   0.00 deg.
 Requested convergence on RMS density matrix=1.00D-08 within 128 cycles.
 Requested convergence on MAX density matrix=1.00D-06.
 Requested convergence on             energy=1.00D-06.
 No special actions if energy rises.
 SCF Done:  E(RB3LYP) =  -1526.30148887     A.U. after    1 cycles
            NFock=  1  Conv=0.96D-08     -V/T= 2.0093

 **********************************************************************

            Population analysis using the SCF Density.

 **********************************************************************

 Alpha  occ. eigenvalues --  -19.33014 -19.31740 -19.27957 -19.26470 -19.23840
 Alpha  occ. eigenvalues --  -19.23504 -19.22816 -14.57379 -14.48402 -14.48158
 Alpha  occ. eigenvalues --  -14.47123 -10.45663 -10.44610 -10.40835 -10.39543
 Alpha  occ. eigenvalues --  -10.38324 -10.36083 -10.36051 -10.33803 -10.32680
 Alpha  occ. eigenvalues --  -10.32413 -10.32340 -10.31940 -10.31460 -10.31254
 Alpha  occ. eigenvalues --  -10.27933 -10.25976 -10.25675 -10.25509 -10.25245
 Alpha  occ. eigenvalues --  -10.24759  -1.23329  -1.22863  -1.15852  -1.14893
 Alpha  occ. eigenvalues --   -1.14509  -1.14280  -1.12345  -1.11961  -1.05104
 Alpha  occ. eigenvalues --   -1.04062  -1.03278  -0.93975  -0.92200  -0.91991
 Alpha  occ. eigenvalues --   -0.90194  -0.87642  -0.84229  -0.83979  -0.81136
 Alpha  occ. eigenvalues --   -0.80464  -0.78051  -0.75986  -0.75395  -0.73300
 Alpha  occ. eigenvalues --   -0.73092  -0.72082  -0.71381  -0.70599  -0.69945
 Alpha  occ. eigenvalues --   -0.68843  -0.68448  -0.66114  -0.65488  -0.64852
 Alpha  occ. eigenvalues --   -0.64244  -0.63340  -0.62513  -0.61378  -0.60970
 Alpha  occ. eigenvalues --   -0.60550  -0.60085  -0.59502  -0.59121  -0.58487
 Alpha  occ. eigenvalues --   -0.58083  -0.56916  -0.56215  -0.55613  -0.55492
 Alpha  occ. eigenvalues --   -0.55184  -0.54454  -0.53577  -0.53308  -0.53134
 Alpha  occ. eigenvalues --   -0.52481  -0.51923  -0.51377  -0.51021  -0.50472
 Alpha  occ. eigenvalues --   -0.50191  -0.48938  -0.48592  -0.48320  -0.47744
 Alpha  occ. eigenvalues --   -0.47490  -0.47352  -0.46917  -0.46677  -0.46476
 Alpha  occ. eigenvalues --   -0.46198  -0.46105  -0.44943  -0.44746  -0.43858
 Alpha  occ. eigenvalues --   -0.42752  -0.42424  -0.41477  -0.40053  -0.39853
 Alpha  occ. eigenvalues --   -0.39261  -0.39085  -0.36819  -0.36396  -0.35305
 Alpha  occ. eigenvalues --   -0.31561  -0.28196
 Alpha virt. eigenvalues --   -0.13300  -0.12033  -0.11452  -0.09732  -0.07825
 Alpha virt. eigenvalues --   -0.07384  -0.06553  -0.05514  -0.04960  -0.03125
 Alpha virt. eigenvalues --   -0.02490  -0.01778  -0.01703  -0.00475   0.00643
 Alpha virt. eigenvalues --    0.01159   0.01352   0.01596   0.01951   0.02463
 Alpha virt. eigenvalues --    0.02594   0.02836   0.03124   0.03366   0.04303
 Alpha virt. eigenvalues --    0.04435   0.04962   0.05312   0.05763   0.06233
 Alpha virt. eigenvalues --    0.06895   0.07221   0.07279   0.07688   0.08057
 Alpha virt. eigenvalues --    0.08870   0.09120   0.09372   0.09850   0.10301
 Alpha virt. eigenvalues --    0.11359   0.11649   0.11940   0.12280   0.12472
 Alpha virt. eigenvalues --    0.13106   0.13910   0.14297   0.14829   0.15370
 Alpha virt. eigenvalues --    0.16038   0.16489   0.17477   0.18307   0.19355
 Alpha virt. eigenvalues --    0.20354   0.22366   0.23833   0.24614   0.25017
 Alpha virt. eigenvalues --    0.25931   0.26106   0.27654   0.28157   0.29795
 Alpha virt. eigenvalues --    0.30387   0.32518   0.34390   0.36789   0.37395
 Alpha virt. eigenvalues --    0.38193   0.39303   0.39665   0.40257   0.40358
 Alpha virt. eigenvalues --    0.41240   0.42495   0.43534   0.43820   0.44591
 Alpha virt. eigenvalues --    0.45068   0.45837   0.46248   0.46593   0.47210
 Alpha virt. eigenvalues --    0.47331   0.47674   0.48023   0.48728   0.49967
 Alpha virt. eigenvalues --    0.50192   0.50545   0.51455   0.52100   0.52487
 Alpha virt. eigenvalues --    0.53002   0.53388   0.53795   0.54049   0.54436
 Alpha virt. eigenvalues --    0.54810   0.55034   0.55296   0.55856   0.56440
 Alpha virt. eigenvalues --    0.56970   0.57344   0.58271   0.58494   0.58958
 Alpha virt. eigenvalues --    0.59318   0.59422   0.59915   0.60331   0.61792
 Alpha virt. eigenvalues --    0.62431   0.63305   0.64373   0.64604   0.65564
 Alpha virt. eigenvalues --    0.66708   0.67286   0.67940   0.68767   0.69157
 Alpha virt. eigenvalues --    0.69444   0.70393   0.71238   0.71613   0.72425
 Alpha virt. eigenvalues --    0.72555   0.72802   0.73133   0.73710   0.74223
 Alpha virt. eigenvalues --    0.74745   0.75129   0.75527   0.76174   0.76532
 Alpha virt. eigenvalues --    0.76897   0.77553   0.77904   0.78349   0.78681
 Alpha virt. eigenvalues --    0.78848   0.79246   0.80096   0.80567   0.80995
 Alpha virt. eigenvalues --    0.81622   0.81711   0.82164   0.83021   0.83346
 Alpha virt. eigenvalues --    0.83884   0.84118   0.84570   0.85235   0.85322
 Alpha virt. eigenvalues --    0.85499   0.86861   0.87732   0.88487   0.88701
 Alpha virt. eigenvalues --    0.89188   0.89767   0.90596   0.90829   0.91844
 Alpha virt. eigenvalues --    0.93066   0.93389   0.94057   0.94808   0.96687
 Alpha virt. eigenvalues --    0.97301   0.98498   0.99034   0.99647   1.00558
 Alpha virt. eigenvalues --    1.00918   1.01662   1.03151   1.03922   1.04401
 Alpha virt. eigenvalues --    1.06279   1.07295   1.08692   1.08996   1.09532
 Alpha virt. eigenvalues --    1.10916   1.11341   1.12987   1.13607   1.14298
 Alpha virt. eigenvalues --    1.14941   1.17145   1.17373   1.17996   1.18488
 Alpha virt. eigenvalues --    1.20835   1.22070   1.23694   1.24586   1.26495
 Alpha virt. eigenvalues --    1.26821   1.27463   1.28880   1.29531   1.29787
 Alpha virt. eigenvalues --    1.30668   1.31563   1.32052   1.32818   1.33729
 Alpha virt. eigenvalues --    1.35008   1.35732   1.36732   1.38119   1.39132
 Alpha virt. eigenvalues --    1.39703   1.40435   1.41344   1.42786   1.43702
 Alpha virt. eigenvalues --    1.44439   1.46037   1.46558   1.47828   1.49785
 Alpha virt. eigenvalues --    1.49914   1.50929   1.52248   1.53110   1.53952
 Alpha virt. eigenvalues --    1.54929   1.56398   1.56439   1.59879   1.60742
 Alpha virt. eigenvalues --    1.61778   1.63196   1.64169   1.64459   1.65261
 Alpha virt. eigenvalues --    1.65662   1.66624   1.67373   1.67711   1.68303
 Alpha virt. eigenvalues --    1.69360   1.69812   1.70154   1.70977   1.71028
 Alpha virt. eigenvalues --    1.71851   1.72602   1.73135   1.73591   1.74308
 Alpha virt. eigenvalues --    1.75138   1.75782   1.76555   1.77975   1.78364
 Alpha virt. eigenvalues --    1.79655   1.80051   1.80647   1.81222   1.81572
 Alpha virt. eigenvalues --    1.82200   1.83452   1.83664   1.84011   1.85118
 Alpha virt. eigenvalues --    1.85488   1.86234   1.86986   1.88379   1.88944
 Alpha virt. eigenvalues --    1.89396   1.90239   1.90943   1.91314   1.91603
 Alpha virt. eigenvalues --    1.93132   1.93670   1.94398   1.95156   1.95773
 Alpha virt. eigenvalues --    1.96730   1.97077   1.98248   1.99965   2.00543
 Alpha virt. eigenvalues --    2.00854   2.02286   2.03343   2.05372   2.06264
 Alpha virt. eigenvalues --    2.07330   2.07941   2.08114   2.08792   2.09633
 Alpha virt. eigenvalues --    2.10288   2.12310   2.15720   2.16322   2.17525
 Alpha virt. eigenvalues --    2.18915   2.20013   2.20297   2.21099   2.21546
 Alpha virt. eigenvalues --    2.22146   2.24130   2.24740   2.25210   2.26202
 Alpha virt. eigenvalues --    2.27048   2.28293   2.28937   2.29746   2.30305
 Alpha virt. eigenvalues --    2.31736   2.32615   2.33980   2.34499   2.34729
 Alpha virt. eigenvalues --    2.35016   2.36210   2.37700   2.37985   2.40993
 Alpha virt. eigenvalues --    2.41937   2.43988   2.45383   2.46695   2.47839
 Alpha virt. eigenvalues --    2.47973   2.49751   2.51180   2.52049   2.52983
 Alpha virt. eigenvalues --    2.53310   2.54008   2.55273   2.55488   2.56646
 Alpha virt. eigenvalues --    2.57225   2.58976   2.60283   2.60829   2.61453
 Alpha virt. eigenvalues --    2.63186   2.64498   2.67303   2.69866   2.71131
 Alpha virt. eigenvalues --    2.72304   2.73670   2.75511   2.77866   2.81224
 Alpha virt. eigenvalues --    2.82141   2.83407   2.85389   2.86134   2.89280
 Alpha virt. eigenvalues --    2.90463   2.92683   2.93439   2.93540   2.96922
 Alpha virt. eigenvalues --    3.03325   3.05780   3.08749   3.35232   3.72696
 Alpha virt. eigenvalues --    3.77023   3.83184   3.85273   3.87974   3.90199
 Alpha virt. eigenvalues --    3.95940   3.99657   4.01313   4.04270   4.05221
 Alpha virt. eigenvalues --    4.05518   4.08013   4.15484   4.16926   4.17581
 Alpha virt. eigenvalues --    4.19242   4.23296   4.24517   4.25983   4.29812
 Alpha virt. eigenvalues --    4.31318   4.35832   4.40371   4.43024   4.43749
 Alpha virt. eigenvalues --    4.46285   4.55766   4.59691   4.63395   4.69678
          Condensed to atoms (all electrons):
 Mulliken charges:
               1
     1  N   -0.789534
     2  C   -0.107108
     3  C    0.629141
     4  O   -0.529138
     5  C   -0.280554
     6  C   -0.358487
     7  C    0.608426
     8  O   -0.613867
     9  O   -0.495249
    10  H    0.459809
    11  H    0.190913
    12  H    0.179281
    13  H    0.211674
    14  H    0.183863
    15  H    0.211226
    16  H    0.347416
    17  H    0.333742
    18  N   -0.596584
    19  C   -0.064865
    20  C    0.636690
    21  O   -0.525787
    22  C   -0.370873
    23  C    0.141181
    24  C   -0.187388
    25  C   -0.189242
    26  C   -0.195302
    27  C   -0.156144
    28  C    0.354756
    29  O   -0.632936
    30  H    0.320856
    31  H    0.199302
    32  H    0.163055
    33  H    0.166098
    34  H    0.155253
    35  H    0.130703
    36  H    0.130911
    37  H    0.153768
    38  H    0.413636
    39  N   -0.638317
    40  C    0.036826
    41  C    0.583153
    42  O   -0.422934
    43  C   -0.344207
    44  C   -0.306979
    45  C   -0.293231
    46  C   -0.193707
    47  N   -0.798898
    48  O   -0.615246
    49  H    0.422334
    50  H    0.374122
    51  H    0.205035
    52  H    0.192254
    53  H    0.148261
    54  H    0.189002
    55  H    0.175063
    56  H    0.195696
    57  H    0.182314
    58  H    0.208628
    59  H    0.213100
    60  H    0.416923
    61  H    0.442002
    62  H    0.400163
 Sum of Mulliken charges =   1.00000
 Mulliken charges with hydrogens summed into heavy atoms:
               1
     1  N   -0.108376
     2  C    0.083805
     3  C    0.629141
     4  O   -0.529138
     5  C    0.110402
     6  C    0.036602
     7  C    0.608426
     8  O   -0.154059
     9  O   -0.495249
    18  N   -0.275728
    19  C    0.134437
    20  C    0.636690
    21  O   -0.525787
    22  C   -0.041720
    23  C    0.141181
    24  C   -0.032135
    25  C   -0.058540
    26  C   -0.064392
    27  C   -0.002376
    28  C    0.354756
    29  O   -0.219300
    39  N   -0.264195
    40  C    0.241861
    41  C    0.583153
    42  O   -0.422934
    43  C   -0.003692
    44  C    0.057086
    45  C    0.084779
    46  C    0.228022
    47  N    0.460189
    48  O   -0.192912
 Electronic spatial extent (au):  <R**2>=       20252624.9749
 Charge=              1.0000 electrons
 Dipole moment (field-independent basis, Debye):
    X=            -22.9040    Y=           -424.4032    Z=            611.0904  Tot=            744.3616
 Quadrupole moment (field-independent basis, Debye-Ang):
   XX=            -53.1990   YY=          37346.5497   ZZ=          77606.9800
   XY=           2037.0927   XZ=          -2905.8051   YZ=         -54010.4208
 Traceless Quadrupole moment (field-independent basis, Debye-Ang):
   XX=         -38353.3092   YY=           -953.5605   ZZ=          39306.8698
   XY=           2037.0927   XZ=          -2905.8051   YZ=         -54010.4208
 Octapole moment (field-independent basis, Debye-Ang**2):
  XXX=            557.0508  YYY=       -3273242.3528  ZZZ=        9837361.2521  XYY=        -180745.7996
  XXY=           4531.8195  XXZ=          -7092.1750  XZZ=        -368384.0489  YZZ=       -6861276.0613
  YYZ=        4753994.2922  XYZ=         258566.2910
 Hexadecapole moment (field-independent basis, Debye-Ang**3):
 XXXX=          -9484.0547 YYYY=      285736144.5260 ZZZZ=     1244492371.3339 XXXY=         -50199.4316
 XXXZ=          70393.2789 YYYX=       15999213.5526 YYYZ=     -416756647.6410 ZZZX=      -46668082.2701
 ZZZY=     -870009223.8367 XXYY=        -388528.5042 XXZZ=        -946603.4065 YYZZ=      604084775.0889
 XXYZ=         604147.0259 YYXZ=      -22952702.5315 ZZXY=       32795372.6492
 N-N= 3.386208233066D+03 E-N=-1.030549819147D+04  KE= 1.512249138955D+03
 Unable to Open any file for archive entry.
 1\1\GINC-LAC-313\SP\RB3LYP\6-31G(d)\C20H31N4O7(1+)\KENGMITH\24-May-202
 2\0\\# B3LYP/6-31G* empiricaldispersion=gd3 guess=read geom=check nosy
 mm integral(ultrafinegrid)\\Candidate Structure: Conf:123 Charge calc 
 in gas phase\\1,1\N,0,-4.8710153274,-90.1001147663,129.7471928592\C,0,
 -3.7348937241,-90.1608014099,128.810243381\C,0,-2.3418973002,-89.67783
 14192,129.2430868177\O,0,-1.4110233336,-89.8134845555,128.4500399631\C
 ,0,-3.6746719532,-91.5254540577,128.1103174488\C,0,-5.0054008508,-91.9
 208765636,127.4141406263\C,0,-5.596389201,-90.7215398485,126.710230236
 2\O,0,-6.3088764809,-89.8693528981,127.461894438\O,0,-5.3919490888,-90
 .4507675825,125.5312218586\H,0,-6.1242296198,-90.0585055224,128.434514
 4265\H,0,-3.957851938,-89.3978026898,128.0519179118\H,0,-3.4090669128,
 -92.308174934,128.8303880898\H,0,-2.8670888812,-91.4776947655,127.3776
 329226\H,0,-5.7259218375,-92.3000858292,128.144889869\H,0,-4.818019361
 4,-92.7011967107,126.6741765364\H,0,-4.8060951136,-90.8021796678,130.4
 830147727\H,0,-4.9583653412,-89.1846324474,130.1850056599\N,0,-2.23973
 80331,-88.9378757224,130.3808551218\C,0,-1.2397831221,-87.8496665684,1
 30.4501359396\C,0,-1.8334933397,-86.7486651616,129.542368733\O,0,-2.57
 29914346,-85.8671542342,129.9717952759\C,0,-1.017415681,-87.3656323592
 ,131.8846968219\C,0,0.1295462228,-86.3797446858,131.9603133766\C,0,-0.
 0876485848,-85.0013225212,131.8555700089\C,0,1.4492127256,-86.83732073
 1,132.0929441399\C,0,0.9780423118,-84.1027183669,131.8885366193\C,0,2.
 5217911962,-85.9536210458,132.1252316614\C,0,2.2879297139,-84.57633490
 53,132.0241879701\O,0,3.3762347684,-83.7566779506,132.0645627959\H,0,-
 3.0740781227,-88.7839124175,130.9322104583\H,0,-0.3098378691,-88.24198
 92205,130.0349037248\H,0,-1.9432030656,-86.9054095007,132.248578113\H,
 0,-0.8117929233,-88.2452291897,132.5054204576\H,0,-1.0999850814,-84.62
 71874742,131.7362762621\H,0,1.641278307,-87.9046863749,132.1834202564\
 H,0,0.7911836383,-83.0333450186,131.8125699905\H,0,3.5423149247,-86.30
 47294107,132.2375059102\H,0,3.0890599068,-82.8314208155,132.0172947166
 \N,0,-1.6275295771,-86.9355162537,128.2083532111\C,0,-2.3501003656,-86
 .1698593175,127.206487549\C,0,-3.7405094699,-85.7528900742,127.6823823
 424\O,0,-4.2216019737,-84.6573158878,127.5849957511\C,0,-2.50392978,-8
 7.0093268057,125.9177121094\C,0,-3.1358692096,-86.2169822409,124.74913
 6333\C,0,-4.0432124644,-87.0503721097,123.8174127674\C,0,-5.5310943664
 ,-87.0202661194,124.1729574258\N,0,-5.8521998786,-87.7617040779,125.44
 93788936\O,0,-4.5225180048,-86.8506569458,128.0516985012\H,0,-5.312645
 0316,-86.458419355,128.4718809981\H,0,-1.1203341173,-87.7631214408,127
 .9129442068\H,0,-1.83357021,-85.2291880947,126.9859350701\H,0,-1.51424
 40021,-87.3747012215,125.621092049\H,0,-3.0841092804,-87.9084362082,12
 6.1636257245\H,0,-2.329669533,-85.7752639846,124.1558352224\H,0,-3.709
 1251463,-85.3627352536,125.1328084999\H,0,-3.9843324159,-86.6483212614
 ,122.7998569638\H,0,-3.69621329,-88.0898222163,123.7510420765\H,0,-5.8
 828990929,-85.9926679662,124.3007498461\H,0,-6.1301396113,-87.49919043
 75,123.3943882849\H,0,-5.3305824363,-87.4176098546,126.2719996641\H,0,
 -5.6585131038,-88.8014137799,125.369719499\H,0,-6.8464910217,-87.68840
 86605,125.6855360994\\Version=ES64L-G16RevC.01\HF=-1526.3014889\RMSD=9
 .618e-09\Dipole=-4.2454191,-1.5003331,-2.6317741\Quadrupole=-28514.745
 4012,-708.9488777,29223.6942789,1514.5285134,-2160.394897,-40155.42408
 9\PG=C01 [X(C20H31N4O7)]\\@
 The archive entry for this job was punched.


 IT WAS AN ACT OF DESPARATION. FOR SIX YEARS I HAD STRUGGLED WITH THE
 BLACKBODY THEORY. I KNEW THE PROBLEM WAS FUNDAMENTAL, AND I KNEW
 THE ANSWER. I HAD TO FIND A THEORETICAL EXPLANATION AT ANY COST,
 EXCEPT FOR THE INVIOLABLITY OF THE TWO LAWS OF THERMODYNAMICS.
   -- MAX PLANCK, 1931
 Job cpu time:       0 days  0 hours  1 minutes 23.2 seconds.
 Elapsed time:       0 days  0 hours  0 minutes 21.3 seconds.
 File lengths (MBytes):  RWF=    264 Int=      0 D2E=      0 Chk=     40 Scr=     16
 Normal termination of Gaussian 16 at Tue May 24 19:09:51 2022.
