 Entering Gaussian System, Link 0=/opt/software/Gaussian/g16-AVX2-C.01/g16/g16
 Input=charge-conf-472.com
 Output=charge-conf-472.log
 Initial command:
 /opt/software/Gaussian/g16-AVX2-C.01/g16/l1.exe "/mnt/gs18/scratch/users/kengmith/Gau-31298.inp" -scrdir="/mnt/gs18/scratch/users/kengmith/"
 Entering Link 1 = /opt/software/Gaussian/g16-AVX2-C.01/g16/l1.exe PID=     31308.
  
 Copyright (c) 1988-2019, Gaussian, Inc.  All Rights Reserved.
  
 This is part of the Gaussian(R) 16 program.  It is based on
 the Gaussian(R) 09 system (copyright 2009, Gaussian, Inc.),
 the Gaussian(R) 03 system (copyright 2003, Gaussian, Inc.),
 the Gaussian(R) 98 system (copyright 1998, Gaussian, Inc.),
 the Gaussian(R) 94 system (copyright 1995, Gaussian, Inc.),
 the Gaussian 92(TM) system (copyright 1992, Gaussian, Inc.),
 the Gaussian 90(TM) system (copyright 1990, Gaussian, Inc.),
 the Gaussian 88(TM) system (copyright 1988, Gaussian, Inc.),
 the Gaussian 86(TM) system (copyright 1986, Carnegie Mellon
 University), and the Gaussian 82(TM) system (copyright 1983,
 Carnegie Mellon University). Gaussian is a federally registered
 trademark of Gaussian, Inc.
  
 This software contains proprietary and confidential information,
 including trade secrets, belonging to Gaussian, Inc.
  
 This software is provided under written license and may be
 used, copied, transmitted, or stored only in accord with that
 written license.
  
 The following legend is applicable only to US Government
 contracts under FAR:
  
                    RESTRICTED RIGHTS LEGEND
  
 Use, reproduction and disclosure by the US Government is
 subject to restrictions as set forth in subparagraphs (a)
 and (c) of the Commercial Computer Software - Restricted
 Rights clause in FAR 52.227-19.
  
 Gaussian, Inc.
 340 Quinnipiac St., Bldg. 40, Wallingford CT 06492
  
  
 ---------------------------------------------------------------
 Warning -- This program may not be used in any manner that
 competes with the business of Gaussian, Inc. or will provide
 assistance to any competitor of Gaussian, Inc.  The licensee
 of this program is prohibited from giving any competitor of
 Gaussian, Inc. access to this program.  By using this program,
 the user acknowledges that Gaussian, Inc. is engaged in the
 business of creating and licensing software in the field of
 computational chemistry and represents and warrants to the
 licensee that it is not a competitor of Gaussian, Inc. and that
 it will not use this program in any manner prohibited above.
 ---------------------------------------------------------------
  

 Cite this work as:
 Gaussian 16, Revision C.01,
 M. J. Frisch, G. W. Trucks, H. B. Schlegel, G. E. Scuseria, 
 M. A. Robb, J. R. Cheeseman, G. Scalmani, V. Barone, 
 G. A. Petersson, H. Nakatsuji, X. Li, M. Caricato, A. V. Marenich, 
 J. Bloino, B. G. Janesko, R. Gomperts, B. Mennucci, H. P. Hratchian, 
 J. V. Ortiz, A. F. Izmaylov, J. L. Sonnenberg, D. Williams-Young, 
 F. Ding, F. Lipparini, F. Egidi, J. Goings, B. Peng, A. Petrone, 
 T. Henderson, D. Ranasinghe, V. G. Zakrzewski, J. Gao, N. Rega, 
 G. Zheng, W. Liang, M. Hada, M. Ehara, K. Toyota, R. Fukuda, 
 J. Hasegawa, M. Ishida, T. Nakajima, Y. Honda, O. Kitao, H. Nakai, 
 T. Vreven, K. Throssell, J. A. Montgomery, Jr., J. E. Peralta, 
 F. Ogliaro, M. J. Bearpark, J. J. Heyd, E. N. Brothers, K. N. Kudin, 
 V. N. Staroverov, T. A. Keith, R. Kobayashi, J. Normand, 
 K. Raghavachari, A. P. Rendell, J. C. Burant, S. S. Iyengar, 
 J. Tomasi, M. Cossi, J. M. Millam, M. Klene, C. Adamo, R. Cammi, 
 J. W. Ochterski, R. L. Martin, K. Morokuma, O. Farkas, 
 J. B. Foresman, and D. J. Fox, Gaussian, Inc., Wallingford CT, 2019.
 
 ******************************************
 Gaussian 16:  ES64L-G16RevC.01  3-Jul-2019
                24-May-2022 
 ******************************************
 %mem=8gb
 %nproc=4
 Will use up to    4 processors via shared memory.
 %chk=conf-472.chk
 ----------------------------------------------------------------------
 # B3LYP/6-31G* empiricaldispersion=gd3 guess=read geom=check nosymm in
 tegral(ultrafinegrid)
 ----------------------------------------------------------------------
 1/29=2,38=1,172=1/1;
 2/12=2,15=1,40=1/2;
 3/5=1,6=6,7=1,11=2,14=-4,25=1,30=1,74=-5,75=-5,116=-2,124=31/1,2,3;
 4/5=1/1;
 5/5=2,38=6/2;
 6/7=2,8=2,9=2,10=2,28=1/1;
 99/5=1,9=1/99;
 ------------------------------------------------------
 Candidate Structure: Conf:472 Charge calc in gas phase
 ------------------------------------------------------
 Structure from the checkpoint file:  "conf-472.chk"
 Charge =  1 Multiplicity = 1
 Redundant internal coordinates found in file.  (old form).
 N,0,-5.510038568,-86.6072678273,129.961456235
 C,0,-5.3170628553,-87.202419862,128.584216301
 C,0,-4.5121030032,-88.5016340692,128.4991252544
 O,0,-4.1596859078,-88.845801266,127.3777485695
 C,0,-6.5915826254,-87.0713968224,127.7517985209
 C,0,-7.1121329326,-85.6022578321,127.6952676557
 C,0,-5.9508618062,-84.5971664821,127.6564969338
 O,0,-5.3843577481,-84.332801823,128.7864973957
 O,0,-5.5705817229,-84.1640069501,126.54855565
 H,0,-5.6432106358,-85.5391545157,129.7276957869
 H,0,-4.5821081391,-86.5286439433,128.1489777577
 H,0,-7.3804170975,-87.7364399891,128.1223577349
 H,0,-6.3225503709,-87.4179821224,126.7505205586
 H,0,-7.7301940235,-85.3847639982,128.5734581819
 H,0,-7.7350334556,-85.4772748816,126.8078943398
 H,0,-6.3008475303,-86.9970722592,130.4806372988
 H,0,-4.6506343073,-86.6688304769,130.5180138923
 N,0,-4.0253686632,-89.0628144401,129.6450555208
 C,0,-2.6153421664,-89.5270196083,129.6670813053
 C,0,-1.7978102672,-88.2100263706,129.7212587198
 O,0,-1.5261192434,-87.6525208538,130.7771185433
 C,0,-2.3289915031,-90.4327053859,130.8656866509
 C,0,-0.9305515893,-91.0085388341,130.7873707708
 C,0,-0.6848217243,-92.1755601527,130.0482492036
 C,0,0.1524106917,-90.3727490607,131.4048566576
 C,0,0.5971178869,-92.69969994,129.9294293339
 C,0,1.4434847387,-90.8881951828,131.2965369592
 C,0,1.6703953935,-92.0554289708,130.5582572766
 O,0,2.9035630438,-92.6156501739,130.4100661952
 H,0,-4.3527093555,-88.7296810978,130.5428887896
 H,0,-2.444279835,-90.0691783083,128.735798555
 H,0,-2.4502665008,-89.8473155562,131.7844607258
 H,0,-3.0788148688,-91.2319145413,130.8717318183
 H,0,-1.5133014188,-92.6912017886,129.5665030605
 H,0,-0.0143933328,-89.4596491306,131.9685517309
 H,0,0.7882083295,-93.6082078113,129.3678043064
 H,0,2.2735331284,-90.3864550953,131.7899571895
 H,0,3.5558578776,-92.1094280293,130.9191188473
 N,0,-1.5516729571,-87.646802654,128.5023090334
 C,0,-0.9331911593,-86.3439583854,128.3423600367
 C,0,-1.8335751095,-85.1495258104,128.6954962844
 O,0,-1.525515838,-84.0032429005,128.4099944537
 C,0,-0.3958040311,-86.1649636358,126.9003057148
 C,0,-1.4186399957,-86.3542203111,125.7564105217
 C,0,-2.6604402306,-85.4423269317,125.766527129
 C,0,-2.3592967363,-83.9581207461,125.4721194711
 N,0,-3.1697844781,-83.0492096109,126.3630629599
 O,0,-3.0031826365,-85.4509869668,129.2703706689
 H,0,-3.6224270049,-84.6734185058,129.2098967941
 H,0,-1.8846284426,-88.1287068754,127.677784507
 H,0,-0.0883112448,-86.2783203712,129.0388312118
 H,0,0.0615701278,-85.1731571785,126.8497842259
 H,0,0.4119180113,-86.890981001,126.7601082107
 H,0,-1.776183004,-87.3915391393,125.7367290259
 H,0,-0.8801313882,-86.2232951397,124.8093796072
 H,0,-3.382680207,-85.8109078899,125.0320491689
 H,0,-3.1766671689,-85.5302973585,126.7259282128
 H,0,-1.3107491915,-83.7111028325,125.6486485818
 H,0,-2.6044259827,-83.7034358965,124.4392071374
 H,0,-3.1723880267,-82.0838800035,126.0242886692
 H,0,-2.7443440418,-83.062576978,127.3048070917
 H,0,-4.1891715559,-83.3998419043,126.461001865
 Recover connectivity data from disk.
                           ----------------------------
                           !    Current Parameters    !
                           ! (Angstroms and Degrees)  !
 --------------------------                            --------------------------
 ! Name  Definition              Value                                          !
 --------------------------------------------------------------------------------
 ! R1    R(1,2)                  1.5127                                         !
 ! R2    R(1,10)                 1.1015                                         !
 ! R3    R(1,16)                 1.0232                                         !
 ! R4    R(1,17)                 1.0257                                         !
 ! R5    R(2,3)                  1.5307                                         !
 ! R6    R(2,5)                  1.5279                                         !
 ! R7    R(2,11)                 1.0879                                         !
 ! R8    R(3,4)                  1.2248                                         !
 ! R9    R(3,18)                 1.3656                                         !
 ! R10   R(5,6)                  1.5597                                         !
 ! R11   R(5,12)                 1.0963                                         !
 ! R12   R(5,13)                 1.0932                                         !
 ! R13   R(6,7)                  1.5363                                         !
 ! R14   R(6,14)                 1.0957                                         !
 ! R15   R(6,15)                 1.0914                                         !
 ! R16   R(7,8)                  1.2914                                         !
 ! R17   R(7,9)                  1.2489                                         !
 ! R18   R(18,19)                1.4846                                         !
 ! R19   R(18,30)                1.012                                          !
 ! R20   R(19,20)                1.5511                                         !
 ! R21   R(19,22)                1.5294                                         !
 ! R22   R(19,31)                1.0911                                         !
 ! R23   R(20,21)                1.2245                                         !
 ! R24   R(20,39)                1.3652                                         !
 ! R25   R(22,23)                1.5144                                         !
 ! R26   R(22,32)                1.0961                                         !
 ! R27   R(22,33)                1.0959                                         !
 ! R28   R(23,24)                1.4031                                         !
 ! R29   R(23,25)                1.3994                                         !
 ! R30   R(24,26)                1.39                                           !
 ! R31   R(24,34)                1.0883                                         !
 ! R32   R(25,27)                1.3944                                         !
 ! R33   R(25,35)                1.086                                          !
 ! R34   R(26,28)                1.4009                                         !
 ! R35   R(26,36)                1.085                                          !
 ! R36   R(27,28)                1.3996                                         !
 ! R37   R(27,37)                1.0882                                         !
 ! R38   R(28,29)                1.3625                                         !
 ! R39   R(29,38)                0.97                                           !
 ! R40   R(39,40)                1.451                                          !
 ! R41   R(39,50)                1.0114                                         !
 ! R42   R(40,41)                1.5369                                         !
 ! R43   R(40,43)                1.5493                                         !
 ! R44   R(40,51)                1.0969                                         !
 ! R45   R(41,42)                1.2208                                         !
 ! R46   R(41,48)                1.3377                                         !
 ! R47   R(43,44)                1.5461                                         !
 ! R48   R(43,52)                1.0934                                         !
 ! R49   R(43,53)                1.0951                                         !
 ! R50   R(44,45)                1.5407                                         !
 ! R51   R(44,54)                1.0974                                         !
 ! R52   R(44,55)                1.0973                                         !
 ! R53   R(45,46)                1.5428                                         !
 ! R54   R(45,56)                1.094                                          !
 ! R55   R(45,57)                1.093                                          !
 ! R56   R(46,47)                1.5089                                         !
 ! R57   R(46,58)                1.0916                                         !
 ! R58   R(46,59)                1.0917                                         !
 ! R59   R(47,60)                1.0231                                         !
 ! R60   R(47,61)                1.0335                                         !
 ! R61   R(47,62)                1.0824                                         !
 ! R62   R(48,49)                0.9959                                         !
 ! A1    A(2,1,10)             101.7549                                         !
 ! A2    A(2,1,16)             114.2486                                         !
 ! A3    A(2,1,17)             111.316                                          !
 ! A4    A(10,1,16)            112.5618                                         !
 ! A5    A(10,1,17)            105.9413                                         !
 ! A6    A(16,1,17)            110.4494                                         !
 ! A7    A(1,2,3)              116.8481                                         !
 ! A8    A(1,2,5)              110.8469                                         !
 ! A9    A(1,2,11)             101.9324                                         !
 ! A10   A(3,2,5)              118.7608                                         !
 ! A11   A(3,2,11)              98.5204                                         !
 ! A12   A(5,2,11)             107.0052                                         !
 ! A13   A(2,3,4)              116.1486                                         !
 ! A14   A(2,3,18)             119.3113                                         !
 ! A15   A(4,3,18)             123.3831                                         !
 ! A16   A(2,5,6)              112.2676                                         !
 ! A17   A(2,5,12)             111.349                                          !
 ! A18   A(2,5,13)             105.458                                          !
 ! A19   A(6,5,12)             110.0913                                         !
 ! A20   A(6,5,13)             110.3394                                         !
 ! A21   A(12,5,13)            107.1184                                         !
 ! A22   A(5,6,7)              111.4005                                         !
 ! A23   A(5,6,14)             110.255                                          !
 ! A24   A(5,6,15)             109.1378                                         !
 ! A25   A(7,6,14)             108.4663                                         !
 ! A26   A(7,6,15)             109.6324                                         !
 ! A27   A(14,6,15)            107.8788                                         !
 ! A28   A(6,7,8)              116.3229                                         !
 ! A29   A(6,7,9)              118.6495                                         !
 ! A30   A(8,7,9)              124.8676                                         !
 ! A31   A(3,18,19)            118.6486                                         !
 ! A32   A(3,18,30)            119.5954                                         !
 ! A33   A(19,18,30)           113.3877                                         !
 ! A34   A(18,19,20)           103.6283                                         !
 ! A35   A(18,19,22)           112.0008                                         !
 ! A36   A(18,19,31)           106.954                                          !
 ! A37   A(20,19,22)           112.1339                                         !
 ! A38   A(20,19,31)           111.6594                                         !
 ! A39   A(22,19,31)           110.2016                                         !
 ! A40   A(19,20,21)           122.2519                                         !
 ! A41   A(19,20,39)           114.4663                                         !
 ! A42   A(21,20,39)           122.8249                                         !
 ! A43   A(19,22,23)           110.9499                                         !
 ! A44   A(19,22,32)           108.6592                                         !
 ! A45   A(19,22,33)           107.9441                                         !
 ! A46   A(23,22,32)           110.4005                                         !
 ! A47   A(23,22,33)           110.7817                                         !
 ! A48   A(32,22,33)           108.0074                                         !
 ! A49   A(22,23,24)           120.3474                                         !
 ! A50   A(22,23,25)           121.2687                                         !
 ! A51   A(24,23,25)           118.3466                                         !
 ! A52   A(23,24,26)           121.3441                                         !
 ! A53   A(23,24,34)           119.6015                                         !
 ! A54   A(26,24,34)           119.0501                                         !
 ! A55   A(23,25,27)           120.9518                                         !
 ! A56   A(23,25,35)           119.4841                                         !
 ! A57   A(27,25,35)           119.5616                                         !
 ! A58   A(24,26,28)           119.6554                                         !
 ! A59   A(24,26,36)           121.4921                                         !
 ! A60   A(28,26,36)           118.8486                                         !
 ! A61   A(25,27,28)           119.9581                                         !
 ! A62   A(25,27,37)           120.0394                                         !
 ! A63   A(28,27,37)           120.0017                                         !
 ! A64   A(26,28,27)           119.743                                          !
 ! A65   A(26,28,29)           117.0964                                         !
 ! A66   A(27,28,29)           123.1605                                         !
 ! A67   A(28,29,38)           109.6923                                         !
 ! A68   A(20,39,40)           123.0733                                         !
 ! A69   A(20,39,50)           118.1634                                         !
 ! A70   A(40,39,50)           118.5721                                         !
 ! A71   A(39,40,41)           115.0092                                         !
 ! A72   A(39,40,43)           110.7429                                         !
 ! A73   A(39,40,51)           108.1822                                         !
 ! A74   A(41,40,43)           109.1039                                         !
 ! A75   A(41,40,51)           105.0014                                         !
 ! A76   A(43,40,51)           108.4763                                         !
 ! A77   A(40,41,42)           121.8811                                         !
 ! A78   A(40,41,48)           115.8389                                         !
 ! A79   A(42,41,48)           122.1914                                         !
 ! A80   A(40,43,44)           116.425                                          !
 ! A81   A(40,43,52)           107.0322                                         !
 ! A82   A(40,43,53)           107.3621                                         !
 ! A83   A(44,43,52)           110.7071                                         !
 ! A84   A(44,43,53)           108.1848                                         !
 ! A85   A(52,43,53)           106.675                                          !
 ! A86   A(43,44,45)           117.123                                          !
 ! A87   A(43,44,54)           110.1523                                         !
 ! A88   A(43,44,55)           107.4139                                         !
 ! A89   A(45,44,54)           107.2768                                         !
 ! A90   A(45,44,55)           109.3057                                         !
 ! A91   A(54,44,55)           104.9045                                         !
 ! A92   A(44,45,46)           114.2561                                         !
 ! A93   A(44,45,56)           109.1643                                         !
 ! A94   A(44,45,57)           109.8038                                         !
 ! A95   A(46,45,56)           108.9564                                         !
 ! A96   A(46,45,57)           109.7013                                         !
 ! A97   A(56,45,57)           104.4994                                         !
 ! A98   A(45,46,47)           111.2211                                         !
 ! A99   A(45,46,58)           111.9825                                         !
 ! A100  A(45,46,59)           111.1706                                         !
 ! A101  A(47,46,58)           106.5082                                         !
 ! A102  A(47,46,59)           107.3087                                         !
 ! A103  A(58,46,59)           108.4144                                         !
 ! A104  A(46,47,60)           111.9762                                         !
 ! A105  A(46,47,61)           108.0075                                         !
 ! A106  A(46,47,62)           111.3552                                         !
 ! A107  A(60,47,61)           108.361                                          !
 ! A108  A(60,47,62)           109.464                                          !
 ! A109  A(61,47,62)           107.5202                                         !
 ! A110  A(41,48,49)           109.9766                                         !
 ! D1    D(10,1,2,3)           153.6617                                         !
 ! D2    D(10,1,2,5)           -66.0004                                         !
 ! D3    D(10,1,2,11)           47.5984                                         !
 ! D4    D(16,1,2,3)           -84.7675                                         !
 ! D5    D(16,1,2,5)            55.5705                                         !
 ! D6    D(16,1,2,11)          169.1692                                         !
 ! D7    D(17,1,2,3)            41.1834                                         !
 ! D8    D(17,1,2,5)          -178.4787                                         !
 ! D9    D(17,1,2,11)          -64.8799                                         !
 ! D10   D(1,2,3,4)           -167.4664                                         !
 ! D11   D(1,2,3,18)             0.6597                                         !
 ! D12   D(5,2,3,4)             55.4095                                         !
 ! D13   D(5,2,3,18)          -136.4644                                         !
 ! D14   D(11,2,3,4)           -59.3977                                         !
 ! D15   D(11,2,3,18)          108.7284                                         !
 ! D16   D(1,2,5,6)             53.4499                                         !
 ! D17   D(1,2,5,12)           -70.5089                                         !
 ! D18   D(1,2,5,13)           173.6433                                         !
 ! D19   D(3,2,5,6)           -167.0611                                         !
 ! D20   D(3,2,5,12)            68.98                                           !
 ! D21   D(3,2,5,13)           -46.8678                                         !
 ! D22   D(11,2,5,6)           -56.9039                                         !
 ! D23   D(11,2,5,12)          179.1373                                         !
 ! D24   D(11,2,5,13)           63.2894                                         !
 ! D25   D(2,3,18,19)         -133.7626                                         !
 ! D26   D(2,3,18,30)           12.3862                                         !
 ! D27   D(4,3,18,19)           33.4582                                         !
 ! D28   D(4,3,18,30)          179.607                                          !
 ! D29   D(2,5,6,7)             35.7868                                         !
 ! D30   D(2,5,6,14)           -84.6938                                         !
 ! D31   D(2,5,6,15)           156.9833                                         !
 ! D32   D(12,5,6,7)           160.4428                                         !
 ! D33   D(12,5,6,14)           39.9622                                         !
 ! D34   D(12,5,6,15)          -78.3607                                         !
 ! D35   D(13,5,6,7)           -81.5326                                         !
 ! D36   D(13,5,6,14)          157.9868                                         !
 ! D37   D(13,5,6,15)           39.6639                                         !
 ! D38   D(5,6,7,8)            -79.8475                                         !
 ! D39   D(5,6,7,9)             95.78                                           !
 ! D40   D(14,6,7,8)            41.679                                          !
 ! D41   D(14,6,7,9)          -142.6935                                         !
 ! D42   D(15,6,7,8)           159.245                                          !
 ! D43   D(15,6,7,9)           -25.1275                                         !
 ! D44   D(3,18,19,20)          73.3257                                         !
 ! D45   D(3,18,19,22)        -165.6035                                         !
 ! D46   D(3,18,19,31)         -44.7701                                         !
 ! D47   D(30,18,19,20)        -74.8226                                         !
 ! D48   D(30,18,19,22)         46.2482                                         !
 ! D49   D(30,18,19,31)        167.0815                                         !
 ! D50   D(18,19,20,21)         86.891                                          !
 ! D51   D(18,19,20,39)        -85.5527                                         !
 ! D52   D(22,19,20,21)        -34.0901                                         !
 ! D53   D(22,19,20,39)        153.4662                                         !
 ! D54   D(31,19,20,21)       -158.3293                                         !
 ! D55   D(31,19,20,39)         29.227                                          !
 ! D56   D(18,19,22,23)        174.0433                                         !
 ! D57   D(18,19,22,32)        -64.4062                                         !
 ! D58   D(18,19,22,33)         52.4871                                         !
 ! D59   D(20,19,22,23)        -69.9364                                         !
 ! D60   D(20,19,22,32)         51.6141                                         !
 ! D61   D(20,19,22,33)        168.5074                                         !
 ! D62   D(31,19,22,23)         55.1099                                         !
 ! D63   D(31,19,22,32)        176.6604                                         !
 ! D64   D(31,19,22,33)        -66.4464                                         !
 ! D65   D(19,20,39,40)        173.0849                                         !
 ! D66   D(19,20,39,50)         -1.8129                                         !
 ! D67   D(21,20,39,40)          0.6899                                         !
 ! D68   D(21,20,39,50)       -174.2079                                         !
 ! D69   D(19,22,23,24)        -85.1493                                         !
 ! D70   D(19,22,23,25)         92.5904                                         !
 ! D71   D(32,22,23,24)        154.3267                                         !
 ! D72   D(32,22,23,25)        -27.9336                                         !
 ! D73   D(33,22,23,24)         34.7284                                         !
 ! D74   D(33,22,23,25)       -147.5319                                         !
 ! D75   D(22,23,24,26)        178.0553                                         !
 ! D76   D(22,23,24,34)         -2.7054                                         !
 ! D77   D(25,23,24,26)          0.2504                                         !
 ! D78   D(25,23,24,34)        179.4898                                         !
 ! D79   D(22,23,25,27)       -178.1527                                         !
 ! D80   D(22,23,25,35)          1.2648                                         !
 ! D81   D(24,23,25,27)         -0.369                                          !
 ! D82   D(24,23,25,35)        179.0485                                         !
 ! D83   D(23,24,26,28)          0.0328                                         !
 ! D84   D(23,24,26,36)        179.2982                                         !
 ! D85   D(34,24,26,28)       -179.2106                                         !
 ! D86   D(34,24,26,36)          0.0547                                         !
 ! D87   D(23,25,27,28)          0.205                                          !
 ! D88   D(23,25,27,37)       -179.4702                                         !
 ! D89   D(35,25,27,28)       -179.2121                                         !
 ! D90   D(35,25,27,37)          1.1127                                         !
 ! D91   D(24,26,28,27)         -0.2031                                         !
 ! D92   D(24,26,28,29)        179.8535                                         !
 ! D93   D(36,26,28,27)       -179.4879                                         !
 ! D94   D(36,26,28,29)          0.5687                                         !
 ! D95   D(25,27,28,26)          0.0861                                         !
 ! D96   D(25,27,28,29)       -179.9741                                         !
 ! D97   D(37,27,28,26)        179.7614                                         !
 ! D98   D(37,27,28,29)         -0.2989                                         !
 ! D99   D(26,28,29,38)       -177.4169                                         !
 ! D100  D(27,28,29,38)          2.6419                                         !
 ! D101  D(20,39,40,41)        -73.0921                                         !
 ! D102  D(20,39,40,43)        162.6547                                         !
 ! D103  D(20,39,40,51)         43.899                                          !
 ! D104  D(50,39,40,41)        101.786                                          !
 ! D105  D(50,39,40,43)        -22.4672                                         !
 ! D106  D(50,39,40,51)       -141.2229                                         !
 ! D107  D(39,40,41,42)       -168.142                                          !
 ! D108  D(39,40,41,48)          8.5062                                         !
 ! D109  D(43,40,41,42)        -43.0302                                         !
 ! D110  D(43,40,41,48)        133.618                                          !
 ! D111  D(51,40,41,42)         73.0756                                         !
 ! D112  D(51,40,41,48)       -110.2762                                         !
 ! D113  D(39,40,43,44)         56.03                                           !
 ! D114  D(39,40,43,52)       -179.5542                                         !
 ! D115  D(39,40,43,53)        -65.3361                                         !
 ! D116  D(41,40,43,44)        -71.5298                                         !
 ! D117  D(41,40,43,52)         52.8861                                         !
 ! D118  D(41,40,43,53)        167.1041                                         !
 ! D119  D(51,40,43,44)        174.6075                                         !
 ! D120  D(51,40,43,52)        -60.9766                                         !
 ! D121  D(51,40,43,53)         53.2415                                         !
 ! D122  D(40,41,48,49)       -162.8483                                         !
 ! D123  D(42,41,48,49)         13.7885                                         !
 ! D124  D(40,43,44,45)         58.1845                                         !
 ! D125  D(40,43,44,54)        -64.7326                                         !
 ! D126  D(40,43,44,55)       -178.4512                                         !
 ! D127  D(52,43,44,45)        -64.3308                                         !
 ! D128  D(52,43,44,54)        172.7522                                         !
 ! D129  D(52,43,44,55)         59.0335                                         !
 ! D130  D(53,43,44,45)        179.1141                                         !
 ! D131  D(53,43,44,54)         56.1971                                         !
 ! D132  D(53,43,44,55)        -57.5215                                         !
 ! D133  D(43,44,45,46)         68.8337                                         !
 ! D134  D(43,44,45,56)       -168.9031                                         !
 ! D135  D(43,44,45,57)        -54.8949                                         !
 ! D136  D(54,44,45,46)       -166.7855                                         !
 ! D137  D(54,44,45,56)        -44.5224                                         !
 ! D138  D(54,44,45,57)         69.4859                                         !
 ! D139  D(55,44,45,46)        -53.5592                                         !
 ! D140  D(55,44,45,56)         68.704                                          !
 ! D141  D(55,44,45,57)       -177.2878                                         !
 ! D142  D(44,45,46,47)       -139.3309                                         !
 ! D143  D(44,45,46,58)        -20.288                                          !
 ! D144  D(44,45,46,59)        101.1546                                         !
 ! D145  D(56,45,46,47)         98.2925                                         !
 ! D146  D(56,45,46,58)       -142.6646                                         !
 ! D147  D(56,45,46,59)        -21.222                                          !
 ! D148  D(57,45,46,47)        -15.5472                                         !
 ! D149  D(57,45,46,58)        103.4957                                         !
 ! D150  D(57,45,46,59)       -135.0617                                         !
 ! D151  D(45,46,47,60)       -164.9945                                         !
 ! D152  D(45,46,47,61)         75.7729                                         !
 ! D153  D(45,46,47,62)        -42.0657                                         !
 ! D154  D(58,46,47,60)         72.7365                                         !
 ! D155  D(58,46,47,61)        -46.4962                                         !
 ! D156  D(58,46,47,62)       -164.3348                                         !
 ! D157  D(59,46,47,60)        -43.205                                          !
 ! D158  D(59,46,47,61)       -162.4377                                         !
 ! D159  D(59,46,47,62)         79.7237                                         !
 --------------------------------------------------------------------------------
 Symmetry turned off by external request.
 Stoichiometry    C20H31N4O7(1+)
 Framework group  C1[X(C20H31N4O7)]
 Deg. of freedom   180
 Full point group                 C1      NOp   1
                          Input orientation:                          
 ---------------------------------------------------------------------
 Center     Atomic      Atomic             Coordinates (Angstroms)
 Number     Number       Type             X           Y           Z
 ---------------------------------------------------------------------
      1          7           0       -5.510039  -86.607268  129.961456
      2          6           0       -5.317063  -87.202420  128.584216
      3          6           0       -4.512103  -88.501634  128.499125
      4          8           0       -4.159686  -88.845801  127.377749
      5          6           0       -6.591583  -87.071397  127.751799
      6          6           0       -7.112133  -85.602258  127.695268
      7          6           0       -5.950862  -84.597166  127.656497
      8          8           0       -5.384358  -84.332802  128.786497
      9          8           0       -5.570582  -84.164007  126.548556
     10          1           0       -5.643211  -85.539155  129.727696
     11          1           0       -4.582108  -86.528644  128.148978
     12          1           0       -7.380417  -87.736440  128.122358
     13          1           0       -6.322550  -87.417982  126.750521
     14          1           0       -7.730194  -85.384764  128.573458
     15          1           0       -7.735033  -85.477275  126.807894
     16          1           0       -6.300848  -86.997072  130.480637
     17          1           0       -4.650634  -86.668830  130.518014
     18          7           0       -4.025369  -89.062814  129.645056
     19          6           0       -2.615342  -89.527020  129.667081
     20          6           0       -1.797810  -88.210026  129.721259
     21          8           0       -1.526119  -87.652521  130.777119
     22          6           0       -2.328992  -90.432705  130.865687
     23          6           0       -0.930552  -91.008539  130.787371
     24          6           0       -0.684822  -92.175560  130.048249
     25          6           0        0.152411  -90.372749  131.404857
     26          6           0        0.597118  -92.699700  129.929429
     27          6           0        1.443485  -90.888195  131.296537
     28          6           0        1.670395  -92.055429  130.558257
     29          8           0        2.903563  -92.615650  130.410066
     30          1           0       -4.352709  -88.729681  130.542889
     31          1           0       -2.444280  -90.069178  128.735799
     32          1           0       -2.450267  -89.847316  131.784461
     33          1           0       -3.078815  -91.231915  130.871732
     34          1           0       -1.513301  -92.691202  129.566503
     35          1           0       -0.014393  -89.459649  131.968552
     36          1           0        0.788208  -93.608208  129.367804
     37          1           0        2.273533  -90.386455  131.789957
     38          1           0        3.555858  -92.109428  130.919119
     39          7           0       -1.551673  -87.646803  128.502309
     40          6           0       -0.933191  -86.343958  128.342360
     41          6           0       -1.833575  -85.149526  128.695496
     42          8           0       -1.525516  -84.003243  128.409994
     43          6           0       -0.395804  -86.164964  126.900306
     44          6           0       -1.418640  -86.354220  125.756411
     45          6           0       -2.660440  -85.442327  125.766527
     46          6           0       -2.359297  -83.958121  125.472119
     47          7           0       -3.169784  -83.049210  126.363063
     48          8           0       -3.003183  -85.450987  129.270371
     49          1           0       -3.622427  -84.673419  129.209897
     50          1           0       -1.884628  -88.128707  127.677785
     51          1           0       -0.088311  -86.278320  129.038831
     52          1           0        0.061570  -85.173157  126.849784
     53          1           0        0.411918  -86.890981  126.760108
     54          1           0       -1.776183  -87.391539  125.736729
     55          1           0       -0.880131  -86.223295  124.809380
     56          1           0       -3.382680  -85.810908  125.032049
     57          1           0       -3.176667  -85.530297  126.725928
     58          1           0       -1.310749  -83.711103  125.648649
     59          1           0       -2.604426  -83.703436  124.439207
     60          1           0       -3.172388  -82.083880  126.024289
     61          1           0       -2.744344  -83.062577  127.304807
     62          1           0       -4.189172  -83.399842  126.461002
 ---------------------------------------------------------------------
 Rotational constants (GHZ):           0.2636103           0.0824655           0.0719316
 Standard basis: 6-31G(d) (6D, 7F)
   527 basis functions,   992 primitive gaussians,   527 cartesian basis functions
   117 alpha electrons      117 beta electrons
       nuclear repulsion energy      3459.2972458487 Hartrees.
 NAtoms=   62 NActive=   62 NUniq=   62 SFac= 1.00D+00 NAtFMM=   60 NAOKFM=T Big=T
 Integral buffers will be    131072 words long.
 Raffenetti 2 integral format.
 Two-electron integral symmetry is turned off.
 Nuclear repulsion after empirical dispersion term =     3459.2055268167 Hartrees.
 One-electron integrals computed using PRISM.
 NBasis=   527 RedAO= T EigKep=  4.34D-04  NBF=   527
 NBsUse=   527 1.00D-06 EigRej= -1.00D+00 NBFU=   527
 Initial guess from the checkpoint file:  "conf-472.chk"
 B after Tr=     0.000000    0.000000    0.000000
         Rot=    1.000000    0.000000    0.000000    0.000000 Ang=   0.00 deg.
 Requested convergence on RMS density matrix=1.00D-08 within 128 cycles.
 Requested convergence on MAX density matrix=1.00D-06.
 Requested convergence on             energy=1.00D-06.
 No special actions if energy rises.
 SCF Done:  E(RB3LYP) =  -1526.30629099     A.U. after    2 cycles
            NFock=  2  Conv=0.76D-08     -V/T= 2.0093

 **********************************************************************

            Population analysis using the SCF Density.

 **********************************************************************

 Alpha  occ. eigenvalues --  -19.32539 -19.27357 -19.25092 -19.24820 -19.24369
 Alpha  occ. eigenvalues --  -19.24056 -19.22833 -14.57555 -14.54585 -14.49485
 Alpha  occ. eigenvalues --  -14.47641 -10.45474 -10.42938 -10.41844 -10.39893
 Alpha  occ. eigenvalues --  -10.38754 -10.36754 -10.36187 -10.34624 -10.33124
 Alpha  occ. eigenvalues --  -10.31854 -10.31826 -10.31211 -10.31116 -10.31020
 Alpha  occ. eigenvalues --  -10.28571 -10.26581 -10.26255 -10.26112 -10.25819
 Alpha  occ. eigenvalues --  -10.25321  -1.23852  -1.17662  -1.17288  -1.14900
 Alpha  occ. eigenvalues --   -1.14650  -1.12681  -1.12502  -1.09921  -1.08169
 Alpha  occ. eigenvalues --   -1.05525  -1.04260  -0.93414  -0.92981  -0.92733
 Alpha  occ. eigenvalues --   -0.89386  -0.87856  -0.85187  -0.83479  -0.81715
 Alpha  occ. eigenvalues --   -0.80948  -0.78373  -0.76618  -0.75738  -0.74551
 Alpha  occ. eigenvalues --   -0.72686  -0.71676  -0.71136  -0.70171  -0.70029
 Alpha  occ. eigenvalues --   -0.69395  -0.69112  -0.67323  -0.66026  -0.65715
 Alpha  occ. eigenvalues --   -0.64967  -0.63890  -0.62437  -0.61826  -0.61451
 Alpha  occ. eigenvalues --   -0.61138  -0.60387  -0.60046  -0.59109  -0.57923
 Alpha  occ. eigenvalues --   -0.57309  -0.56847  -0.55807  -0.55551  -0.55394
 Alpha  occ. eigenvalues --   -0.54906  -0.54215  -0.54140  -0.53726  -0.53052
 Alpha  occ. eigenvalues --   -0.52346  -0.52281  -0.51509  -0.51167  -0.51060
 Alpha  occ. eigenvalues --   -0.50171  -0.49403  -0.49041  -0.48790  -0.48480
 Alpha  occ. eigenvalues --   -0.48068  -0.47437  -0.47077  -0.46893  -0.46249
 Alpha  occ. eigenvalues --   -0.45667  -0.45064  -0.44615  -0.44388  -0.43065
 Alpha  occ. eigenvalues --   -0.42011  -0.40556  -0.40222  -0.39901  -0.39771
 Alpha  occ. eigenvalues --   -0.39620  -0.38664  -0.37865  -0.36900  -0.35618
 Alpha  occ. eigenvalues --   -0.32145  -0.28770
 Alpha virt. eigenvalues --   -0.13433  -0.12993  -0.09970  -0.09470  -0.08506
 Alpha virt. eigenvalues --   -0.07115  -0.06227  -0.06122  -0.05076  -0.03718
 Alpha virt. eigenvalues --   -0.02602  -0.01529  -0.01212  -0.00435   0.00149
 Alpha virt. eigenvalues --    0.00691   0.00843   0.01121   0.02079   0.02283
 Alpha virt. eigenvalues --    0.02549   0.03033   0.03569   0.03824   0.04603
 Alpha virt. eigenvalues --    0.04801   0.05356   0.05767   0.06349   0.06500
 Alpha virt. eigenvalues --    0.07039   0.07524   0.07688   0.08115   0.08352
 Alpha virt. eigenvalues --    0.08657   0.09304   0.09462   0.09890   0.10524
 Alpha virt. eigenvalues --    0.11032   0.11611   0.12160   0.12528   0.13159
 Alpha virt. eigenvalues --    0.13773   0.13861   0.14702   0.14892   0.15953
 Alpha virt. eigenvalues --    0.16772   0.17108   0.17903   0.18768   0.19646
 Alpha virt. eigenvalues --    0.21128   0.21915   0.23445   0.24483   0.24752
 Alpha virt. eigenvalues --    0.26852   0.27529   0.28786   0.29349   0.29523
 Alpha virt. eigenvalues --    0.29784   0.30964   0.35696   0.36741   0.37308
 Alpha virt. eigenvalues --    0.38053   0.38621   0.39327   0.40071   0.40992
 Alpha virt. eigenvalues --    0.41227   0.41962   0.42933   0.43468   0.44422
 Alpha virt. eigenvalues --    0.44619   0.46002   0.46145   0.46698   0.47068
 Alpha virt. eigenvalues --    0.47340   0.47507   0.47966   0.49283   0.49567
 Alpha virt. eigenvalues --    0.49985   0.50507   0.50972   0.51423   0.52147
 Alpha virt. eigenvalues --    0.52207   0.52362   0.52760   0.53358   0.53647
 Alpha virt. eigenvalues --    0.54152   0.54796   0.55190   0.55550   0.56333
 Alpha virt. eigenvalues --    0.56686   0.56847   0.57136   0.57929   0.58288
 Alpha virt. eigenvalues --    0.58765   0.59613   0.60219   0.60890   0.62037
 Alpha virt. eigenvalues --    0.62817   0.63036   0.64222   0.65127   0.65556
 Alpha virt. eigenvalues --    0.66352   0.66772   0.67800   0.67888   0.68816
 Alpha virt. eigenvalues --    0.68925   0.69424   0.70334   0.70651   0.71404
 Alpha virt. eigenvalues --    0.72254   0.72855   0.73285   0.73611   0.73946
 Alpha virt. eigenvalues --    0.74756   0.75063   0.75332   0.75750   0.76469
 Alpha virt. eigenvalues --    0.76728   0.77093   0.77539   0.78098   0.78694
 Alpha virt. eigenvalues --    0.79124   0.80155   0.80441   0.80550   0.81307
 Alpha virt. eigenvalues --    0.81850   0.82557   0.83024   0.83237   0.84001
 Alpha virt. eigenvalues --    0.84282   0.84402   0.84987   0.85755   0.85895
 Alpha virt. eigenvalues --    0.87122   0.87774   0.88438   0.88645   0.89409
 Alpha virt. eigenvalues --    0.89795   0.90278   0.90832   0.92241   0.92543
 Alpha virt. eigenvalues --    0.93255   0.93867   0.94925   0.96813   0.97915
 Alpha virt. eigenvalues --    0.98481   0.99192   0.99317   1.00783   1.01590
 Alpha virt. eigenvalues --    1.02577   1.03234   1.04693   1.05387   1.06366
 Alpha virt. eigenvalues --    1.07289   1.07730   1.08440   1.08805   1.10992
 Alpha virt. eigenvalues --    1.11558   1.12319   1.13338   1.13942   1.15507
 Alpha virt. eigenvalues --    1.16335   1.16644   1.18013   1.19160   1.20122
 Alpha virt. eigenvalues --    1.21231   1.22835   1.23911   1.25420   1.26207
 Alpha virt. eigenvalues --    1.27294   1.27989   1.28362   1.29270   1.30156
 Alpha virt. eigenvalues --    1.31624   1.31818   1.32641   1.33710   1.34518
 Alpha virt. eigenvalues --    1.35979   1.36478   1.37189   1.38146   1.38913
 Alpha virt. eigenvalues --    1.39581   1.40644   1.41869   1.42198   1.42943
 Alpha virt. eigenvalues --    1.43946   1.46182   1.47359   1.49536   1.50835
 Alpha virt. eigenvalues --    1.51668   1.52374   1.53402   1.54765   1.55946
 Alpha virt. eigenvalues --    1.56631   1.57994   1.58733   1.60322   1.61531
 Alpha virt. eigenvalues --    1.62190   1.63615   1.64062   1.64485   1.65359
 Alpha virt. eigenvalues --    1.65709   1.66817   1.67035   1.67894   1.68716
 Alpha virt. eigenvalues --    1.68985   1.70067   1.70510   1.70843   1.71401
 Alpha virt. eigenvalues --    1.72090   1.72418   1.72900   1.74728   1.75752
 Alpha virt. eigenvalues --    1.76296   1.76569   1.77366   1.77941   1.78883
 Alpha virt. eigenvalues --    1.79824   1.80677   1.80705   1.81523   1.82126
 Alpha virt. eigenvalues --    1.83153   1.83817   1.84276   1.85468   1.86148
 Alpha virt. eigenvalues --    1.86714   1.86821   1.88007   1.88449   1.88976
 Alpha virt. eigenvalues --    1.89513   1.90390   1.90754   1.91129   1.91697
 Alpha virt. eigenvalues --    1.92063   1.93277   1.94435   1.94570   1.95422
 Alpha virt. eigenvalues --    1.96641   1.97482   1.98010   1.98743   1.99961
 Alpha virt. eigenvalues --    2.00348   2.02403   2.03355   2.04077   2.05501
 Alpha virt. eigenvalues --    2.06390   2.07325   2.07517   2.08345   2.09940
 Alpha virt. eigenvalues --    2.10799   2.12719   2.14995   2.15354   2.17220
 Alpha virt. eigenvalues --    2.18742   2.19027   2.20356   2.20570   2.22180
 Alpha virt. eigenvalues --    2.22496   2.24152   2.24429   2.25184   2.25496
 Alpha virt. eigenvalues --    2.26629   2.27607   2.28300   2.28983   2.29839
 Alpha virt. eigenvalues --    2.30134   2.32108   2.32656   2.33518   2.33682
 Alpha virt. eigenvalues --    2.34088   2.35683   2.36685   2.37965   2.40632
 Alpha virt. eigenvalues --    2.42017   2.42706   2.43854   2.44203   2.48009
 Alpha virt. eigenvalues --    2.49219   2.49863   2.51197   2.52026   2.53382
 Alpha virt. eigenvalues --    2.54872   2.55250   2.55727   2.56609   2.58795
 Alpha virt. eigenvalues --    2.58909   2.59427   2.59861   2.62045   2.63159
 Alpha virt. eigenvalues --    2.64410   2.65955   2.66806   2.67754   2.69432
 Alpha virt. eigenvalues --    2.71676   2.75179   2.78203   2.80222   2.82206
 Alpha virt. eigenvalues --    2.82566   2.83458   2.84652   2.85980   2.88798
 Alpha virt. eigenvalues --    2.89359   2.90444   2.92393   2.99029   2.99622
 Alpha virt. eigenvalues --    3.01128   3.05212   3.06565   3.34620   3.69233
 Alpha virt. eigenvalues --    3.75426   3.80593   3.87485   3.94186   3.95970
 Alpha virt. eigenvalues --    3.97246   4.01897   4.02665   4.04265   4.05010
 Alpha virt. eigenvalues --    4.09234   4.10398   4.15050   4.15858   4.18094
 Alpha virt. eigenvalues --    4.19876   4.22275   4.23355   4.26337   4.28833
 Alpha virt. eigenvalues --    4.32054   4.33465   4.39523   4.42529   4.42711
 Alpha virt. eigenvalues --    4.47034   4.53590   4.58023   4.62560   4.69042
          Condensed to atoms (all electrons):
 Mulliken charges:
               1
     1  N   -0.789209
     2  C   -0.140007
     3  C    0.628413
     4  O   -0.502467
     5  C   -0.284566
     6  C   -0.362970
     7  C    0.610241
     8  O   -0.631012
     9  O   -0.547227
    10  H    0.439436
    11  H    0.252148
    12  H    0.177144
    13  H    0.216712
    14  H    0.165998
    15  H    0.204686
    16  H    0.396445
    17  H    0.405166
    18  N   -0.600930
    19  C   -0.069449
    20  C    0.629831
    21  O   -0.524760
    22  C   -0.369352
    23  C    0.140037
    24  C   -0.190426
    25  C   -0.188111
    26  C   -0.156436
    27  C   -0.195956
    28  C    0.354975
    29  O   -0.631909
    30  H    0.320102
    31  H    0.197706
    32  H    0.163826
    33  H    0.169232
    34  H    0.132398
    35  H    0.155238
    36  H    0.155375
    37  H    0.131958
    38  H    0.414354
    39  N   -0.627019
    40  C   -0.041660
    41  C    0.636397
    42  O   -0.498646
    43  C   -0.310699
    44  C   -0.307635
    45  C   -0.305359
    46  C   -0.171094
    47  N   -0.796988
    48  O   -0.611409
    49  H    0.439851
    50  H    0.367550
    51  H    0.226872
    52  H    0.182517
    53  H    0.184921
    54  H    0.169847
    55  H    0.174729
    56  H    0.192734
    57  H    0.152257
    58  H    0.205618
    59  H    0.206903
    60  H    0.393825
    61  H    0.417796
    62  H    0.442056
 Sum of Mulliken charges =   1.00000
 Mulliken charges with hydrogens summed into heavy atoms:
               1
     1  N    0.451838
     2  C    0.112141
     3  C    0.628413
     4  O   -0.502467
     5  C    0.109290
     6  C    0.007714
     7  C    0.610241
     8  O   -0.631012
     9  O   -0.547227
    18  N   -0.280828
    19  C    0.128257
    20  C    0.629831
    21  O   -0.524760
    22  C   -0.036294
    23  C    0.140037
    24  C   -0.058027
    25  C   -0.032873
    26  C   -0.001060
    27  C   -0.063998
    28  C    0.354975
    29  O   -0.217556
    39  N   -0.259469
    40  C    0.185212
    41  C    0.636397
    42  O   -0.498646
    43  C    0.056738
    44  C    0.036942
    45  C    0.039633
    46  C    0.241427
    47  N    0.456688
    48  O   -0.171558
 Electronic spatial extent (au):  <R**2>=       20260849.4216
 Charge=              1.0000 electrons
 Dipole moment (field-independent basis, Debye):
    X=            -17.2435    Y=           -412.8275    Z=            615.7514  Tot=            741.5346
 Quadrupole moment (field-independent basis, Debye-Ang):
   XX=            -72.0463   YY=          35326.0208   ZZ=          78783.4954
   XY=           1484.7119   XZ=          -2223.2955   YZ=         -52949.6892
 Traceless Quadrupole moment (field-independent basis, Debye-Ang):
   XX=         -38084.5363   YY=          -2686.4692   ZZ=          40771.0054
   XY=           1484.7119   XZ=          -2223.2955   YZ=         -52949.6892
 Octapole moment (field-independent basis, Debye-Ang**2):
  XXX=            767.0466  YYY=       -3008463.5323  ZZZ=       10060124.1941  XYY=        -127451.3837
  XXY=           6363.8670  XXZ=          -9137.1899  XZZ=        -286270.0511  YZZ=       -6777897.5641
  YYZ=        4533160.1022  XYZ=         191483.0402
 Hexadecapole moment (field-independent basis, Debye-Ang**3):
 XXXX=          -9475.1366 YYYY=      254859093.2321 ZZZZ=     1281993390.3620 XXXY=         -65428.4989
 XXXZ=          97245.8524 YYYX=       10907476.7776 YYYZ=     -386237230.0265 ZZZX=      -36810524.8325
 ZZZY=     -865856731.3517 XXYY=        -565628.5436 XXZZ=       -1161021.6720 YYZZ=      580523086.9226
 XXYZ=         807604.5571 YYXZ=      -16441995.1645 ZZXY=       24661691.5076
 N-N= 3.459205526817D+03 E-N=-1.045127384931D+04  KE= 1.512242867071D+03
 Unable to Open any file for archive entry.
 1\1\GINC-LAC-313\SP\RB3LYP\6-31G(d)\C20H31N4O7(1+)\KENGMITH\24-May-202
 2\0\\# B3LYP/6-31G* empiricaldispersion=gd3 guess=read geom=check nosy
 mm integral(ultrafinegrid)\\Candidate Structure: Conf:472 Charge calc 
 in gas phase\\1,1\N,0,-5.510038568,-86.6072678273,129.961456235\C,0,-5
 .3170628553,-87.202419862,128.584216301\C,0,-4.5121030032,-88.50163406
 92,128.4991252544\O,0,-4.1596859078,-88.845801266,127.3777485695\C,0,-
 6.5915826254,-87.0713968224,127.7517985209\C,0,-7.1121329326,-85.60225
 78321,127.6952676557\C,0,-5.9508618062,-84.5971664821,127.6564969338\O
 ,0,-5.3843577481,-84.332801823,128.7864973957\O,0,-5.5705817229,-84.16
 40069501,126.54855565\H,0,-5.6432106358,-85.5391545157,129.7276957869\
 H,0,-4.5821081391,-86.5286439433,128.1489777577\H,0,-7.3804170975,-87.
 7364399891,128.1223577349\H,0,-6.3225503709,-87.4179821224,126.7505205
 586\H,0,-7.7301940235,-85.3847639982,128.5734581819\H,0,-7.7350334556,
 -85.4772748816,126.8078943398\H,0,-6.3008475303,-86.9970722592,130.480
 6372988\H,0,-4.6506343073,-86.6688304769,130.5180138923\N,0,-4.0253686
 632,-89.0628144401,129.6450555208\C,0,-2.6153421664,-89.5270196083,129
 .6670813053\C,0,-1.7978102672,-88.2100263706,129.7212587198\O,0,-1.526
 1192434,-87.6525208538,130.7771185433\C,0,-2.3289915031,-90.4327053859
 ,130.8656866509\C,0,-0.9305515893,-91.0085388341,130.7873707708\C,0,-0
 .6848217243,-92.1755601527,130.0482492036\C,0,0.1524106917,-90.3727490
 607,131.4048566576\C,0,0.5971178869,-92.69969994,129.9294293339\C,0,1.
 4434847387,-90.8881951828,131.2965369592\C,0,1.6703953935,-92.05542897
 08,130.5582572766\O,0,2.9035630438,-92.6156501739,130.4100661952\H,0,-
 4.3527093555,-88.7296810978,130.5428887896\H,0,-2.444279835,-90.069178
 3083,128.735798555\H,0,-2.4502665008,-89.8473155562,131.7844607258\H,0
 ,-3.0788148688,-91.2319145413,130.8717318183\H,0,-1.5133014188,-92.691
 2017886,129.5665030605\H,0,-0.0143933328,-89.4596491306,131.9685517309
 \H,0,0.7882083295,-93.6082078113,129.3678043064\H,0,2.2735331284,-90.3
 864550953,131.7899571895\H,0,3.5558578776,-92.1094280293,130.919118847
 3\N,0,-1.5516729571,-87.646802654,128.5023090334\C,0,-0.9331911593,-86
 .3439583854,128.3423600367\C,0,-1.8335751095,-85.1495258104,128.695496
 2844\O,0,-1.525515838,-84.0032429005,128.4099944537\C,0,-0.3958040311,
 -86.1649636358,126.9003057148\C,0,-1.4186399957,-86.3542203111,125.756
 4105217\C,0,-2.6604402306,-85.4423269317,125.766527129\C,0,-2.35929673
 63,-83.9581207461,125.4721194711\N,0,-3.1697844781,-83.0492096109,126.
 3630629599\O,0,-3.0031826365,-85.4509869668,129.2703706689\H,0,-3.6224
 270049,-84.6734185058,129.2098967941\H,0,-1.8846284426,-88.1287068754,
 127.677784507\H,0,-0.0883112448,-86.2783203712,129.0388312118\H,0,0.06
 15701278,-85.1731571785,126.8497842259\H,0,0.4119180113,-86.890981001,
 126.7601082107\H,0,-1.776183004,-87.3915391393,125.7367290259\H,0,-0.8
 801313882,-86.2232951397,124.8093796072\H,0,-3.382680207,-85.810907889
 9,125.0320491689\H,0,-3.1766671689,-85.5302973585,126.7259282128\H,0,-
 1.3107491915,-83.7111028325,125.6486485818\H,0,-2.6044259827,-83.70343
 58965,124.4392071374\H,0,-3.1723880267,-82.0838800035,126.0242886692\H
 ,0,-2.7443440418,-83.062576978,127.3048070917\H,0,-4.1891715559,-83.39
 98419043,126.461001865\\Version=ES64L-G16RevC.01\HF=-1526.306291\RMSD=
 7.632e-09\Dipole=-2.0128541,2.9569197,-0.9383195\Quadrupole=-28314.919
 2796,-1997.323974,30312.2432536,1103.846939,-1652.9657196,-39366.79613
 13\PG=C01 [X(C20H31N4O7)]\\@
 The archive entry for this job was punched.


 IF AT FIRST YOU DON'T SUCCEED, TRY, TRY AGAIN.
 THEN GIVE UP;
 THERE'S NO USE BEING A DAMN FOOL ABOUT IT.

                                 -- W. C. FIELDS
 Job cpu time:       0 days  0 hours  2 minutes 27.1 seconds.
 Elapsed time:       0 days  0 hours  0 minutes 37.2 seconds.
 File lengths (MBytes):  RWF=    264 Int=      0 D2E=      0 Chk=     40 Scr=     16
 Normal termination of Gaussian 16 at Tue May 24 19:13:31 2022.
