 Entering Gaussian System, Link 0=/opt/software/Gaussian/g16-AVX2-C.01/g16/g16
 Input=charge-conf-497.com
 Output=charge-conf-497.log
 Initial command:
 /opt/software/Gaussian/g16-AVX2-C.01/g16/l1.exe "/mnt/gs18/scratch/users/kengmith/Gau-115703.inp" -scrdir="/mnt/gs18/scratch/users/kengmith/"
 Entering Link 1 = /opt/software/Gaussian/g16-AVX2-C.01/g16/l1.exe PID=    115713.
  
 Copyright (c) 1988-2019, Gaussian, Inc.  All Rights Reserved.
  
 This is part of the Gaussian(R) 16 program.  It is based on
 the Gaussian(R) 09 system (copyright 2009, Gaussian, Inc.),
 the Gaussian(R) 03 system (copyright 2003, Gaussian, Inc.),
 the Gaussian(R) 98 system (copyright 1998, Gaussian, Inc.),
 the Gaussian(R) 94 system (copyright 1995, Gaussian, Inc.),
 the Gaussian 92(TM) system (copyright 1992, Gaussian, Inc.),
 the Gaussian 90(TM) system (copyright 1990, Gaussian, Inc.),
 the Gaussian 88(TM) system (copyright 1988, Gaussian, Inc.),
 the Gaussian 86(TM) system (copyright 1986, Carnegie Mellon
 University), and the Gaussian 82(TM) system (copyright 1983,
 Carnegie Mellon University). Gaussian is a federally registered
 trademark of Gaussian, Inc.
  
 This software contains proprietary and confidential information,
 including trade secrets, belonging to Gaussian, Inc.
  
 This software is provided under written license and may be
 used, copied, transmitted, or stored only in accord with that
 written license.
  
 The following legend is applicable only to US Government
 contracts under FAR:
  
                    RESTRICTED RIGHTS LEGEND
  
 Use, reproduction and disclosure by the US Government is
 subject to restrictions as set forth in subparagraphs (a)
 and (c) of the Commercial Computer Software - Restricted
 Rights clause in FAR 52.227-19.
  
 Gaussian, Inc.
 340 Quinnipiac St., Bldg. 40, Wallingford CT 06492
  
  
 ---------------------------------------------------------------
 Warning -- This program may not be used in any manner that
 competes with the business of Gaussian, Inc. or will provide
 assistance to any competitor of Gaussian, Inc.  The licensee
 of this program is prohibited from giving any competitor of
 Gaussian, Inc. access to this program.  By using this program,
 the user acknowledges that Gaussian, Inc. is engaged in the
 business of creating and licensing software in the field of
 computational chemistry and represents and warrants to the
 licensee that it is not a competitor of Gaussian, Inc. and that
 it will not use this program in any manner prohibited above.
 ---------------------------------------------------------------
  

 Cite this work as:
 Gaussian 16, Revision C.01,
 M. J. Frisch, G. W. Trucks, H. B. Schlegel, G. E. Scuseria, 
 M. A. Robb, J. R. Cheeseman, G. Scalmani, V. Barone, 
 G. A. Petersson, H. Nakatsuji, X. Li, M. Caricato, A. V. Marenich, 
 J. Bloino, B. G. Janesko, R. Gomperts, B. Mennucci, H. P. Hratchian, 
 J. V. Ortiz, A. F. Izmaylov, J. L. Sonnenberg, D. Williams-Young, 
 F. Ding, F. Lipparini, F. Egidi, J. Goings, B. Peng, A. Petrone, 
 T. Henderson, D. Ranasinghe, V. G. Zakrzewski, J. Gao, N. Rega, 
 G. Zheng, W. Liang, M. Hada, M. Ehara, K. Toyota, R. Fukuda, 
 J. Hasegawa, M. Ishida, T. Nakajima, Y. Honda, O. Kitao, H. Nakai, 
 T. Vreven, K. Throssell, J. A. Montgomery, Jr., J. E. Peralta, 
 F. Ogliaro, M. J. Bearpark, J. J. Heyd, E. N. Brothers, K. N. Kudin, 
 V. N. Staroverov, T. A. Keith, R. Kobayashi, J. Normand, 
 K. Raghavachari, A. P. Rendell, J. C. Burant, S. S. Iyengar, 
 J. Tomasi, M. Cossi, J. M. Millam, M. Klene, C. Adamo, R. Cammi, 
 J. W. Ochterski, R. L. Martin, K. Morokuma, O. Farkas, 
 J. B. Foresman, and D. J. Fox, Gaussian, Inc., Wallingford CT, 2019.
 
 ******************************************
 Gaussian 16:  ES64L-G16RevC.01  3-Jul-2019
                31-May-2022 
 ******************************************
 %mem=8gb
 %nproc=4
 Will use up to    4 processors via shared memory.
 %chk=conf-497.chk
 ----------------------------------------------------------------------
 # B3LYP/6-31G* empiricaldispersion=gd3 guess=read geom=check nosymm in
 tegral(ultrafinegrid)
 ----------------------------------------------------------------------
 1/29=2,38=1,172=1/1;
 2/12=2,15=1,40=1/2;
 3/5=1,6=6,7=1,11=2,14=-4,25=1,30=1,74=-5,75=-5,116=-2,124=31/1,2,3;
 4/5=1/1;
 5/5=2,38=6/2;
 6/7=2,8=2,9=2,10=2,28=1/1;
 99/5=1,9=1/99;
 ------------------------------------------------------
 Candidate Structure: Conf:497 Charge calc in gas phase
 ------------------------------------------------------
 Structure from the checkpoint file:  "conf-497.chk"
 Charge =  1 Multiplicity = 1
 Redundant internal coordinates found in file.  (old form).
 N,0,34.8200564101,-31.132223164,45.1258235092
 C,0,33.5936545133,-31.9399101845,44.8340527076
 C,0,32.7826039562,-31.0628217493,43.8560141295
 O,0,32.7623918639,-29.8445014963,44.0138281372
 C,0,34.004169676,-33.337600261,44.3250863098
 C,0,35.0054659252,-34.013803959,45.2363064396
 C,0,36.383301528,-33.8875495478,44.9895297137
 C,0,34.5942642885,-34.7288869356,46.3671651934
 C,0,37.3214141117,-34.4565004398,45.844139356
 C,0,35.5236897475,-35.307519257,47.2295220404
 C,0,36.8940328269,-35.1728794383,46.9702094956
 O,0,37.8581166549,-35.7083802355,47.7647252711
 H,0,34.5587894799,-30.1698071431,45.3608577692
 H,0,33.0167552324,-32.0332392539,45.7615302815
 H,0,33.0955009667,-33.9479165388,44.2478722385
 H,0,34.4306126314,-33.2268176545,43.3228718497
 H,0,36.7210921592,-33.3361973277,44.1142222385
 H,0,33.5332737272,-34.8484601911,46.5767434394
 H,0,38.3858127048,-34.3673528482,45.6538792163
 H,0,35.1863373227,-35.8683376264,48.0983990669
 H,0,37.4518127236,-36.1976728202,48.497407386
 H,0,35.3804389998,-31.5524683002,45.8693206023
 H,0,35.3935633955,-31.0767257051,44.1304399349
 N,0,32.1486075119,-31.6718740491,42.8225063486
 C,0,31.4930063779,-30.8763703821,41.7817992157
 C,0,32.4779899581,-29.8616014997,41.1692144076
 O,0,32.0511113029,-28.747721533,40.8048137429
 C,0,30.8264235986,-31.7956451395,40.7260736326
 C,0,31.8345182454,-32.66668561,39.9586982517
 C,0,29.9657118449,-30.9715752352,39.7584233865
 H,0,32.2004778528,-32.6740518672,42.7119125977
 H,0,30.7233297374,-30.2547696453,42.2489383577
 H,0,30.1573778677,-32.4571836627,41.2951987568
 H,0,32.456850143,-33.2872928372,40.6158815727
 H,0,31.3039989309,-33.3459348213,39.2845500243
 H,0,32.507824273,-32.0497660767,39.3537460915
 H,0,30.5804126172,-30.284332586,39.1679307422
 H,0,29.2202168808,-30.3744668611,40.2937539283
 H,0,29.4382063002,-31.6361079694,39.0671143943
 N,0,33.7560859031,-30.2524800461,41.0342987285
 C,0,34.9017611602,-29.3375531912,41.1685061454
 C,0,35.6620378422,-29.7501324671,42.459890024
 O,0,36.2245717382,-28.8821848632,43.1162446492
 C,0,35.8274952902,-29.3536607867,39.9436243975
 C,0,35.1939128636,-28.9006606481,38.6180557797
 C,0,34.8673920916,-27.4025676764,38.5152021356
 N,0,33.7190803324,-27.0516617436,39.3621955149
 C,0,33.5958349186,-25.9671341615,40.1208263419
 N,0,34.3047245923,-24.8489518811,39.8730055526
 N,0,32.7513634671,-25.9948836631,41.1645795616
 O,0,35.5749995971,-31.0173461697,42.7457088835
 H,0,33.996271474,-31.1517774282,41.4470633817
 H,0,34.5169509717,-28.3369030674,41.3570834149
 H,0,36.2045576472,-30.3760152518,39.8187958106
 H,0,36.6963792625,-28.7262052165,40.1792744479
 H,0,34.2855034032,-29.4848855637,38.4168519
 H,0,35.8882144457,-29.1288660064,37.8011824662
 H,0,34.6428202828,-27.1402957175,37.4745143538
 H,0,35.7369178642,-26.814630037,38.8331596549
 H,0,33.072831881,-27.8093631207,39.6233996218
 H,0,34.4131979004,-24.1375478945,40.5809032344
 H,0,34.8517903514,-24.7559660326,39.03092866
 H,0,32.3879894255,-25.1396387864,41.5589306306
 H,0,32.2841022453,-26.8747793764,41.3832593014
 Recover connectivity data from disk.
                           ----------------------------
                           !    Current Parameters    !
                           ! (Angstroms and Degrees)  !
 --------------------------                            --------------------------
 ! Name  Definition              Value                                          !
 --------------------------------------------------------------------------------
 ! R1    R(1,2)                  1.4972                                         !
 ! R2    R(1,13)                 1.0246                                         !
 ! R3    R(1,22)                 1.0215                                         !
 ! R4    R(1,23)                 1.1501                                         !
 ! R5    R(2,3)                  1.5439                                         !
 ! R6    R(2,5)                  1.5431                                         !
 ! R7    R(2,14)                 1.0962                                         !
 ! R8    R(3,4)                  1.2287                                         !
 ! R9    R(3,24)                 1.3568                                         !
 ! R10   R(5,6)                  1.5133                                         !
 ! R11   R(5,15)                 1.0973                                         !
 ! R12   R(5,16)                 1.0948                                         !
 ! R13   R(6,7)                  1.4054                                         !
 ! R14   R(6,8)                  1.3997                                         !
 ! R15   R(7,9)                  1.3907                                         !
 ! R16   R(7,17)                 1.0882                                         !
 ! R17   R(8,10)                 1.3937                                         !
 ! R18   R(8,18)                 1.0881                                         !
 ! R19   R(9,11)                 1.4014                                         !
 ! R20   R(9,19)                 1.0849                                         !
 ! R21   R(10,11)                1.4011                                         !
 ! R22   R(10,20)                1.0878                                         !
 ! R23   R(11,12)                1.3592                                         !
 ! R24   R(12,21)                0.9702                                         !
 ! R25   R(24,25)                1.4648                                         !
 ! R26   R(24,31)                1.0096                                         !
 ! R27   R(25,26)                1.5412                                         !
 ! R28   R(25,28)                1.5505                                         !
 ! R29   R(25,32)                1.0941                                         !
 ! R30   R(26,27)                1.2473                                         !
 ! R31   R(26,40)                1.3433                                         !
 ! R32   R(28,29)                1.5375                                         !
 ! R33   R(28,30)                1.535                                          !
 ! R34   R(28,33)                1.0996                                         !
 ! R35   R(29,34)                1.0974                                         !
 ! R36   R(29,35)                1.0942                                         !
 ! R37   R(29,36)                1.0954                                         !
 ! R38   R(30,37)                1.0949                                         !
 ! R39   R(30,38)                1.0949                                         !
 ! R40   R(30,39)                1.0944                                         !
 ! R41   R(40,41)                1.4723                                         !
 ! R42   R(40,52)                1.0182                                         !
 ! R43   R(41,42)                1.5543                                         !
 ! R44   R(41,44)                1.5354                                         !
 ! R45   R(41,53)                1.0885                                         !
 ! R46   R(42,43)                1.225                                          !
 ! R47   R(42,51)                1.302                                          !
 ! R48   R(44,45)                1.5375                                         !
 ! R49   R(44,54)                1.0968                                         !
 ! R50   R(44,55)                1.0974                                         !
 ! R51   R(45,46)                1.5367                                         !
 ! R52   R(45,56)                1.0986                                         !
 ! R53   R(45,57)                1.0961                                         !
 ! R54   R(46,47)                1.4694                                         !
 ! R55   R(46,58)                1.0965                                         !
 ! R56   R(46,59)                1.0967                                         !
 ! R57   R(47,48)                1.3293                                         !
 ! R58   R(47,60)                1.0296                                         !
 ! R59   R(48,49)                1.3469                                         !
 ! R60   R(48,50)                1.3429                                         !
 ! R61   R(49,61)                1.0094                                         !
 ! R62   R(49,62)                1.0085                                         !
 ! R63   R(50,63)                1.0095                                         !
 ! R64   R(50,64)                1.02                                           !
 ! A1    A(2,1,13)             110.0334                                         !
 ! A2    A(2,1,22)             111.6714                                         !
 ! A3    A(2,1,23)             105.4165                                         !
 ! A4    A(13,1,22)            111.0617                                         !
 ! A5    A(13,1,23)            106.282                                          !
 ! A6    A(22,1,23)            112.1003                                         !
 ! A7    A(1,2,3)              104.3175                                         !
 ! A8    A(1,2,5)              109.5725                                         !
 ! A9    A(1,2,14)             108.1873                                         !
 ! A10   A(3,2,5)              116.4475                                         !
 ! A11   A(3,2,14)             107.9311                                         !
 ! A12   A(5,2,14)             109.9956                                         !
 ! A13   A(2,3,4)              119.3793                                         !
 ! A14   A(2,3,24)             118.2279                                         !
 ! A15   A(4,3,24)             122.3603                                         !
 ! A16   A(2,5,6)              112.4668                                         !
 ! A17   A(2,5,15)             107.8599                                         !
 ! A18   A(2,5,16)             108.2954                                         !
 ! A19   A(6,5,15)             109.9832                                         !
 ! A20   A(6,5,16)             109.7978                                         !
 ! A21   A(15,5,16)            108.3257                                         !
 ! A22   A(5,6,7)              120.1846                                         !
 ! A23   A(5,6,8)              121.3566                                         !
 ! A24   A(7,6,8)              118.4082                                         !
 ! A25   A(6,7,9)              121.1077                                         !
 ! A26   A(6,7,17)             119.4096                                         !
 ! A27   A(9,7,17)             119.4827                                         !
 ! A28   A(6,8,10)             121.071                                          !
 ! A29   A(6,8,18)             119.8816                                         !
 ! A30   A(10,8,18)            119.0439                                         !
 ! A31   A(7,9,11)             119.8145                                         !
 ! A32   A(7,9,19)             121.3591                                         !
 ! A33   A(11,9,19)            118.8235                                         !
 ! A34   A(8,10,11)            119.8558                                         !
 ! A35   A(8,10,20)            120.0979                                         !
 ! A36   A(11,10,20)           120.045                                          !
 ! A37   A(9,11,10)            119.7423                                         !
 ! A38   A(9,11,12)            117.0511                                         !
 ! A39   A(10,11,12)           123.2066                                         !
 ! A40   A(11,12,21)           110.0648                                         !
 ! A41   A(3,24,25)            120.4321                                         !
 ! A42   A(3,24,31)            120.3318                                         !
 ! A43   A(25,24,31)           118.9633                                         !
 ! A44   A(24,25,26)           110.728                                          !
 ! A45   A(24,25,28)           110.7439                                         !
 ! A46   A(24,25,32)           108.6663                                         !
 ! A47   A(26,25,28)           113.2356                                         !
 ! A48   A(26,25,32)           104.1955                                         !
 ! A49   A(28,25,32)           108.9738                                         !
 ! A50   A(25,26,27)           119.0389                                         !
 ! A51   A(25,26,40)           117.1556                                         !
 ! A52   A(27,26,40)           123.7892                                         !
 ! A53   A(25,28,29)           113.1948                                         !
 ! A54   A(25,28,30)           110.6098                                         !
 ! A55   A(25,28,33)           105.418                                          !
 ! A56   A(29,28,30)           110.9262                                         !
 ! A57   A(29,28,33)           108.4471                                         !
 ! A58   A(30,28,33)           107.9434                                         !
 ! A59   A(28,29,34)           113.1613                                         !
 ! A60   A(28,29,35)           109.9556                                         !
 ! A61   A(28,29,36)           111.0756                                         !
 ! A62   A(34,29,35)           107.0282                                         !
 ! A63   A(34,29,36)           107.4963                                         !
 ! A64   A(35,29,36)           107.9009                                         !
 ! A65   A(28,30,37)           111.2315                                         !
 ! A66   A(28,30,38)           111.4894                                         !
 ! A67   A(28,30,39)           110.0281                                         !
 ! A68   A(37,30,38)           107.6756                                         !
 ! A69   A(37,30,39)           108.1229                                         !
 ! A70   A(38,30,39)           108.167                                          !
 ! A71   A(26,40,41)           123.3938                                         !
 ! A72   A(26,40,52)           116.1491                                         !
 ! A73   A(41,40,52)           109.1677                                         !
 ! A74   A(40,41,42)           106.9422                                         !
 ! A75   A(40,41,44)           112.9495                                         !
 ! A76   A(40,41,53)           108.1771                                         !
 ! A77   A(42,41,44)           111.4137                                         !
 ! A78   A(42,41,53)           105.8422                                         !
 ! A79   A(44,41,53)           111.1601                                         !
 ! A80   A(41,42,43)           118.7974                                         !
 ! A81   A(41,42,51)           114.0824                                         !
 ! A82   A(43,42,51)           127.0638                                         !
 ! A83   A(41,44,45)           115.8648                                         !
 ! A84   A(41,44,54)           107.9292                                         !
 ! A85   A(41,44,55)           107.4622                                         !
 ! A86   A(45,44,54)           108.5535                                         !
 ! A87   A(45,44,55)           110.0581                                         !
 ! A88   A(54,44,55)           106.5715                                         !
 ! A89   A(44,45,46)           115.6268                                         !
 ! A90   A(44,45,56)           109.9963                                         !
 ! A91   A(44,45,57)           108.6732                                         !
 ! A92   A(46,45,56)           109.2968                                         !
 ! A93   A(46,45,57)           106.719                                          !
 ! A94   A(56,45,57)           106.0546                                         !
 ! A95   A(45,46,47)           111.1171                                         !
 ! A96   A(45,46,58)           109.8909                                         !
 ! A97   A(45,46,59)           109.5568                                         !
 ! A98   A(47,46,58)           109.2635                                         !
 ! A99   A(47,46,59)           108.9322                                         !
 ! A100  A(58,46,59)           108.018                                          !
 ! A101  A(46,47,48)           126.6034                                         !
 ! A102  A(46,47,60)           117.4532                                         !
 ! A103  A(48,47,60)           113.4198                                         !
 ! A104  A(47,48,49)           121.5686                                         !
 ! A105  A(47,48,50)           119.015                                          !
 ! A106  A(49,48,50)           119.4141                                         !
 ! A107  A(48,49,61)           120.836                                          !
 ! A108  A(48,49,62)           121.0423                                         !
 ! A109  A(61,49,62)           117.535                                          !
 ! A110  A(48,50,63)           120.8305                                         !
 ! A111  A(48,50,64)           118.1996                                         !
 ! A112  A(63,50,64)           118.83                                           !
 ! D1    D(13,1,2,3)            48.1802                                         !
 ! D2    D(13,1,2,5)           173.5313                                         !
 ! D3    D(13,1,2,14)          -66.5472                                         !
 ! D4    D(22,1,2,3)           171.9946                                         !
 ! D5    D(22,1,2,5)           -62.6542                                         !
 ! D6    D(22,1,2,14)           57.2672                                         !
 ! D7    D(23,1,2,3)           -66.0315                                         !
 ! D8    D(23,1,2,5)            59.3196                                         !
 ! D9    D(23,1,2,14)          179.2411                                         !
 ! D10   D(1,2,3,4)            -37.7272                                         !
 ! D11   D(1,2,3,24)           140.2513                                         !
 ! D12   D(5,2,3,4)           -158.5983                                         !
 ! D13   D(5,2,3,24)            19.3801                                         !
 ! D14   D(14,2,3,4)            77.1809                                         !
 ! D15   D(14,2,3,24)         -104.8407                                         !
 ! D16   D(1,2,5,6)             51.1402                                         !
 ! D17   D(1,2,5,15)           172.5924                                         !
 ! D18   D(1,2,5,16)           -70.3775                                         !
 ! D19   D(3,2,5,6)            169.1746                                         !
 ! D20   D(3,2,5,15)           -69.3733                                         !
 ! D21   D(3,2,5,16)            47.6569                                         !
 ! D22   D(14,2,5,6)           -67.6689                                         !
 ! D23   D(14,2,5,15)           53.7833                                         !
 ! D24   D(14,2,5,16)          170.8134                                         !
 ! D25   D(2,3,24,25)         -173.0639                                         !
 ! D26   D(2,3,24,31)            0.8758                                         !
 ! D27   D(4,3,24,25)            4.8506                                         !
 ! D28   D(4,3,24,31)          178.7903                                         !
 ! D29   D(2,5,6,7)            -93.245                                          !
 ! D30   D(2,5,6,8)             84.1265                                         !
 ! D31   D(15,5,6,7)           146.5219                                         !
 ! D32   D(15,5,6,8)           -36.1066                                         !
 ! D33   D(16,5,6,7)            27.4124                                         !
 ! D34   D(16,5,6,8)          -155.2161                                         !
 ! D35   D(5,6,7,9)            177.4347                                         !
 ! D36   D(5,6,7,17)            -2.6375                                         !
 ! D37   D(8,6,7,9)             -0.0135                                         !
 ! D38   D(8,6,7,17)           179.9143                                         !
 ! D39   D(5,6,8,10)          -177.6022                                         !
 ! D40   D(5,6,8,18)             3.0854                                         !
 ! D41   D(7,6,8,10)            -0.1852                                         !
 ! D42   D(7,6,8,18)          -179.4977                                         !
 ! D43   D(6,7,9,11)             0.2016                                         !
 ! D44   D(6,7,9,19)           179.576                                          !
 ! D45   D(17,7,9,11)         -179.7261                                         !
 ! D46   D(17,7,9,19)           -0.3518                                         !
 ! D47   D(6,8,10,11)            0.1938                                         !
 ! D48   D(6,8,10,20)         -179.3869                                         !
 ! D49   D(18,8,10,11)         179.5119                                         !
 ! D50   D(18,8,10,20)          -0.0689                                         !
 ! D51   D(7,9,11,10)           -0.1929                                         !
 ! D52   D(7,9,11,12)          179.8123                                         !
 ! D53   D(19,9,11,10)        -179.5831                                         !
 ! D54   D(19,9,11,12)           0.4221                                         !
 ! D55   D(8,10,11,9)           -0.0022                                         !
 ! D56   D(8,10,11,12)         179.9923                                         !
 ! D57   D(20,10,11,9)         179.5788                                         !
 ! D58   D(20,10,11,12)         -0.4267                                         !
 ! D59   D(9,11,12,21)        -178.6148                                         !
 ! D60   D(10,11,12,21)          1.3905                                         !
 ! D61   D(3,24,25,26)          54.2894                                         !
 ! D62   D(3,24,25,28)        -179.2418                                         !
 ! D63   D(3,24,25,32)         -59.5769                                         !
 ! D64   D(31,24,25,26)       -119.7324                                         !
 ! D65   D(31,24,25,28)          6.7363                                         !
 ! D66   D(31,24,25,32)        126.4013                                         !
 ! D67   D(24,25,26,27)       -145.5045                                         !
 ! D68   D(24,25,26,40)         35.9073                                         !
 ! D69   D(28,25,26,27)         89.4235                                         !
 ! D70   D(28,25,26,40)        -89.1647                                         !
 ! D71   D(32,25,26,27)        -28.8436                                         !
 ! D72   D(32,25,26,40)        152.5682                                         !
 ! D73   D(24,25,28,29)        -63.3148                                         !
 ! D74   D(24,25,28,30)        171.4953                                         !
 ! D75   D(24,25,28,33)         55.0627                                         !
 ! D76   D(26,25,28,29)         61.7485                                         !
 ! D77   D(26,25,28,30)        -63.4413                                         !
 ! D78   D(26,25,28,33)       -179.8739                                         !
 ! D79   D(32,25,28,29)        177.2049                                         !
 ! D80   D(32,25,28,30)         52.0151                                         !
 ! D81   D(32,25,28,33)        -64.4176                                         !
 ! D82   D(25,26,40,41)       -146.4428                                         !
 ! D83   D(25,26,40,52)         -6.8243                                         !
 ! D84   D(27,26,40,41)         35.0424                                         !
 ! D85   D(27,26,40,52)        174.6608                                         !
 ! D86   D(25,28,29,34)         56.1134                                         !
 ! D87   D(25,28,29,35)        175.73                                           !
 ! D88   D(25,28,29,36)        -64.9046                                         !
 ! D89   D(30,28,29,34)       -178.8674                                         !
 ! D90   D(30,28,29,35)        -59.2509                                         !
 ! D91   D(30,28,29,36)         60.1145                                         !
 ! D92   D(33,28,29,34)        -60.4917                                         !
 ! D93   D(33,28,29,35)         59.1249                                         !
 ! D94   D(33,28,29,36)        178.4903                                         !
 ! D95   D(25,28,30,37)         64.6339                                         !
 ! D96   D(25,28,30,38)        -55.5665                                         !
 ! D97   D(25,28,30,39)       -175.5772                                         !
 ! D98   D(29,28,30,37)        -61.8296                                         !
 ! D99   D(29,28,30,38)        177.9701                                         !
 ! D100  D(29,28,30,39)         57.9594                                         !
 ! D101  D(33,28,30,37)        179.4901                                         !
 ! D102  D(33,28,30,38)         59.2897                                         !
 ! D103  D(33,28,30,39)        -60.721                                          !
 ! D104  D(26,40,41,42)        111.9694                                         !
 ! D105  D(26,40,41,44)       -125.1112                                         !
 ! D106  D(26,40,41,53)         -1.6328                                         !
 ! D107  D(52,40,41,42)        -30.0279                                         !
 ! D108  D(52,40,41,44)         92.8914                                         !
 ! D109  D(52,40,41,53)       -143.6301                                         !
 ! D110  D(40,41,42,43)       -147.386                                          !
 ! D111  D(40,41,42,51)         30.075                                          !
 ! D112  D(44,41,42,43)         88.7447                                         !
 ! D113  D(44,41,42,51)        -93.7943                                         !
 ! D114  D(53,41,42,43)        -32.2083                                         !
 ! D115  D(53,41,42,51)        145.2527                                         !
 ! D116  D(40,41,44,45)         62.214                                          !
 ! D117  D(40,41,44,54)        -59.6919                                         !
 ! D118  D(40,41,44,55)       -174.2763                                         !
 ! D119  D(42,41,44,45)       -177.3897                                         !
 ! D120  D(42,41,44,54)         60.7044                                         !
 ! D121  D(42,41,44,55)        -53.88                                           !
 ! D122  D(53,41,44,45)        -59.5999                                         !
 ! D123  D(53,41,44,54)        178.4942                                         !
 ! D124  D(53,41,44,55)         63.9098                                         !
 ! D125  D(41,44,45,46)         70.2901                                         !
 ! D126  D(41,44,45,56)        -54.0836                                         !
 ! D127  D(41,44,45,57)       -169.7819                                         !
 ! D128  D(54,44,45,46)       -168.1366                                         !
 ! D129  D(54,44,45,56)         67.4896                                         !
 ! D130  D(54,44,45,57)        -48.2086                                         !
 ! D131  D(55,44,45,46)        -51.8527                                         !
 ! D132  D(55,44,45,56)       -176.2264                                         !
 ! D133  D(55,44,45,57)         68.0754                                         !
 ! D134  D(44,45,46,47)        -71.9654                                         !
 ! D135  D(44,45,46,58)        166.9811                                         !
 ! D136  D(44,45,46,59)         48.4519                                         !
 ! D137  D(56,45,46,47)         52.771                                          !
 ! D138  D(56,45,46,58)        -68.2825                                         !
 ! D139  D(56,45,46,59)        173.1883                                         !
 ! D140  D(57,45,46,47)        167.0462                                         !
 ! D141  D(57,45,46,58)         45.9927                                         !
 ! D142  D(57,45,46,59)        -72.5365                                         !
 ! D143  D(45,46,47,48)        138.6385                                         !
 ! D144  D(45,46,47,60)        -22.0658                                         !
 ! D145  D(58,46,47,48)        -99.9402                                         !
 ! D146  D(58,46,47,60)         99.3555                                         !
 ! D147  D(59,46,47,48)         17.8525                                         !
 ! D148  D(59,46,47,60)       -142.8518                                         !
 ! D149  D(46,47,48,49)         22.6446                                         !
 ! D150  D(46,47,48,50)       -156.8103                                         !
 ! D151  D(60,47,48,49)       -175.9915                                         !
 ! D152  D(60,47,48,50)          4.5536                                         !
 ! D153  D(47,48,49,61)       -162.2946                                         !
 ! D154  D(47,48,49,62)          8.7059                                         !
 ! D155  D(50,48,49,61)         17.1581                                         !
 ! D156  D(50,48,49,62)       -171.8413                                         !
 ! D157  D(47,48,50,63)       -158.5705                                         !
 ! D158  D(47,48,50,64)          4.6096                                         !
 ! D159  D(49,48,50,63)         21.9627                                         !
 ! D160  D(49,48,50,64)       -174.8572                                         !
 --------------------------------------------------------------------------------
 Symmetry turned off by external request.
 Stoichiometry    C20H33N6O5(1+)
 Framework group  C1[X(C20H33N6O5)]
 Deg. of freedom   186
 Full point group                 C1      NOp   1
                          Input orientation:                          
 ---------------------------------------------------------------------
 Center     Atomic      Atomic             Coordinates (Angstroms)
 Number     Number       Type             X           Y           Z
 ---------------------------------------------------------------------
      1          7           0       34.820056  -31.132223   45.125824
      2          6           0       33.593655  -31.939910   44.834053
      3          6           0       32.782604  -31.062822   43.856014
      4          8           0       32.762392  -29.844501   44.013828
      5          6           0       34.004170  -33.337600   44.325086
      6          6           0       35.005466  -34.013804   45.236306
      7          6           0       36.383302  -33.887550   44.989530
      8          6           0       34.594264  -34.728887   46.367165
      9          6           0       37.321414  -34.456500   45.844139
     10          6           0       35.523690  -35.307519   47.229522
     11          6           0       36.894033  -35.172879   46.970209
     12          8           0       37.858117  -35.708380   47.764725
     13          1           0       34.558789  -30.169807   45.360858
     14          1           0       33.016755  -32.033239   45.761530
     15          1           0       33.095501  -33.947917   44.247872
     16          1           0       34.430613  -33.226818   43.322872
     17          1           0       36.721092  -33.336197   44.114222
     18          1           0       33.533274  -34.848460   46.576743
     19          1           0       38.385813  -34.367353   45.653879
     20          1           0       35.186337  -35.868338   48.098399
     21          1           0       37.451813  -36.197673   48.497407
     22          1           0       35.380439  -31.552468   45.869321
     23          1           0       35.393563  -31.076726   44.130440
     24          7           0       32.148608  -31.671874   42.822506
     25          6           0       31.493006  -30.876370   41.781799
     26          6           0       32.477990  -29.861601   41.169214
     27          8           0       32.051111  -28.747722   40.804814
     28          6           0       30.826424  -31.795645   40.726074
     29          6           0       31.834518  -32.666686   39.958698
     30          6           0       29.965712  -30.971575   39.758423
     31          1           0       32.200478  -32.674052   42.711913
     32          1           0       30.723330  -30.254770   42.248938
     33          1           0       30.157378  -32.457184   41.295199
     34          1           0       32.456850  -33.287293   40.615882
     35          1           0       31.303999  -33.345935   39.284550
     36          1           0       32.507824  -32.049766   39.353746
     37          1           0       30.580413  -30.284333   39.167931
     38          1           0       29.220217  -30.374467   40.293754
     39          1           0       29.438206  -31.636108   39.067114
     40          7           0       33.756086  -30.252480   41.034299
     41          6           0       34.901761  -29.337553   41.168506
     42          6           0       35.662038  -29.750132   42.459890
     43          8           0       36.224572  -28.882185   43.116245
     44          6           0       35.827495  -29.353661   39.943624
     45          6           0       35.193913  -28.900661   38.618056
     46          6           0       34.867392  -27.402568   38.515202
     47          7           0       33.719080  -27.051662   39.362196
     48          6           0       33.595835  -25.967134   40.120826
     49          7           0       34.304725  -24.848952   39.873006
     50          7           0       32.751363  -25.994884   41.164580
     51          8           0       35.575000  -31.017346   42.745709
     52          1           0       33.996271  -31.151777   41.447063
     53          1           0       34.516951  -28.336903   41.357083
     54          1           0       36.204558  -30.376015   39.818796
     55          1           0       36.696379  -28.726205   40.179274
     56          1           0       34.285503  -29.484886   38.416852
     57          1           0       35.888214  -29.128866   37.801182
     58          1           0       34.642820  -27.140296   37.474514
     59          1           0       35.736918  -26.814630   38.833160
     60          1           0       33.072832  -27.809363   39.623400
     61          1           0       34.413198  -24.137548   40.580903
     62          1           0       34.851790  -24.755966   39.030929
     63          1           0       32.387989  -25.139639   41.558931
     64          1           0       32.284102  -26.874779   41.383259
 ---------------------------------------------------------------------
 Rotational constants (GHZ):           0.2520724           0.0729400           0.0648717
 Standard basis: 6-31G(d) (6D, 7F)
   531 basis functions,  1000 primitive gaussians,   531 cartesian basis functions
   117 alpha electrons      117 beta electrons
       nuclear repulsion energy      3372.8058643793 Hartrees.
 NAtoms=   64 NActive=   64 NUniq=   64 SFac= 1.00D+00 NAtFMM=   60 NAOKFM=T Big=T
 Integral buffers will be    131072 words long.
 Raffenetti 2 integral format.
 Two-electron integral symmetry is turned off.
 Nuclear repulsion after empirical dispersion term =     3372.7187316054 Hartrees.
 One-electron integrals computed using PRISM.
 NBasis=   531 RedAO= T EigKep=  4.33D-04  NBF=   531
 NBsUse=   531 1.00D-06 EigRej= -1.00D+00 NBFU=   531
 Initial guess from the checkpoint file:  "conf-497.chk"
 B after Tr=     0.000000    0.000000    0.000000
         Rot=    1.000000    0.000000    0.000000    0.000000 Ang=   0.00 deg.
 Requested convergence on RMS density matrix=1.00D-08 within 128 cycles.
 Requested convergence on MAX density matrix=1.00D-06.
 Requested convergence on             energy=1.00D-06.
 No special actions if energy rises.
 SCF Done:  E(RB3LYP) =  -1486.59418632     A.U. after    1 cycles
            NFock=  1  Conv=0.77D-08     -V/T= 2.0094

 **********************************************************************

            Population analysis using the SCF Density.

 **********************************************************************

 Alpha  occ. eigenvalues --  -19.25570 -19.23681 -19.23284 -19.19771 -19.17773
 Alpha  occ. eigenvalues --  -14.50764 -14.50700 -14.49227 -14.49069 -14.48000
 Alpha  occ. eigenvalues --  -14.45857 -10.46239 -10.40675 -10.40128 -10.36271
 Alpha  occ. eigenvalues --  -10.36032 -10.34698 -10.34040 -10.33298 -10.31677
 Alpha  occ. eigenvalues --  -10.30431 -10.30280 -10.29699 -10.28449 -10.28297
 Alpha  occ. eigenvalues --  -10.28055 -10.27640 -10.27537 -10.27395 -10.26741
 Alpha  occ. eigenvalues --  -10.26547  -1.15883  -1.15034  -1.14302  -1.13791
 Alpha  occ. eigenvalues --   -1.12230  -1.06559  -1.04748  -1.04104  -1.03469
 Alpha  occ. eigenvalues --   -1.02933  -1.01874  -0.94211  -0.91349  -0.90195
 Alpha  occ. eigenvalues --   -0.88501  -0.85178  -0.83285  -0.83187  -0.80672
 Alpha  occ. eigenvalues --   -0.78606  -0.77970  -0.76183  -0.75674  -0.72452
 Alpha  occ. eigenvalues --   -0.71552  -0.70841  -0.70307  -0.68578  -0.68198
 Alpha  occ. eigenvalues --   -0.67826  -0.67516  -0.66698  -0.65889  -0.63941
 Alpha  occ. eigenvalues --   -0.63464  -0.63042  -0.62569  -0.62021  -0.59711
 Alpha  occ. eigenvalues --   -0.59428  -0.58050  -0.57728  -0.57265  -0.56971
 Alpha  occ. eigenvalues --   -0.56031  -0.55154  -0.54624  -0.54288  -0.53954
 Alpha  occ. eigenvalues --   -0.53565  -0.53027  -0.52273  -0.52126  -0.51269
 Alpha  occ. eigenvalues --   -0.50630  -0.50589  -0.49924  -0.49760  -0.49052
 Alpha  occ. eigenvalues --   -0.48609  -0.48425  -0.48268  -0.48121  -0.47135
 Alpha  occ. eigenvalues --   -0.46683  -0.45834  -0.45214  -0.44795  -0.44586
 Alpha  occ. eigenvalues --   -0.44057  -0.43933  -0.43458  -0.43072  -0.41975
 Alpha  occ. eigenvalues --   -0.41394  -0.41313  -0.39144  -0.38591  -0.37759
 Alpha  occ. eigenvalues --   -0.37241  -0.36190  -0.34883  -0.34440  -0.33788
 Alpha  occ. eigenvalues --   -0.31125  -0.30238
 Alpha virt. eigenvalues --   -0.10627  -0.10474  -0.09526  -0.08948  -0.07798
 Alpha virt. eigenvalues --   -0.06119  -0.03893  -0.03671  -0.02563  -0.01702
 Alpha virt. eigenvalues --   -0.01202  -0.00486  -0.00221   0.00461   0.00758
 Alpha virt. eigenvalues --    0.01283   0.01717   0.02298   0.02929   0.03232
 Alpha virt. eigenvalues --    0.03957   0.04418   0.05070   0.05312   0.05574
 Alpha virt. eigenvalues --    0.05880   0.06098   0.06716   0.06827   0.07355
 Alpha virt. eigenvalues --    0.07821   0.07832   0.08157   0.08724   0.09376
 Alpha virt. eigenvalues --    0.09494   0.09712   0.10009   0.10263   0.10488
 Alpha virt. eigenvalues --    0.11483   0.11753   0.12522   0.12715   0.13504
 Alpha virt. eigenvalues --    0.14139   0.14511   0.14620   0.15055   0.15707
 Alpha virt. eigenvalues --    0.16816   0.17111   0.17416   0.18387   0.19046
 Alpha virt. eigenvalues --    0.19413   0.20652   0.23575   0.24801   0.25214
 Alpha virt. eigenvalues --    0.25563   0.25907   0.26841   0.27294   0.27387
 Alpha virt. eigenvalues --    0.28578   0.30719   0.33477   0.34677   0.38293
 Alpha virt. eigenvalues --    0.38754   0.39384   0.40265   0.40429   0.41329
 Alpha virt. eigenvalues --    0.41477   0.42503   0.42802   0.43067   0.43471
 Alpha virt. eigenvalues --    0.43783   0.44070   0.44730   0.44776   0.45431
 Alpha virt. eigenvalues --    0.45663   0.46148   0.47135   0.48070   0.48640
 Alpha virt. eigenvalues --    0.49079   0.49502   0.50053   0.50418   0.50640
 Alpha virt. eigenvalues --    0.51324   0.51827   0.52660   0.53229   0.53502
 Alpha virt. eigenvalues --    0.53688   0.53919   0.54436   0.54992   0.55762
 Alpha virt. eigenvalues --    0.55921   0.56537   0.56716   0.56976   0.57955
 Alpha virt. eigenvalues --    0.58330   0.58867   0.59297   0.60421   0.61044
 Alpha virt. eigenvalues --    0.61686   0.62716   0.62926   0.64025   0.64467
 Alpha virt. eigenvalues --    0.65223   0.65407   0.66963   0.67383   0.67772
 Alpha virt. eigenvalues --    0.68290   0.69321   0.70173   0.71306   0.71854
 Alpha virt. eigenvalues --    0.72053   0.72759   0.73110   0.73368   0.73937
 Alpha virt. eigenvalues --    0.74274   0.74437   0.75112   0.75475   0.75736
 Alpha virt. eigenvalues --    0.75967   0.76094   0.76986   0.77206   0.77660
 Alpha virt. eigenvalues --    0.77979   0.78963   0.79170   0.80175   0.80753
 Alpha virt. eigenvalues --    0.81042   0.81815   0.81847   0.82192   0.82538
 Alpha virt. eigenvalues --    0.83435   0.84243   0.84474   0.84726   0.84917
 Alpha virt. eigenvalues --    0.85235   0.85853   0.86431   0.86796   0.87602
 Alpha virt. eigenvalues --    0.87753   0.88648   0.88909   0.89241   0.90211
 Alpha virt. eigenvalues --    0.90667   0.91706   0.92774   0.93547   0.93809
 Alpha virt. eigenvalues --    0.94718   0.95642   0.95876   0.97258   0.98262
 Alpha virt. eigenvalues --    0.99107   1.00457   1.01258   1.01980   1.02100
 Alpha virt. eigenvalues --    1.02427   1.03843   1.05687   1.06295   1.07287
 Alpha virt. eigenvalues --    1.07501   1.08889   1.10956   1.11335   1.11905
 Alpha virt. eigenvalues --    1.12772   1.13881   1.14636   1.15087   1.16383
 Alpha virt. eigenvalues --    1.16839   1.17544   1.18867   1.20334   1.21036
 Alpha virt. eigenvalues --    1.21986   1.22319   1.22822   1.24850   1.24971
 Alpha virt. eigenvalues --    1.26503   1.28661   1.28911   1.30508   1.31351
 Alpha virt. eigenvalues --    1.32009   1.34549   1.35133   1.35723   1.35957
 Alpha virt. eigenvalues --    1.37044   1.37944   1.38660   1.39017   1.40557
 Alpha virt. eigenvalues --    1.40952   1.42524   1.42691   1.43472   1.44721
 Alpha virt. eigenvalues --    1.45007   1.46880   1.47902   1.49085   1.50993
 Alpha virt. eigenvalues --    1.52550   1.53495   1.55889   1.57240   1.58488
 Alpha virt. eigenvalues --    1.58889   1.59843   1.60521   1.61088   1.63028
 Alpha virt. eigenvalues --    1.64482   1.64716   1.65104   1.65749   1.66684
 Alpha virt. eigenvalues --    1.67433   1.68490   1.68770   1.70498   1.70632
 Alpha virt. eigenvalues --    1.71323   1.71942   1.72789   1.73017   1.73461
 Alpha virt. eigenvalues --    1.74307   1.76156   1.76887   1.77290   1.78094
 Alpha virt. eigenvalues --    1.78193   1.78738   1.79269   1.79878   1.80668
 Alpha virt. eigenvalues --    1.81322   1.82408   1.83099   1.84245   1.84625
 Alpha virt. eigenvalues --    1.86240   1.86289   1.87070   1.87417   1.88149
 Alpha virt. eigenvalues --    1.88991   1.89605   1.89982   1.90112   1.90882
 Alpha virt. eigenvalues --    1.91454   1.92339   1.93059   1.94284   1.94781
 Alpha virt. eigenvalues --    1.95707   1.97051   1.97443   1.97934   1.98361
 Alpha virt. eigenvalues --    1.99086   2.00381   2.02529   2.03341   2.03769
 Alpha virt. eigenvalues --    2.04342   2.05194   2.05753   2.05856   2.07293
 Alpha virt. eigenvalues --    2.07663   2.08208   2.09007   2.11660   2.12174
 Alpha virt. eigenvalues --    2.13304   2.14813   2.16352   2.16959   2.17961
 Alpha virt. eigenvalues --    2.18691   2.19348   2.20331   2.22264   2.22744
 Alpha virt. eigenvalues --    2.22930   2.24722   2.25261   2.26683   2.27922
 Alpha virt. eigenvalues --    2.28581   2.28789   2.30122   2.30605   2.32517
 Alpha virt. eigenvalues --    2.32746   2.34116   2.34822   2.36244   2.37451
 Alpha virt. eigenvalues --    2.38030   2.39630   2.41310   2.41844   2.42939
 Alpha virt. eigenvalues --    2.43966   2.44955   2.46650   2.46909   2.48499
 Alpha virt. eigenvalues --    2.49727   2.50188   2.51899   2.52292   2.53237
 Alpha virt. eigenvalues --    2.53675   2.55623   2.56544   2.57355   2.57970
 Alpha virt. eigenvalues --    2.59885   2.60730   2.61323   2.62247   2.63873
 Alpha virt. eigenvalues --    2.66206   2.67494   2.69165   2.69801   2.70600
 Alpha virt. eigenvalues --    2.74245   2.76986   2.78027   2.80619   2.81763
 Alpha virt. eigenvalues --    2.85491   2.87345   2.88126   2.91221   2.92581
 Alpha virt. eigenvalues --    2.93155   2.94892   2.97785   3.03467   3.03915
 Alpha virt. eigenvalues --    3.08584   3.10846   3.33081   3.67427   3.75978
 Alpha virt. eigenvalues --    3.78089   3.86581   3.88814   3.91239   3.94511
 Alpha virt. eigenvalues --    3.99065   4.02469   4.04224   4.05091   4.05768
 Alpha virt. eigenvalues --    4.11764   4.13751   4.17462   4.18334   4.20286
 Alpha virt. eigenvalues --    4.21163   4.23663   4.25510   4.27343   4.29423
 Alpha virt. eigenvalues --    4.35574   4.37398   4.40049   4.42432   4.51156
 Alpha virt. eigenvalues --    4.57333   4.62889   4.63921   4.67162
          Condensed to atoms (all electrons):
 Mulliken charges:
               1
     1  N   -0.774031
     2  C   -0.087343
     3  C    0.652745
     4  O   -0.528626
     5  C   -0.398985
     6  C    0.124295
     7  C   -0.218270
     8  C   -0.188204
     9  C   -0.155508
    10  C   -0.189760
    11  C    0.358322
    12  O   -0.625912
    13  H    0.401308
    14  H    0.203954
    15  H    0.164215
    16  H    0.193817
    17  H    0.167185
    18  H    0.135783
    19  H    0.165297
    20  H    0.142167
    21  H    0.418438
    22  H    0.387489
    23  H    0.464275
    24  N   -0.656969
    25  C    0.001657
    26  C    0.626982
    27  O   -0.594123
    28  C   -0.129137
    29  C   -0.469445
    30  C   -0.447858
    31  H    0.354775
    32  H    0.195604
    33  H    0.155144
    34  H    0.135843
    35  H    0.177759
    36  H    0.162694
    37  H    0.157573
    38  H    0.161354
    39  H    0.165751
    40  N   -0.570098
    41  C   -0.073099
    42  C    0.608871
    43  O   -0.520836
    44  C   -0.268297
    45  C   -0.307247
    46  C   -0.149426
    47  N   -0.608472
    48  C    0.790198
    49  N   -0.760618
    50  N   -0.775944
    51  O   -0.674925
    52  H    0.359740
    53  H    0.158255
    54  H    0.167176
    55  H    0.169270
    56  H    0.164280
    57  H    0.175813
    58  H    0.185072
    59  H    0.167183
    60  H    0.403719
    61  H    0.379732
    62  H    0.382452
    63  H    0.367008
    64  H    0.419938
 Sum of Mulliken charges =   1.00000
 Mulliken charges with hydrogens summed into heavy atoms:
               1
     1  N    0.479040
     2  C    0.116611
     3  C    0.652745
     4  O   -0.528626
     5  C   -0.040953
     6  C    0.124295
     7  C   -0.051085
     8  C   -0.052421
     9  C    0.009789
    10  C   -0.047593
    11  C    0.358322
    12  O   -0.207475
    24  N   -0.302194
    25  C    0.197261
    26  C    0.626982
    27  O   -0.594123
    28  C    0.026007
    29  C    0.006852
    30  C    0.036821
    40  N   -0.210358
    41  C    0.085156
    42  C    0.608871
    43  O   -0.520836
    44  C    0.068149
    45  C    0.032846
    46  C    0.202828
    47  N   -0.204752
    48  C    0.790198
    49  N    0.001566
    50  N    0.011003
    51  O   -0.674925
 Electronic spatial extent (au):  <R**2>=        3293453.5691
 Charge=              1.0000 electrons
 Dipole moment (field-independent basis, Debye):
    X=            160.0252    Y=           -141.1033    Z=            201.4396  Tot=            293.4214
 Quadrupole moment (field-independent basis, Debye-Ang):
   XX=           5154.9147   YY=           4061.1581   ZZ=           8336.2202
   XY=          -4694.2877   XZ=           6709.3331   YZ=          -5977.1416
 Traceless Quadrupole moment (field-independent basis, Debye-Ang):
   XX=           -695.8496   YY=          -1789.6063   ZZ=           2485.4559
   XY=          -4694.2877   XZ=           6709.3331   YZ=          -5977.1416
 Octapole moment (field-independent basis, Debye-Ang**2):
  XXX=         159504.6929  YYY=        -113547.8688  ZZZ=         340119.2420  XYY=         134826.2490
  XXY=        -150733.7205  XXZ=         215925.7536  XZZ=         277554.3858  YZZ=        -249838.5956
  YYZ=         173855.4684  XYZ=        -198913.3443
 Hexadecapole moment (field-independent basis, Debye-Ang**3):
 XXXX=        4673678.0058 YYYY=        3037153.5829 ZZZZ=       13654074.3403 XXXY=       -4636577.0495
 XXXZ=        6667549.2843 YYYX=       -3757120.1914 YYYZ=       -4917919.8636 ZZZX=       11318035.5628
 ZZZY=      -10298386.5952 XXYY=        4306386.2811 XXZZ=        8917103.0769 YYZZ=        7339177.0243
 XXYZ=       -6386468.3807 YYXZ=        5777253.1489 ZZXY=       -8316303.8766
 N-N= 3.372718731605D+03 E-N=-1.018388111678D+04  KE= 1.472701694954D+03
 Unable to Open any file for archive entry.
 1\1\GINC-AMR-021\SP\RB3LYP\6-31G(d)\C20H33N6O5(1+)\KENGMITH\31-May-202
 2\0\\# B3LYP/6-31G* empiricaldispersion=gd3 guess=read geom=check nosy
 mm integral(ultrafinegrid)\\Candidate Structure: Conf:497 Charge calc 
 in gas phase\\1,1\N,0,34.8200564101,-31.132223164,45.1258235092\C,0,33
 .5936545133,-31.9399101845,44.8340527076\C,0,32.7826039562,-31.0628217
 493,43.8560141295\O,0,32.7623918639,-29.8445014963,44.0138281372\C,0,3
 4.004169676,-33.337600261,44.3250863098\C,0,35.0054659252,-34.01380395
 9,45.2363064396\C,0,36.383301528,-33.8875495478,44.9895297137\C,0,34.5
 942642885,-34.7288869356,46.3671651934\C,0,37.3214141117,-34.456500439
 8,45.844139356\C,0,35.5236897475,-35.307519257,47.2295220404\C,0,36.89
 40328269,-35.1728794383,46.9702094956\O,0,37.8581166549,-35.7083802355
 ,47.7647252711\H,0,34.5587894799,-30.1698071431,45.3608577692\H,0,33.0
 167552324,-32.0332392539,45.7615302815\H,0,33.0955009667,-33.947916538
 8,44.2478722385\H,0,34.4306126314,-33.2268176545,43.3228718497\H,0,36.
 7210921592,-33.3361973277,44.1142222385\H,0,33.5332737272,-34.84846019
 11,46.5767434394\H,0,38.3858127048,-34.3673528482,45.6538792163\H,0,35
 .1863373227,-35.8683376264,48.0983990669\H,0,37.4518127236,-36.1976728
 202,48.497407386\H,0,35.3804389998,-31.5524683002,45.8693206023\H,0,35
 .3935633955,-31.0767257051,44.1304399349\N,0,32.1486075119,-31.6718740
 491,42.8225063486\C,0,31.4930063779,-30.8763703821,41.7817992157\C,0,3
 2.4779899581,-29.8616014997,41.1692144076\O,0,32.0511113029,-28.747721
 533,40.8048137429\C,0,30.8264235986,-31.7956451395,40.7260736326\C,0,3
 1.8345182454,-32.66668561,39.9586982517\C,0,29.9657118449,-30.97157523
 52,39.7584233865\H,0,32.2004778528,-32.6740518672,42.7119125977\H,0,30
 .7233297374,-30.2547696453,42.2489383577\H,0,30.1573778677,-32.4571836
 627,41.2951987568\H,0,32.456850143,-33.2872928372,40.6158815727\H,0,31
 .3039989309,-33.3459348213,39.2845500243\H,0,32.507824273,-32.04976607
 67,39.3537460915\H,0,30.5804126172,-30.284332586,39.1679307422\H,0,29.
 2202168808,-30.3744668611,40.2937539283\H,0,29.4382063002,-31.63610796
 94,39.0671143943\N,0,33.7560859031,-30.2524800461,41.0342987285\C,0,34
 .9017611602,-29.3375531912,41.1685061454\C,0,35.6620378422,-29.7501324
 671,42.459890024\O,0,36.2245717382,-28.8821848632,43.1162446492\C,0,35
 .8274952902,-29.3536607867,39.9436243975\C,0,35.1939128636,-28.9006606
 481,38.6180557797\C,0,34.8673920916,-27.4025676764,38.5152021356\N,0,3
 3.7190803324,-27.0516617436,39.3621955149\C,0,33.5958349186,-25.967134
 1615,40.1208263419\N,0,34.3047245923,-24.8489518811,39.8730055526\N,0,
 32.7513634671,-25.9948836631,41.1645795616\O,0,35.5749995971,-31.01734
 61697,42.7457088835\H,0,33.996271474,-31.1517774282,41.4470633817\H,0,
 34.5169509717,-28.3369030674,41.3570834149\H,0,36.2045576472,-30.37601
 52518,39.8187958106\H,0,36.6963792625,-28.7262052165,40.1792744479\H,0
 ,34.2855034032,-29.4848855637,38.4168519\H,0,35.8882144457,-29.1288660
 064,37.8011824662\H,0,34.6428202828,-27.1402957175,37.4745143538\H,0,3
 5.7369178642,-26.814630037,38.8331596549\H,0,33.072831881,-27.80936312
 07,39.6233996218\H,0,34.4131979004,-24.1375478945,40.5809032344\H,0,34
 .8517903514,-24.7559660326,39.03092866\H,0,32.3879894255,-25.139638786
 4,41.5589306306\H,0,32.2841022453,-26.8747793764,41.3832593014\\Versio
 n=ES64L-G16RevC.01\HF=-1486.5941863\RMSD=7.685e-09\Dipole=-1.5129045,2
 .6078406,-1.1586425\Quadrupole=-517.3471407,-1330.5284026,1847.8755433
 ,-3490.0878387,4988.2246964,-4443.8582501\PG=C01 [X(C20H33N6O5)]\\@
 The archive entry for this job was punched.


 SIGN SEEN IN A RESTAURANT-
 WE RESERVE THE RIGHT TO SERVE REFUSE TO ANYONE.
 Job cpu time:       0 days  0 hours  1 minutes  5.6 seconds.
 Elapsed time:       0 days  0 hours  0 minutes 16.8 seconds.
 File lengths (MBytes):  RWF=    264 Int=      0 D2E=      0 Chk=     40 Scr=     16
 Normal termination of Gaussian 16 at Tue May 31 11:31:49 2022.
