 Entering Gaussian System, Link 0=/opt/software/Gaussian/g16-AVX2-C.01/g16/g16
 Input=charge-conf-621.com
 Output=charge-conf-621.log
 Initial command:
 /opt/software/Gaussian/g16-AVX2-C.01/g16/l1.exe "/mnt/gs18/scratch/users/kengmith/Gau-10359.inp" -scrdir="/mnt/gs18/scratch/users/kengmith/"
 Entering Link 1 = /opt/software/Gaussian/g16-AVX2-C.01/g16/l1.exe PID=     10369.
  
 Copyright (c) 1988-2019, Gaussian, Inc.  All Rights Reserved.
  
 This is part of the Gaussian(R) 16 program.  It is based on
 the Gaussian(R) 09 system (copyright 2009, Gaussian, Inc.),
 the Gaussian(R) 03 system (copyright 2003, Gaussian, Inc.),
 the Gaussian(R) 98 system (copyright 1998, Gaussian, Inc.),
 the Gaussian(R) 94 system (copyright 1995, Gaussian, Inc.),
 the Gaussian 92(TM) system (copyright 1992, Gaussian, Inc.),
 the Gaussian 90(TM) system (copyright 1990, Gaussian, Inc.),
 the Gaussian 88(TM) system (copyright 1988, Gaussian, Inc.),
 the Gaussian 86(TM) system (copyright 1986, Carnegie Mellon
 University), and the Gaussian 82(TM) system (copyright 1983,
 Carnegie Mellon University). Gaussian is a federally registered
 trademark of Gaussian, Inc.
  
 This software contains proprietary and confidential information,
 including trade secrets, belonging to Gaussian, Inc.
  
 This software is provided under written license and may be
 used, copied, transmitted, or stored only in accord with that
 written license.
  
 The following legend is applicable only to US Government
 contracts under FAR:
  
                    RESTRICTED RIGHTS LEGEND
  
 Use, reproduction and disclosure by the US Government is
 subject to restrictions as set forth in subparagraphs (a)
 and (c) of the Commercial Computer Software - Restricted
 Rights clause in FAR 52.227-19.
  
 Gaussian, Inc.
 340 Quinnipiac St., Bldg. 40, Wallingford CT 06492
  
  
 ---------------------------------------------------------------
 Warning -- This program may not be used in any manner that
 competes with the business of Gaussian, Inc. or will provide
 assistance to any competitor of Gaussian, Inc.  The licensee
 of this program is prohibited from giving any competitor of
 Gaussian, Inc. access to this program.  By using this program,
 the user acknowledges that Gaussian, Inc. is engaged in the
 business of creating and licensing software in the field of
 computational chemistry and represents and warrants to the
 licensee that it is not a competitor of Gaussian, Inc. and that
 it will not use this program in any manner prohibited above.
 ---------------------------------------------------------------
  

 Cite this work as:
 Gaussian 16, Revision C.01,
 M. J. Frisch, G. W. Trucks, H. B. Schlegel, G. E. Scuseria, 
 M. A. Robb, J. R. Cheeseman, G. Scalmani, V. Barone, 
 G. A. Petersson, H. Nakatsuji, X. Li, M. Caricato, A. V. Marenich, 
 J. Bloino, B. G. Janesko, R. Gomperts, B. Mennucci, H. P. Hratchian, 
 J. V. Ortiz, A. F. Izmaylov, J. L. Sonnenberg, D. Williams-Young, 
 F. Ding, F. Lipparini, F. Egidi, J. Goings, B. Peng, A. Petrone, 
 T. Henderson, D. Ranasinghe, V. G. Zakrzewski, J. Gao, N. Rega, 
 G. Zheng, W. Liang, M. Hada, M. Ehara, K. Toyota, R. Fukuda, 
 J. Hasegawa, M. Ishida, T. Nakajima, Y. Honda, O. Kitao, H. Nakai, 
 T. Vreven, K. Throssell, J. A. Montgomery, Jr., J. E. Peralta, 
 F. Ogliaro, M. J. Bearpark, J. J. Heyd, E. N. Brothers, K. N. Kudin, 
 V. N. Staroverov, T. A. Keith, R. Kobayashi, J. Normand, 
 K. Raghavachari, A. P. Rendell, J. C. Burant, S. S. Iyengar, 
 J. Tomasi, M. Cossi, J. M. Millam, M. Klene, C. Adamo, R. Cammi, 
 J. W. Ochterski, R. L. Martin, K. Morokuma, O. Farkas, 
 J. B. Foresman, and D. J. Fox, Gaussian, Inc., Wallingford CT, 2019.
 
 ******************************************
 Gaussian 16:  ES64L-G16RevC.01  3-Jul-2019
                31-May-2022 
 ******************************************
 %mem=8gb
 %nproc=4
 Will use up to    4 processors via shared memory.
 %chk=conf-621.chk
 ----------------------------------------------------------------------
 # B3LYP/6-31G* empiricaldispersion=gd3 guess=read geom=check nosymm in
 tegral(ultrafinegrid)
 ----------------------------------------------------------------------
 1/29=2,38=1,172=1/1;
 2/12=2,15=1,40=1/2;
 3/5=1,6=6,7=1,11=2,14=-4,25=1,30=1,74=-5,75=-5,116=-2,124=31/1,2,3;
 4/5=1/1;
 5/5=2,38=6/2;
 6/7=2,8=2,9=2,10=2,28=1/1;
 99/5=1,9=1/99;
 ------------------------------------------------------
 Candidate Structure: Conf:621 Charge calc in gas phase
 ------------------------------------------------------
 Structure from the checkpoint file:  "conf-621.chk"
 Charge =  1 Multiplicity = 1
 Redundant internal coordinates found in file.  (old form).
 N,0,32.1505880675,-31.2260439228,44.3883064812
 C,0,31.5993585237,-30.484971614,43.2100786009
 C,0,32.7424342047,-29.5382342066,42.7849922258
 O,0,33.4364327601,-29.0057295052,43.6477697297
 C,0,31.1113532487,-31.4924402368,42.1479893134
 C,0,30.1856830177,-32.5406282436,42.726426014
 C,0,30.7004177379,-33.7711436324,43.169286307
 C,0,28.8165586429,-32.2959775771,42.8842738596
 C,0,29.8753242015,-34.7274197472,43.7514070234
 C,0,27.9778269777,-33.2471692959,43.4622728338
 C,0,28.5058221506,-34.4693787203,43.8988931122
 O,0,27.751228162,-35.4442971691,44.4712490191
 H,0,31.4354661771,-31.795849165,44.8436683288
 H,0,30.7611905729,-29.8683850977,43.555087119
 H,0,30.5941280112,-30.9282849917,41.361638976
 H,0,31.9878499308,-31.976027791,41.7047304235
 H,0,31.7622673641,-33.9791489099,43.0532668895
 H,0,28.3911065257,-31.3546930664,42.5423703372
 H,0,30.2671051097,-35.6813666937,44.0884253775
 H,0,26.9143609402,-33.0444066817,43.5680830732
 H,0,26.8212119895,-35.1697813047,44.5032072159
 H,0,33.012625507,-31.864456462,43.9722567681
 H,0,32.5737083024,-30.5683097962,45.0501852858
 N,0,32.9677551952,-29.3589758523,41.4590000007
 C,0,34.1302928873,-28.5947168449,41.0007832238
 C,0,35.4294907878,-29.1631345477,41.6043386947
 O,0,36.3574992533,-28.3802245627,41.8900538807
 C,0,34.1591432219,-28.5141967172,39.4526760426
 C,0,34.3177245468,-29.8864208584,38.7776763921
 C,0,35.2502244639,-27.5422276074,38.9824358146
 H,0,32.3898721515,-29.8265484596,40.7758491067
 H,0,34.066007546,-27.581490192,41.4085145625
 H,0,33.1845879684,-28.0948617529,39.1635915345
 H,0,33.5412867781,-30.604231571,39.0713476175
 H,0,34.2579601916,-29.7768492106,37.6905997692
 H,0,35.2881567823,-30.3341097557,39.0181056646
 H,0,35.1248559995,-26.5511988299,39.4308117795
 H,0,35.2103466829,-27.4319836264,37.8943046426
 H,0,36.2475388378,-27.9051063359,39.2516821823
 N,0,35.4998321412,-30.495055311,41.764062544
 C,0,36.2224535121,-31.1416430145,42.8719217814
 C,0,35.1534100232,-31.810735871,43.7804596324
 O,0,35.3603197682,-31.87538984,44.9860582235
 C,0,37.2665067835,-32.1603828875,42.3925861435
 C,0,38.4106956203,-31.595867058,41.5347844179
 C,0,39.4237426907,-30.7106042377,42.2774524562
 N,0,38.8354153088,-29.409528925,42.6242266977
 C,0,38.9877681606,-28.7506195948,43.7685992661
 N,0,40.0419375649,-28.974985217,44.5764435216
 N,0,38.0606069034,-27.848656448,44.1294217633
 O,0,34.086536367,-32.2024994531,43.1451830239
 H,0,34.6457898748,-31.0157278445,41.5732889807
 H,0,36.6822804169,-30.3629438522,43.4778895908
 H,0,36.7443430899,-32.9318837709,41.813700116
 H,0,37.6731506848,-32.6580946175,43.2820278117
 H,0,38.000763111,-31.0401068002,40.6803245046
 H,0,38.9759103824,-32.4328863288,41.1089477202
 H,0,40.3097486697,-30.551653232,41.651366578
 H,0,39.7446170779,-31.2127919474,43.1981496433
 H,0,38.0231793326,-29.0944919758,42.0755298164
 H,0,40.0250286831,-28.6827571313,45.5425107295
 H,0,40.8129362531,-29.5521247222,44.2773027302
 H,0,38.2795855727,-27.1177864766,44.7904000764
 H,0,37.2306598176,-27.7503784174,43.5446918777
 Recover connectivity data from disk.
                           ----------------------------
                           !    Current Parameters    !
                           ! (Angstroms and Degrees)  !
 --------------------------                            --------------------------
 ! Name  Definition              Value                                          !
 --------------------------------------------------------------------------------
 ! R1    R(1,2)                  1.4971                                         !
 ! R2    R(1,13)                 1.0215                                         !
 ! R3    R(1,22)                 1.1506                                         !
 ! R4    R(1,23)                 1.0246                                         !
 ! R5    R(2,3)                  1.5439                                         !
 ! R6    R(2,5)                  1.5431                                         !
 ! R7    R(2,14)                 1.0962                                         !
 ! R8    R(3,4)                  1.2286                                         !
 ! R9    R(3,24)                 1.3569                                         !
 ! R10   R(5,6)                  1.5133                                         !
 ! R11   R(5,15)                 1.0973                                         !
 ! R12   R(5,16)                 1.0948                                         !
 ! R13   R(6,7)                  1.4054                                         !
 ! R14   R(6,8)                  1.3997                                         !
 ! R15   R(7,9)                  1.3907                                         !
 ! R16   R(7,17)                 1.0882                                         !
 ! R17   R(8,10)                 1.3937                                         !
 ! R18   R(8,18)                 1.0881                                         !
 ! R19   R(9,11)                 1.4014                                         !
 ! R20   R(9,19)                 1.0849                                         !
 ! R21   R(10,11)                1.4011                                         !
 ! R22   R(10,20)                1.0878                                         !
 ! R23   R(11,12)                1.3592                                         !
 ! R24   R(12,21)                0.9702                                         !
 ! R25   R(24,25)                1.4648                                         !
 ! R26   R(24,31)                1.0096                                         !
 ! R27   R(25,26)                1.5412                                         !
 ! R28   R(25,28)                1.5505                                         !
 ! R29   R(25,32)                1.0941                                         !
 ! R30   R(26,27)                1.2473                                         !
 ! R31   R(26,40)                1.3433                                         !
 ! R32   R(28,29)                1.5375                                         !
 ! R33   R(28,30)                1.535                                          !
 ! R34   R(28,33)                1.0996                                         !
 ! R35   R(29,34)                1.0974                                         !
 ! R36   R(29,35)                1.0942                                         !
 ! R37   R(29,36)                1.0954                                         !
 ! R38   R(30,37)                1.0949                                         !
 ! R39   R(30,38)                1.0944                                         !
 ! R40   R(30,39)                1.0949                                         !
 ! R41   R(40,41)                1.4723                                         !
 ! R42   R(40,52)                1.0183                                         !
 ! R43   R(41,42)                1.5543                                         !
 ! R44   R(41,44)                1.5355                                         !
 ! R45   R(41,53)                1.0886                                         !
 ! R46   R(42,43)                1.2249                                         !
 ! R47   R(42,51)                1.302                                          !
 ! R48   R(44,45)                1.5374                                         !
 ! R49   R(44,54)                1.0968                                         !
 ! R50   R(44,55)                1.0974                                         !
 ! R51   R(45,46)                1.5367                                         !
 ! R52   R(45,56)                1.0986                                         !
 ! R53   R(45,57)                1.0961                                         !
 ! R54   R(46,47)                1.4694                                         !
 ! R55   R(46,58)                1.0965                                         !
 ! R56   R(46,59)                1.0967                                         !
 ! R57   R(47,48)                1.3293                                         !
 ! R58   R(47,60)                1.0296                                         !
 ! R59   R(48,49)                1.3469                                         !
 ! R60   R(48,50)                1.3429                                         !
 ! R61   R(49,61)                1.0094                                         !
 ! R62   R(49,62)                1.0085                                         !
 ! R63   R(50,63)                1.0095                                         !
 ! R64   R(50,64)                1.02                                           !
 ! A1    A(2,1,13)             111.6659                                         !
 ! A2    A(2,1,22)             105.4233                                         !
 ! A3    A(2,1,23)             110.0414                                         !
 ! A4    A(13,1,22)            112.0988                                         !
 ! A5    A(13,1,23)            111.0533                                         !
 ! A6    A(22,1,23)            106.2838                                         !
 ! A7    A(1,2,3)              104.3371                                         !
 ! A8    A(1,2,5)              109.5693                                         !
 ! A9    A(1,2,14)             108.1951                                         !
 ! A10   A(3,2,5)              116.423                                          !
 ! A11   A(3,2,14)             107.9287                                         !
 ! A12   A(5,2,14)             110.001                                          !
 ! A13   A(2,3,4)              119.3819                                         !
 ! A14   A(2,3,24)             118.2304                                         !
 ! A15   A(4,3,24)             122.3555                                         !
 ! A16   A(2,5,6)              112.4933                                         !
 ! A17   A(2,5,15)             107.8562                                         !
 ! A18   A(2,5,16)             108.2925                                         !
 ! A19   A(6,5,15)             109.9798                                         !
 ! A20   A(6,5,16)             109.7867                                         !
 ! A21   A(15,5,16)            108.3196                                         !
 ! A22   A(5,6,7)              120.1888                                         !
 ! A23   A(5,6,8)              121.3553                                         !
 ! A24   A(7,6,8)              118.4069                                         !
 ! A25   A(6,7,9)              121.1071                                         !
 ! A26   A(6,7,17)             119.4145                                         !
 ! A27   A(9,7,17)             119.4784                                         !
 ! A28   A(6,8,10)             121.073                                          !
 ! A29   A(6,8,18)             119.8827                                         !
 ! A30   A(10,8,18)            119.0407                                         !
 ! A31   A(7,9,11)             119.8167                                         !
 ! A32   A(7,9,19)             121.3574                                         !
 ! A33   A(11,9,19)            118.8229                                         !
 ! A34   A(8,10,11)            119.8546                                         !
 ! A35   A(8,10,20)            120.0982                                         !
 ! A36   A(11,10,20)           120.0458                                         !
 ! A37   A(9,11,10)            119.741                                          !
 ! A38   A(9,11,12)            117.051                                          !
 ! A39   A(10,11,12)           123.208                                          !
 ! A40   A(11,12,21)           110.0654                                         !
 ! A41   A(3,24,25)            120.4259                                         !
 ! A42   A(3,24,31)            120.3326                                         !
 ! A43   A(25,24,31)           118.9638                                         !
 ! A44   A(24,25,26)           110.7385                                         !
 ! A45   A(24,25,28)           110.7453                                         !
 ! A46   A(24,25,32)           108.6622                                         !
 ! A47   A(26,25,28)           113.2339                                         !
 ! A48   A(26,25,32)           104.1906                                         !
 ! A49   A(28,25,32)           108.9718                                         !
 ! A50   A(25,26,27)           119.0381                                         !
 ! A51   A(25,26,40)           117.1548                                         !
 ! A52   A(27,26,40)           123.7908                                         !
 ! A53   A(25,28,29)           113.1996                                         !
 ! A54   A(25,28,30)           110.6087                                         !
 ! A55   A(25,28,33)           105.4149                                         !
 ! A56   A(29,28,30)           110.9366                                         !
 ! A57   A(29,28,33)           108.4426                                         !
 ! A58   A(30,28,33)           107.9355                                         !
 ! A59   A(28,29,34)           113.1617                                         !
 ! A60   A(28,29,35)           109.9477                                         !
 ! A61   A(28,29,36)           111.0866                                         !
 ! A62   A(34,29,35)           107.0201                                         !
 ! A63   A(34,29,36)           107.5011                                         !
 ! A64   A(35,29,36)           107.9003                                         !
 ! A65   A(28,30,37)           111.4859                                         !
 ! A66   A(28,30,38)           110.0269                                         !
 ! A67   A(28,30,39)           111.2384                                         !
 ! A68   A(37,30,38)           108.1676                                         !
 ! A69   A(37,30,39)           107.6719                                         !
 ! A70   A(38,30,39)           108.1237                                         !
 ! A71   A(26,40,41)           123.4099                                         !
 ! A72   A(26,40,52)           116.1549                                         !
 ! A73   A(41,40,52)           109.1517                                         !
 ! A74   A(40,41,42)           106.9365                                         !
 ! A75   A(40,41,44)           112.9677                                         !
 ! A76   A(40,41,53)           108.1824                                         !
 ! A77   A(42,41,44)           111.3787                                         !
 ! A78   A(42,41,53)           105.8474                                         !
 ! A79   A(44,41,53)           111.1715                                         !
 ! A80   A(41,42,43)           118.8053                                         !
 ! A81   A(41,42,51)           114.0724                                         !
 ! A82   A(43,42,51)           127.0663                                         !
 ! A83   A(41,44,45)           115.8875                                         !
 ! A84   A(41,44,54)           107.9234                                         !
 ! A85   A(41,44,55)           107.4495                                         !
 ! A86   A(45,44,54)           108.5485                                         !
 ! A87   A(45,44,55)           110.059                                          !
 ! A88   A(54,44,55)           106.5695                                         !
 ! A89   A(44,45,46)           115.6258                                         !
 ! A90   A(44,45,56)           109.9983                                         !
 ! A91   A(44,45,57)           108.6715                                         !
 ! A92   A(46,45,56)           109.2949                                         !
 ! A93   A(46,45,57)           106.7222                                         !
 ! A94   A(56,45,57)           106.0543                                         !
 ! A95   A(45,46,47)           111.1116                                         !
 ! A96   A(45,46,58)           109.8918                                         !
 ! A97   A(45,46,59)           109.5604                                         !
 ! A98   A(47,46,58)           109.2641                                         !
 ! A99   A(47,46,59)           108.9329                                         !
 ! A100  A(58,46,59)           108.0178                                         !
 ! A101  A(46,47,48)           126.5971                                         !
 ! A102  A(46,47,60)           117.4531                                         !
 ! A103  A(48,47,60)           113.4248                                         !
 ! A104  A(47,48,49)           121.5654                                         !
 ! A105  A(47,48,50)           119.0203                                         !
 ! A106  A(49,48,50)           119.4119                                         !
 ! A107  A(48,49,61)           120.8414                                         !
 ! A108  A(48,49,62)           121.049                                          !
 ! A109  A(61,49,62)           117.5398                                         !
 ! A110  A(48,50,63)           120.8276                                         !
 ! A111  A(48,50,64)           118.1945                                         !
 ! A112  A(63,50,64)           118.8236                                         !
 ! D1    D(13,1,2,3)           172.0272                                         !
 ! D2    D(13,1,2,5)           -62.641                                          !
 ! D3    D(13,1,2,14)           57.2897                                         !
 ! D4    D(22,1,2,3)           -65.9996                                         !
 ! D5    D(22,1,2,5)            59.3323                                         !
 ! D6    D(22,1,2,14)          179.263                                          !
 ! D7    D(23,1,2,3)            48.2215                                         !
 ! D8    D(23,1,2,5)           173.5534                                         !
 ! D9    D(23,1,2,14)          -66.5159                                         !
 ! D10   D(1,2,3,4)            -37.7434                                         !
 ! D11   D(1,2,3,24)           140.2416                                         !
 ! D12   D(5,2,3,4)           -158.6102                                         !
 ! D13   D(5,2,3,24)            19.3748                                         !
 ! D14   D(14,2,3,4)            77.1818                                         !
 ! D15   D(14,2,3,24)         -104.8332                                         !
 ! D16   D(1,2,5,6)             51.1062                                         !
 ! D17   D(1,2,5,15)           172.5681                                         !
 ! D18   D(1,2,5,16)           -70.4124                                         !
 ! D19   D(3,2,5,6)            169.1472                                         !
 ! D20   D(3,2,5,15)           -69.3908                                         !
 ! D21   D(3,2,5,16)            47.6286                                         !
 ! D22   D(14,2,5,6)           -67.7137                                         !
 ! D23   D(14,2,5,15)           53.7482                                         !
 ! D24   D(14,2,5,16)          170.7677                                         !
 ! D25   D(2,3,24,25)         -173.0577                                         !
 ! D26   D(2,3,24,31)            0.8282                                         !
 ! D27   D(4,3,24,25)            4.8638                                         !
 ! D28   D(4,3,24,31)          178.7497                                         !
 ! D29   D(2,5,6,7)            -93.341                                          !
 ! D30   D(2,5,6,8)             84.0733                                         !
 ! D31   D(15,5,6,7)           146.4155                                         !
 ! D32   D(15,5,6,8)           -36.1702                                         !
 ! D33   D(16,5,6,7)            27.3225                                         !
 ! D34   D(16,5,6,8)          -155.2632                                         !
 ! D35   D(5,6,7,9)            177.4832                                         !
 ! D36   D(5,6,7,17)            -2.6003                                         !
 ! D37   D(8,6,7,9)             -0.0065                                         !
 ! D38   D(8,6,7,17)           179.91                                           !
 ! D39   D(5,6,8,10)          -177.6483                                         !
 ! D40   D(5,6,8,18)             3.0493                                         !
 ! D41   D(7,6,8,10)            -0.1892                                         !
 ! D42   D(7,6,8,18)          -179.4917                                         !
 ! D43   D(6,7,9,11)             0.1988                                         !
 ! D44   D(6,7,9,19)           179.5701                                         !
 ! D45   D(17,7,9,11)         -179.7177                                         !
 ! D46   D(17,7,9,19)           -0.3463                                         !
 ! D47   D(6,8,10,11)            0.1906                                         !
 ! D48   D(6,8,10,20)         -179.383                                          !
 ! D49   D(18,8,10,11)         179.4988                                         !
 ! D50   D(18,8,10,20)          -0.0747                                         !
 ! D51   D(7,9,11,10)           -0.1974                                         !
 ! D52   D(7,9,11,12)          179.8061                                         !
 ! D53   D(19,9,11,10)        -179.5847                                         !
 ! D54   D(19,9,11,12)           0.4189                                         !
 ! D55   D(8,10,11,9)            0.0053                                         !
 ! D56   D(8,10,11,12)        -179.9984                                         !
 ! D57   D(20,10,11,9)         179.5791                                         !
 ! D58   D(20,10,11,12)         -0.4246                                         !
 ! D59   D(9,11,12,21)        -178.6078                                         !
 ! D60   D(10,11,12,21)          1.3959                                         !
 ! D61   D(3,24,25,26)          54.2835                                         !
 ! D62   D(3,24,25,28)        -179.2411                                         !
 ! D63   D(3,24,25,32)         -59.5803                                         !
 ! D64   D(31,24,25,26)       -119.6853                                         !
 ! D65   D(31,24,25,28)          6.7901                                         !
 ! D66   D(31,24,25,32)        126.4509                                         !
 ! D67   D(24,25,26,27)       -145.5757                                         !
 ! D68   D(24,25,26,40)         35.8377                                         !
 ! D69   D(28,25,26,27)         89.3435                                         !
 ! D70   D(28,25,26,40)        -89.2431                                         !
 ! D71   D(32,25,26,27)        -28.9172                                         !
 ! D72   D(32,25,26,40)        152.4962                                         !
 ! D73   D(24,25,28,29)        -63.3142                                         !
 ! D74   D(24,25,28,30)        171.4795                                         !
 ! D75   D(24,25,28,33)         55.0584                                         !
 ! D76   D(26,25,28,29)         61.7629                                         !
 ! D77   D(26,25,28,30)        -63.4434                                         !
 ! D78   D(26,25,28,33)       -179.8644                                         !
 ! D79   D(32,25,28,29)        177.211                                          !
 ! D80   D(32,25,28,30)         52.0046                                         !
 ! D81   D(32,25,28,33)        -64.4164                                         !
 ! D82   D(25,26,40,41)       -146.4634                                         !
 ! D83   D(25,26,40,52)         -6.842                                          !
 ! D84   D(27,26,40,41)         35.0235                                         !
 ! D85   D(27,26,40,52)        174.6449                                         !
 ! D86   D(25,28,29,34)         56.2676                                         !
 ! D87   D(25,28,29,35)        175.8686                                         !
 ! D88   D(25,28,29,36)        -64.7649                                         !
 ! D89   D(30,28,29,34)       -178.7029                                         !
 ! D90   D(30,28,29,35)        -59.102                                          !
 ! D91   D(30,28,29,36)         60.2645                                         !
 ! D92   D(33,28,29,34)        -60.3335                                         !
 ! D93   D(33,28,29,35)         59.2675                                         !
 ! D94   D(33,28,29,36)        178.634                                          !
 ! D95   D(25,28,30,37)        -55.5316                                         !
 ! D96   D(25,28,30,38)       -175.5399                                         !
 ! D97   D(25,28,30,39)         64.6665                                         !
 ! D98   D(29,28,30,37)        177.9918                                         !
 ! D99   D(29,28,30,38)         57.9835                                         !
 ! D100  D(29,28,30,39)        -61.8101                                         !
 ! D101  D(33,28,30,37)         59.3158                                         !
 ! D102  D(33,28,30,38)        -60.6925                                         !
 ! D103  D(33,28,30,39)        179.5139                                         !
 ! D104  D(26,40,41,42)        112.0588                                         !
 ! D105  D(26,40,41,44)       -125.0582                                         !
 ! D106  D(26,40,41,53)         -1.5492                                         !
 ! D107  D(52,40,41,42)        -29.9479                                         !
 ! D108  D(52,40,41,44)         92.9351                                         !
 ! D109  D(52,40,41,53)       -143.5558                                         !
 ! D110  D(40,41,42,43)       -147.4168                                         !
 ! D111  D(40,41,42,51)         30.0543                                         !
 ! D112  D(44,41,42,43)         88.7171                                         !
 ! D113  D(44,41,42,51)        -93.8118                                         !
 ! D114  D(53,41,42,43)        -32.2332                                         !
 ! D115  D(53,41,42,51)        145.2379                                         !
 ! D116  D(40,41,44,45)         62.2104                                         !
 ! D117  D(40,41,44,54)        -59.7                                            !
 ! D118  D(40,41,44,55)       -174.2728                                         !
 ! D119  D(42,41,44,45)       -177.4131                                         !
 ! D120  D(42,41,44,54)         60.6766                                         !
 ! D121  D(42,41,44,55)        -53.8963                                         !
 ! D122  D(53,41,44,45)        -59.6319                                         !
 ! D123  D(53,41,44,54)        178.4578                                         !
 ! D124  D(53,41,44,55)         63.8849                                         !
 ! D125  D(41,44,45,46)         70.2835                                         !
 ! D126  D(41,44,45,56)        -54.0885                                         !
 ! D127  D(41,44,45,57)       -169.7864                                         !
 ! D128  D(54,44,45,46)       -168.1391                                         !
 ! D129  D(54,44,45,56)         67.4889                                         !
 ! D130  D(54,44,45,57)        -48.209                                          !
 ! D131  D(55,44,45,46)        -51.8599                                         !
 ! D132  D(55,44,45,56)       -176.2319                                         !
 ! D133  D(55,44,45,57)         68.0702                                         !
 ! D134  D(44,45,46,47)        -71.9723                                         !
 ! D135  D(44,45,46,58)        166.9764                                         !
 ! D136  D(44,45,46,59)         48.4447                                         !
 ! D137  D(56,45,46,47)         52.7643                                         !
 ! D138  D(56,45,46,58)        -68.287                                          !
 ! D139  D(56,45,46,59)        173.1813                                         !
 ! D140  D(57,45,46,47)        167.0399                                         !
 ! D141  D(57,45,46,58)         45.9886                                         !
 ! D142  D(57,45,46,59)        -72.5431                                         !
 ! D143  D(45,46,47,48)        138.6727                                         !
 ! D144  D(45,46,47,60)        -22.0272                                         !
 ! D145  D(58,46,47,48)        -99.9079                                         !
 ! D146  D(58,46,47,60)         99.3922                                         !
 ! D147  D(59,46,47,48)         17.8853                                         !
 ! D148  D(59,46,47,60)       -142.8146                                         !
 ! D149  D(46,47,48,49)         22.6302                                         !
 ! D150  D(46,47,48,50)       -156.8114                                         !
 ! D151  D(60,47,48,49)       -176.011                                          !
 ! D152  D(60,47,48,50)          4.5474                                         !
 ! D153  D(47,48,49,61)       -162.3524                                         !
 ! D154  D(47,48,49,62)          8.779                                          !
 ! D155  D(50,48,49,61)         17.0871                                         !
 ! D156  D(50,48,49,62)       -171.7816                                         !
 ! D157  D(47,48,50,63)       -158.5425                                         !
 ! D158  D(47,48,50,64)          4.5815                                         !
 ! D159  D(49,48,50,63)         22.0037                                         !
 ! D160  D(49,48,50,64)       -174.8723                                         !
 --------------------------------------------------------------------------------
 Symmetry turned off by external request.
 Stoichiometry    C20H33N6O5(1+)
 Framework group  C1[X(C20H33N6O5)]
 Deg. of freedom   186
 Full point group                 C1      NOp   1
                          Input orientation:                          
 ---------------------------------------------------------------------
 Center     Atomic      Atomic             Coordinates (Angstroms)
 Number     Number       Type             X           Y           Z
 ---------------------------------------------------------------------
      1          7           0       32.150588  -31.226044   44.388306
      2          6           0       31.599359  -30.484972   43.210079
      3          6           0       32.742434  -29.538234   42.784992
      4          8           0       33.436433  -29.005730   43.647770
      5          6           0       31.111353  -31.492440   42.147989
      6          6           0       30.185683  -32.540628   42.726426
      7          6           0       30.700418  -33.771144   43.169286
      8          6           0       28.816559  -32.295978   42.884274
      9          6           0       29.875324  -34.727420   43.751407
     10          6           0       27.977827  -33.247169   43.462273
     11          6           0       28.505822  -34.469379   43.898893
     12          8           0       27.751228  -35.444297   44.471249
     13          1           0       31.435466  -31.795849   44.843668
     14          1           0       30.761191  -29.868385   43.555087
     15          1           0       30.594128  -30.928285   41.361639
     16          1           0       31.987850  -31.976028   41.704730
     17          1           0       31.762267  -33.979149   43.053267
     18          1           0       28.391107  -31.354693   42.542370
     19          1           0       30.267105  -35.681367   44.088425
     20          1           0       26.914361  -33.044407   43.568083
     21          1           0       26.821212  -35.169781   44.503207
     22          1           0       33.012626  -31.864456   43.972257
     23          1           0       32.573708  -30.568310   45.050185
     24          7           0       32.967755  -29.358976   41.459000
     25          6           0       34.130293  -28.594717   41.000783
     26          6           0       35.429491  -29.163135   41.604339
     27          8           0       36.357499  -28.380225   41.890054
     28          6           0       34.159143  -28.514197   39.452676
     29          6           0       34.317725  -29.886421   38.777676
     30          6           0       35.250224  -27.542228   38.982436
     31          1           0       32.389872  -29.826548   40.775849
     32          1           0       34.066008  -27.581490   41.408515
     33          1           0       33.184588  -28.094862   39.163592
     34          1           0       33.541287  -30.604232   39.071348
     35          1           0       34.257960  -29.776849   37.690600
     36          1           0       35.288157  -30.334110   39.018106
     37          1           0       35.124856  -26.551199   39.430812
     38          1           0       35.210347  -27.431984   37.894305
     39          1           0       36.247539  -27.905106   39.251682
     40          7           0       35.499832  -30.495055   41.764063
     41          6           0       36.222454  -31.141643   42.871922
     42          6           0       35.153410  -31.810736   43.780460
     43          8           0       35.360320  -31.875390   44.986058
     44          6           0       37.266507  -32.160383   42.392586
     45          6           0       38.410696  -31.595867   41.534784
     46          6           0       39.423743  -30.710604   42.277452
     47          7           0       38.835415  -29.409529   42.624227
     48          6           0       38.987768  -28.750620   43.768599
     49          7           0       40.041938  -28.974985   44.576444
     50          7           0       38.060607  -27.848656   44.129422
     51          8           0       34.086536  -32.202499   43.145183
     52          1           0       34.645790  -31.015728   41.573289
     53          1           0       36.682280  -30.362944   43.477890
     54          1           0       36.744343  -32.931884   41.813700
     55          1           0       37.673151  -32.658095   43.282028
     56          1           0       38.000763  -31.040107   40.680325
     57          1           0       38.975910  -32.432886   41.108948
     58          1           0       40.309749  -30.551653   41.651367
     59          1           0       39.744617  -31.212792   43.198150
     60          1           0       38.023179  -29.094492   42.075530
     61          1           0       40.025029  -28.682757   45.542511
     62          1           0       40.812936  -29.552125   44.277303
     63          1           0       38.279586  -27.117786   44.790400
     64          1           0       37.230660  -27.750378   43.544692
 ---------------------------------------------------------------------
 Rotational constants (GHZ):           0.2520932           0.0729287           0.0648661
 Standard basis: 6-31G(d) (6D, 7F)
   531 basis functions,  1000 primitive gaussians,   531 cartesian basis functions
   117 alpha electrons      117 beta electrons
       nuclear repulsion energy      3372.6862675951 Hartrees.
 NAtoms=   64 NActive=   64 NUniq=   64 SFac= 1.00D+00 NAtFMM=   60 NAOKFM=T Big=T
 Integral buffers will be    131072 words long.
 Raffenetti 2 integral format.
 Two-electron integral symmetry is turned off.
 Nuclear repulsion after empirical dispersion term =     3372.5991487476 Hartrees.
 One-electron integrals computed using PRISM.
 NBasis=   531 RedAO= T EigKep=  4.33D-04  NBF=   531
 NBsUse=   531 1.00D-06 EigRej= -1.00D+00 NBFU=   531
 Initial guess from the checkpoint file:  "conf-621.chk"
 B after Tr=     0.000000    0.000000    0.000000
         Rot=    1.000000    0.000000    0.000000    0.000000 Ang=   0.00 deg.
 Requested convergence on RMS density matrix=1.00D-08 within 128 cycles.
 Requested convergence on MAX density matrix=1.00D-06.
 Requested convergence on             energy=1.00D-06.
 No special actions if energy rises.
 SCF Done:  E(RB3LYP) =  -1486.59417703     A.U. after    3 cycles
            NFock=  3  Conv=0.12D-08     -V/T= 2.0094

 **********************************************************************

            Population analysis using the SCF Density.

 **********************************************************************

 Alpha  occ. eigenvalues --  -19.25569 -19.23682 -19.23283 -19.19779 -19.17779
 Alpha  occ. eigenvalues --  -14.50765 -14.50695 -14.49228 -14.49068 -14.47999
 Alpha  occ. eigenvalues --  -14.45856 -10.46240 -10.40674 -10.40128 -10.36277
 Alpha  occ. eigenvalues --  -10.36031 -10.34697 -10.34040 -10.33296 -10.31680
 Alpha  occ. eigenvalues --  -10.30431 -10.30279 -10.29699 -10.28449 -10.28296
 Alpha  occ. eigenvalues --  -10.28054 -10.27639 -10.27536 -10.27394 -10.26738
 Alpha  occ. eigenvalues --  -10.26545  -1.15882  -1.15034  -1.14302  -1.13790
 Alpha  occ. eigenvalues --   -1.12237  -1.06555  -1.04749  -1.04103  -1.03475
 Alpha  occ. eigenvalues --   -1.02934  -1.01875  -0.94210  -0.91347  -0.90195
 Alpha  occ. eigenvalues --   -0.88499  -0.85178  -0.83283  -0.83186  -0.80671
 Alpha  occ. eigenvalues --   -0.78606  -0.77969  -0.76184  -0.75673  -0.72453
 Alpha  occ. eigenvalues --   -0.71552  -0.70840  -0.70307  -0.68578  -0.68196
 Alpha  occ. eigenvalues --   -0.67824  -0.67514  -0.66695  -0.65890  -0.63942
 Alpha  occ. eigenvalues --   -0.63465  -0.63042  -0.62569  -0.62021  -0.59711
 Alpha  occ. eigenvalues --   -0.59429  -0.58052  -0.57728  -0.57265  -0.56969
 Alpha  occ. eigenvalues --   -0.56030  -0.55153  -0.54623  -0.54289  -0.53954
 Alpha  occ. eigenvalues --   -0.53565  -0.53024  -0.52272  -0.52127  -0.51270
 Alpha  occ. eigenvalues --   -0.50629  -0.50587  -0.49924  -0.49760  -0.49052
 Alpha  occ. eigenvalues --   -0.48609  -0.48426  -0.48268  -0.48121  -0.47134
 Alpha  occ. eigenvalues --   -0.46683  -0.45834  -0.45213  -0.44795  -0.44586
 Alpha  occ. eigenvalues --   -0.44055  -0.43930  -0.43458  -0.43071  -0.41974
 Alpha  occ. eigenvalues --   -0.41393  -0.41313  -0.39146  -0.38592  -0.37759
 Alpha  occ. eigenvalues --   -0.37239  -0.36189  -0.34890  -0.34448  -0.33787
 Alpha  occ. eigenvalues --   -0.31129  -0.30238
 Alpha virt. eigenvalues --   -0.10626  -0.10475  -0.09525  -0.08946  -0.07798
 Alpha virt. eigenvalues --   -0.06120  -0.03895  -0.03672  -0.02564  -0.01705
 Alpha virt. eigenvalues --   -0.01200  -0.00487  -0.00221   0.00460   0.00755
 Alpha virt. eigenvalues --    0.01286   0.01718   0.02302   0.02928   0.03231
 Alpha virt. eigenvalues --    0.03958   0.04419   0.05072   0.05312   0.05575
 Alpha virt. eigenvalues --    0.05880   0.06097   0.06720   0.06829   0.07356
 Alpha virt. eigenvalues --    0.07819   0.07832   0.08157   0.08724   0.09376
 Alpha virt. eigenvalues --    0.09491   0.09716   0.10012   0.10266   0.10486
 Alpha virt. eigenvalues --    0.11484   0.11753   0.12520   0.12713   0.13500
 Alpha virt. eigenvalues --    0.14139   0.14513   0.14623   0.15056   0.15708
 Alpha virt. eigenvalues --    0.16816   0.17110   0.17418   0.18392   0.19046
 Alpha virt. eigenvalues --    0.19414   0.20654   0.23575   0.24801   0.25216
 Alpha virt. eigenvalues --    0.25564   0.25906   0.26840   0.27294   0.27388
 Alpha virt. eigenvalues --    0.28578   0.30718   0.33477   0.34678   0.38294
 Alpha virt. eigenvalues --    0.38748   0.39386   0.40265   0.40435   0.41326
 Alpha virt. eigenvalues --    0.41478   0.42507   0.42802   0.43063   0.43470
 Alpha virt. eigenvalues --    0.43781   0.44072   0.44731   0.44779   0.45434
 Alpha virt. eigenvalues --    0.45664   0.46149   0.47137   0.48068   0.48638
 Alpha virt. eigenvalues --    0.49079   0.49501   0.50050   0.50413   0.50642
 Alpha virt. eigenvalues --    0.51323   0.51826   0.52662   0.53230   0.53502
 Alpha virt. eigenvalues --    0.53687   0.53917   0.54437   0.54991   0.55761
 Alpha virt. eigenvalues --    0.55927   0.56541   0.56716   0.56980   0.57953
 Alpha virt. eigenvalues --    0.58329   0.58867   0.59297   0.60426   0.61048
 Alpha virt. eigenvalues --    0.61684   0.62713   0.62928   0.64021   0.64469
 Alpha virt. eigenvalues --    0.65221   0.65405   0.66964   0.67381   0.67775
 Alpha virt. eigenvalues --    0.68287   0.69319   0.70169   0.71307   0.71858
 Alpha virt. eigenvalues --    0.72050   0.72758   0.73106   0.73367   0.73934
 Alpha virt. eigenvalues --    0.74271   0.74436   0.75112   0.75474   0.75735
 Alpha virt. eigenvalues --    0.75971   0.76089   0.76988   0.77201   0.77658
 Alpha virt. eigenvalues --    0.77976   0.78956   0.79162   0.80170   0.80752
 Alpha virt. eigenvalues --    0.81042   0.81812   0.81845   0.82196   0.82535
 Alpha virt. eigenvalues --    0.83431   0.84246   0.84470   0.84723   0.84915
 Alpha virt. eigenvalues --    0.85236   0.85854   0.86430   0.86793   0.87595
 Alpha virt. eigenvalues --    0.87753   0.88650   0.88907   0.89229   0.90213
 Alpha virt. eigenvalues --    0.90663   0.91708   0.92776   0.93557   0.93809
 Alpha virt. eigenvalues --    0.94707   0.95636   0.95868   0.97259   0.98257
 Alpha virt. eigenvalues --    0.99114   1.00458   1.01259   1.01973   1.02100
 Alpha virt. eigenvalues --    1.02417   1.03849   1.05680   1.06292   1.07288
 Alpha virt. eigenvalues --    1.07495   1.08888   1.10959   1.11329   1.11904
 Alpha virt. eigenvalues --    1.12766   1.13881   1.14627   1.15083   1.16382
 Alpha virt. eigenvalues --    1.16840   1.17538   1.18860   1.20334   1.21033
 Alpha virt. eigenvalues --    1.21992   1.22317   1.22818   1.24850   1.24972
 Alpha virt. eigenvalues --    1.26502   1.28664   1.28911   1.30515   1.31363
 Alpha virt. eigenvalues --    1.32021   1.34549   1.35138   1.35732   1.35953
 Alpha virt. eigenvalues --    1.37041   1.37944   1.38663   1.39021   1.40562
 Alpha virt. eigenvalues --    1.40965   1.42512   1.42694   1.43484   1.44707
 Alpha virt. eigenvalues --    1.45007   1.46881   1.47904   1.49080   1.50992
 Alpha virt. eigenvalues --    1.52550   1.53489   1.55891   1.57219   1.58477
 Alpha virt. eigenvalues --    1.58899   1.59838   1.60526   1.61089   1.63023
 Alpha virt. eigenvalues --    1.64479   1.64717   1.65105   1.65751   1.66692
 Alpha virt. eigenvalues --    1.67430   1.68486   1.68767   1.70494   1.70627
 Alpha virt. eigenvalues --    1.71319   1.71941   1.72787   1.73017   1.73458
 Alpha virt. eigenvalues --    1.74303   1.76156   1.76884   1.77294   1.78095
 Alpha virt. eigenvalues --    1.78193   1.78740   1.79266   1.79874   1.80667
 Alpha virt. eigenvalues --    1.81324   1.82408   1.83100   1.84245   1.84623
 Alpha virt. eigenvalues --    1.86240   1.86286   1.87073   1.87416   1.88147
 Alpha virt. eigenvalues --    1.88990   1.89604   1.89977   1.90114   1.90879
 Alpha virt. eigenvalues --    1.91451   1.92336   1.93055   1.94287   1.94786
 Alpha virt. eigenvalues --    1.95702   1.97047   1.97445   1.97931   1.98354
 Alpha virt. eigenvalues --    1.99089   2.00378   2.02530   2.03338   2.03764
 Alpha virt. eigenvalues --    2.04336   2.05195   2.05755   2.05854   2.07298
 Alpha virt. eigenvalues --    2.07663   2.08213   2.09012   2.11662   2.12174
 Alpha virt. eigenvalues --    2.13296   2.14816   2.16348   2.16955   2.17964
 Alpha virt. eigenvalues --    2.18689   2.19354   2.20339   2.22261   2.22743
 Alpha virt. eigenvalues --    2.22932   2.24722   2.25255   2.26679   2.27926
 Alpha virt. eigenvalues --    2.28579   2.28783   2.30130   2.30609   2.32517
 Alpha virt. eigenvalues --    2.32753   2.34120   2.34819   2.36236   2.37455
 Alpha virt. eigenvalues --    2.38027   2.39626   2.41307   2.41844   2.42946
 Alpha virt. eigenvalues --    2.43972   2.44950   2.46648   2.46897   2.48491
 Alpha virt. eigenvalues --    2.49729   2.50187   2.51892   2.52297   2.53236
 Alpha virt. eigenvalues --    2.53672   2.55628   2.56547   2.57355   2.57971
 Alpha virt. eigenvalues --    2.59890   2.60728   2.61328   2.62247   2.63875
 Alpha virt. eigenvalues --    2.66208   2.67498   2.69172   2.69799   2.70604
 Alpha virt. eigenvalues --    2.74238   2.76986   2.78028   2.80623   2.81760
 Alpha virt. eigenvalues --    2.85484   2.87333   2.88126   2.91214   2.92580
 Alpha virt. eigenvalues --    2.93153   2.94898   2.97792   3.03468   3.03919
 Alpha virt. eigenvalues --    3.08582   3.10849   3.33084   3.67425   3.75975
 Alpha virt. eigenvalues --    3.78088   3.86582   3.88828   3.91241   3.94509
 Alpha virt. eigenvalues --    3.99069   4.02470   4.04220   4.05086   4.05766
 Alpha virt. eigenvalues --    4.11763   4.13748   4.17466   4.18330   4.20276
 Alpha virt. eigenvalues --    4.21167   4.23657   4.25500   4.27326   4.29407
 Alpha virt. eigenvalues --    4.35568   4.37416   4.40051   4.42438   4.51142
 Alpha virt. eigenvalues --    4.57335   4.62886   4.63933   4.67161
          Condensed to atoms (all electrons):
 Mulliken charges:
               1
     1  N   -0.774062
     2  C   -0.087273
     3  C    0.652602
     4  O   -0.528587
     5  C   -0.399035
     6  C    0.124240
     7  C   -0.218091
     8  C   -0.188213
     9  C   -0.155498
    10  C   -0.189764
    11  C    0.358315
    12  O   -0.625911
    13  H    0.387457
    14  H    0.203940
    15  H    0.164265
    16  H    0.193687
    17  H    0.167137
    18  H    0.135770
    19  H    0.165282
    20  H    0.142162
    21  H    0.418436
    22  H    0.464362
    23  H    0.401252
    24  N   -0.656967
    25  C    0.001709
    26  C    0.627017
    27  O   -0.594164
    28  C   -0.129121
    29  C   -0.469460
    30  C   -0.447850
    31  H    0.354788
    32  H    0.195600
    33  H    0.155146
    34  H    0.135893
    35  H    0.177756
    36  H    0.162664
    37  H    0.161323
    38  H    0.165723
    39  H    0.157595
    40  N   -0.570187
    41  C   -0.073057
    42  C    0.608829
    43  O   -0.520653
    44  C   -0.268288
    45  C   -0.307291
    46  C   -0.149425
    47  N   -0.608515
    48  C    0.790202
    49  N   -0.760620
    50  N   -0.775945
    51  O   -0.674979
    52  H    0.359795
    53  H    0.158286
    54  H    0.167188
    55  H    0.169305
    56  H    0.164275
    57  H    0.175827
    58  H    0.185042
    59  H    0.167229
    60  H    0.403755
    61  H    0.379737
    62  H    0.382468
    63  H    0.366993
    64  H    0.419902
 Sum of Mulliken charges =   1.00000
 Mulliken charges with hydrogens summed into heavy atoms:
               1
     1  N    0.479009
     2  C    0.116667
     3  C    0.652602
     4  O   -0.528587
     5  C   -0.041083
     6  C    0.124240
     7  C   -0.050953
     8  C   -0.052442
     9  C    0.009784
    10  C   -0.047602
    11  C    0.358315
    12  O   -0.207475
    24  N   -0.302178
    25  C    0.197309
    26  C    0.627017
    27  O   -0.594164
    28  C    0.026025
    29  C    0.006853
    30  C    0.036792
    40  N   -0.210393
    41  C    0.085229
    42  C    0.608829
    43  O   -0.520653
    44  C    0.068205
    45  C    0.032810
    46  C    0.202845
    47  N   -0.204760
    48  C    0.790202
    49  N    0.001585
    50  N    0.010950
    51  O   -0.674979
 Electronic spatial extent (au):  <R**2>=        3300471.3478
 Charge=              1.0000 electrons
 Dipole moment (field-independent basis, Debye):
    X=            169.7981    Y=           -142.2422    Z=            205.3450  Tot=            302.0444
 Quadrupole moment (field-independent basis, Debye-Ang):
   XX=           5960.3378   YY=           4040.9445   ZZ=           8620.0423
   XY=          -5003.3487   XZ=           7269.1936   YZ=          -6074.6813
 Traceless Quadrupole moment (field-independent basis, Debye-Ang):
   XX=           -246.7704   YY=          -2166.1637   ZZ=           2412.9341
   XY=          -5003.3487   XZ=           7269.1936   YZ=          -6074.6813
 Octapole moment (field-independent basis, Debye-Ang**2):
  XXX=         208067.3401  YYY=        -108834.5730  ZZZ=         355023.0659  XYY=         141562.4865
  XXY=        -174740.0357  XXZ=         255739.4160  XZZ=         305827.3877  YZZ=        -254466.3908
  YYZ=         172422.1044  XYZ=        -213889.2537
 Hexadecapole moment (field-independent basis, Debye-Ang**3):
 XXXX=        7225393.2769 YYYY=        2704932.7166 ZZZZ=       14314513.2537 XXXY=       -6069153.6228
 XXXZ=        8955575.1626 YYYX=       -3801982.9151 YYYZ=       -4639219.9482 ZZZX=       12636920.8456
 ZZZY=      -10444465.8132 XXYY=        4919143.2701 XXZZ=       10788821.1078 YYZZ=        7200753.2510
 XXYZ=       -7484008.1813 YYXZ=        6044074.2149 ZZXY=       -8976343.5389
 N-N= 3.372599148748D+03 E-N=-1.018364180661D+04  KE= 1.472701368190D+03
 Unable to Open any file for archive entry.
 1\1\GINC-AMR-022\SP\RB3LYP\6-31G(d)\C20H33N6O5(1+)\KENGMITH\31-May-202
 2\0\\# B3LYP/6-31G* empiricaldispersion=gd3 guess=read geom=check nosy
 mm integral(ultrafinegrid)\\Candidate Structure: Conf:621 Charge calc 
 in gas phase\\1,1\N,0,32.1505880675,-31.2260439228,44.3883064812\C,0,3
 1.5993585237,-30.484971614,43.2100786009\C,0,32.7424342047,-29.5382342
 066,42.7849922258\O,0,33.4364327601,-29.0057295052,43.6477697297\C,0,3
 1.1113532487,-31.4924402368,42.1479893134\C,0,30.1856830177,-32.540628
 2436,42.726426014\C,0,30.7004177379,-33.7711436324,43.169286307\C,0,28
 .8165586429,-32.2959775771,42.8842738596\C,0,29.8753242015,-34.7274197
 472,43.7514070234\C,0,27.9778269777,-33.2471692959,43.4622728338\C,0,2
 8.5058221506,-34.4693787203,43.8988931122\O,0,27.751228162,-35.4442971
 691,44.4712490191\H,0,31.4354661771,-31.795849165,44.8436683288\H,0,30
 .7611905729,-29.8683850977,43.555087119\H,0,30.5941280112,-30.92828499
 17,41.361638976\H,0,31.9878499308,-31.976027791,41.7047304235\H,0,31.7
 622673641,-33.9791489099,43.0532668895\H,0,28.3911065257,-31.354693066
 4,42.5423703372\H,0,30.2671051097,-35.6813666937,44.0884253775\H,0,26.
 9143609402,-33.0444066817,43.5680830732\H,0,26.8212119895,-35.16978130
 47,44.5032072159\H,0,33.012625507,-31.864456462,43.9722567681\H,0,32.5
 737083024,-30.5683097962,45.0501852858\N,0,32.9677551952,-29.358975852
 3,41.4590000007\C,0,34.1302928873,-28.5947168449,41.0007832238\C,0,35.
 4294907878,-29.1631345477,41.6043386947\O,0,36.3574992533,-28.38022456
 27,41.8900538807\C,0,34.1591432219,-28.5141967172,39.4526760426\C,0,34
 .3177245468,-29.8864208584,38.7776763921\C,0,35.2502244639,-27.5422276
 074,38.9824358146\H,0,32.3898721515,-29.8265484596,40.7758491067\H,0,3
 4.066007546,-27.581490192,41.4085145625\H,0,33.1845879684,-28.09486175
 29,39.1635915345\H,0,33.5412867781,-30.604231571,39.0713476175\H,0,34.
 2579601916,-29.7768492106,37.6905997692\H,0,35.2881567823,-30.33410975
 57,39.0181056646\H,0,35.1248559995,-26.5511988299,39.4308117795\H,0,35
 .2103466829,-27.4319836264,37.8943046426\H,0,36.2475388378,-27.9051063
 359,39.2516821823\N,0,35.4998321412,-30.495055311,41.764062544\C,0,36.
 2224535121,-31.1416430145,42.8719217814\C,0,35.1534100232,-31.81073587
 1,43.7804596324\O,0,35.3603197682,-31.87538984,44.9860582235\C,0,37.26
 65067835,-32.1603828875,42.3925861435\C,0,38.4106956203,-31.595867058,
 41.5347844179\C,0,39.4237426907,-30.7106042377,42.2774524562\N,0,38.83
 54153088,-29.409528925,42.6242266977\C,0,38.9877681606,-28.7506195948,
 43.7685992661\N,0,40.0419375649,-28.974985217,44.5764435216\N,0,38.060
 6069034,-27.848656448,44.1294217633\O,0,34.086536367,-32.2024994531,43
 .1451830239\H,0,34.6457898748,-31.0157278445,41.5732889807\H,0,36.6822
 804169,-30.3629438522,43.4778895908\H,0,36.7443430899,-32.9318837709,4
 1.813700116\H,0,37.6731506848,-32.6580946175,43.2820278117\H,0,38.0007
 63111,-31.0401068002,40.6803245046\H,0,38.9759103824,-32.4328863288,41
 .1089477202\H,0,40.3097486697,-30.551653232,41.651366578\H,0,39.744617
 0779,-31.2127919474,43.1981496433\H,0,38.0231793326,-29.0944919758,42.
 0755298164\H,0,40.0250286831,-28.6827571313,45.5425107295\H,0,40.81293
 62531,-29.5521247222,44.2773027302\H,0,38.2795855727,-27.1177864766,44
 .7904000764\H,0,37.2306598176,-27.7503784174,43.5446918777\\Version=ES
 64L-G16RevC.01\HF=-1486.594177\RMSD=1.190e-09\Dipole=2.3004848,2.25586
 74,0.2660781\Quadrupole=-183.4677398,-1610.4895967,1793.9573365,-3719.
 8671034,5404.467251,-4516.3766551\PG=C01 [X(C20H33N6O5)]\\@
 The archive entry for this job was punched.


 PENOTUS DIED A HUNDRED YEARS OLD WANTING BUT TWO...
 AND HE USED TO SAY BEFORE HE DIED, HAVING SPENT HIS
 WHOLE LIFE IN VAINLY SEARCHING AFTER THE PHILOSOPHER'S
 STONE, THAT IF HE HAD A MORTAL ENEMY HE DID NOT DARE
 TO ENCOUNTER OPENLY, HE WOULD ADVISE HIM ABOVE ALL
 THINGS TO GIVE HIMSELF UP TO THE STUDY AND PRACTICE
 OF ALCHEMY.  --  NICOLAS LEMERY, M.D.
 "A COURSE OF CHYMISTRY", WALTER KETTILBY, LONDON, 1686
 Job cpu time:       0 days  0 hours  2 minutes 30.5 seconds.
 Elapsed time:       0 days  0 hours  0 minutes 38.1 seconds.
 File lengths (MBytes):  RWF=    264 Int=      0 D2E=      0 Chk=     40 Scr=     16
 Normal termination of Gaussian 16 at Tue May 31 11:32:10 2022.
