 Entering Gaussian System, Link 0=/opt/software/Gaussian/g16-AVX2-C.01/g16/g16
 Input=charge-conf-669.com
 Output=charge-conf-669.log
 Initial command:
 /opt/software/Gaussian/g16-AVX2-C.01/g16/l1.exe "/mnt/gs18/scratch/users/kengmith/Gau-118251.inp" -scrdir="/mnt/gs18/scratch/users/kengmith/"
 Entering Link 1 = /opt/software/Gaussian/g16-AVX2-C.01/g16/l1.exe PID=    118261.
  
 Copyright (c) 1988-2019, Gaussian, Inc.  All Rights Reserved.
  
 This is part of the Gaussian(R) 16 program.  It is based on
 the Gaussian(R) 09 system (copyright 2009, Gaussian, Inc.),
 the Gaussian(R) 03 system (copyright 2003, Gaussian, Inc.),
 the Gaussian(R) 98 system (copyright 1998, Gaussian, Inc.),
 the Gaussian(R) 94 system (copyright 1995, Gaussian, Inc.),
 the Gaussian 92(TM) system (copyright 1992, Gaussian, Inc.),
 the Gaussian 90(TM) system (copyright 1990, Gaussian, Inc.),
 the Gaussian 88(TM) system (copyright 1988, Gaussian, Inc.),
 the Gaussian 86(TM) system (copyright 1986, Carnegie Mellon
 University), and the Gaussian 82(TM) system (copyright 1983,
 Carnegie Mellon University). Gaussian is a federally registered
 trademark of Gaussian, Inc.
  
 This software contains proprietary and confidential information,
 including trade secrets, belonging to Gaussian, Inc.
  
 This software is provided under written license and may be
 used, copied, transmitted, or stored only in accord with that
 written license.
  
 The following legend is applicable only to US Government
 contracts under FAR:
  
                    RESTRICTED RIGHTS LEGEND
  
 Use, reproduction and disclosure by the US Government is
 subject to restrictions as set forth in subparagraphs (a)
 and (c) of the Commercial Computer Software - Restricted
 Rights clause in FAR 52.227-19.
  
 Gaussian, Inc.
 340 Quinnipiac St., Bldg. 40, Wallingford CT 06492
  
  
 ---------------------------------------------------------------
 Warning -- This program may not be used in any manner that
 competes with the business of Gaussian, Inc. or will provide
 assistance to any competitor of Gaussian, Inc.  The licensee
 of this program is prohibited from giving any competitor of
 Gaussian, Inc. access to this program.  By using this program,
 the user acknowledges that Gaussian, Inc. is engaged in the
 business of creating and licensing software in the field of
 computational chemistry and represents and warrants to the
 licensee that it is not a competitor of Gaussian, Inc. and that
 it will not use this program in any manner prohibited above.
 ---------------------------------------------------------------
  

 Cite this work as:
 Gaussian 16, Revision C.01,
 M. J. Frisch, G. W. Trucks, H. B. Schlegel, G. E. Scuseria, 
 M. A. Robb, J. R. Cheeseman, G. Scalmani, V. Barone, 
 G. A. Petersson, H. Nakatsuji, X. Li, M. Caricato, A. V. Marenich, 
 J. Bloino, B. G. Janesko, R. Gomperts, B. Mennucci, H. P. Hratchian, 
 J. V. Ortiz, A. F. Izmaylov, J. L. Sonnenberg, D. Williams-Young, 
 F. Ding, F. Lipparini, F. Egidi, J. Goings, B. Peng, A. Petrone, 
 T. Henderson, D. Ranasinghe, V. G. Zakrzewski, J. Gao, N. Rega, 
 G. Zheng, W. Liang, M. Hada, M. Ehara, K. Toyota, R. Fukuda, 
 J. Hasegawa, M. Ishida, T. Nakajima, Y. Honda, O. Kitao, H. Nakai, 
 T. Vreven, K. Throssell, J. A. Montgomery, Jr., J. E. Peralta, 
 F. Ogliaro, M. J. Bearpark, J. J. Heyd, E. N. Brothers, K. N. Kudin, 
 V. N. Staroverov, T. A. Keith, R. Kobayashi, J. Normand, 
 K. Raghavachari, A. P. Rendell, J. C. Burant, S. S. Iyengar, 
 J. Tomasi, M. Cossi, J. M. Millam, M. Klene, C. Adamo, R. Cammi, 
 J. W. Ochterski, R. L. Martin, K. Morokuma, O. Farkas, 
 J. B. Foresman, and D. J. Fox, Gaussian, Inc., Wallingford CT, 2019.
 
 ******************************************
 Gaussian 16:  ES64L-G16RevC.01  3-Jul-2019
                31-May-2022 
 ******************************************
 %mem=8gb
 %nproc=4
 Will use up to    4 processors via shared memory.
 %chk=conf-669.chk
 ----------------------------------------------------------------------
 # B3LYP/6-31G* empiricaldispersion=gd3 guess=read geom=check nosymm in
 tegral(ultrafinegrid)
 ----------------------------------------------------------------------
 1/29=2,38=1,172=1/1;
 2/12=2,15=1,40=1/2;
 3/5=1,6=6,7=1,11=2,14=-4,25=1,30=1,74=-5,75=-5,116=-2,124=31/1,2,3;
 4/5=1/1;
 5/5=2,38=6/2;
 6/7=2,8=2,9=2,10=2,28=1/1;
 99/5=1,9=1/99;
 ------------------------------------------------------
 Candidate Structure: Conf:669 Charge calc in gas phase
 ------------------------------------------------------
 Structure from the checkpoint file:  "conf-669.chk"
 Charge =  1 Multiplicity = 1
 Redundant internal coordinates found in file.  (old form).
 N,0,31.6869470309,-31.8428802924,43.2285916968
 C,0,31.4959201255,-30.7178112063,42.2589734651
 C,0,32.5788864103,-29.6894176028,42.6488263912
 O,0,32.8476460305,-29.5176543217,43.8354815741
 C,0,31.5545402369,-31.2658426787,40.8177928502
 C,0,30.6324786746,-32.4481343247,40.6132931282
 C,0,31.1213980718,-33.7556813504,40.7386213938
 C,0,29.2652709017,-32.2681154191,40.352355193
 C,0,30.2732310895,-34.8548150676,40.6047718785
 C,0,28.4097962807,-33.3544086212,40.2141051552
 C,0,28.9125201203,-34.6574421272,40.3392084123
 O,0,28.025782431,-35.6770308386,40.1926824607
 H,0,32.7111938643,-32.2908878654,42.9770023544
 H,0,30.515791458,-30.2654691599,42.4495724484
 H,0,31.2772514378,-30.4518441586,40.1360449979
 H,0,32.5873066324,-31.5583503306,40.6030568188
 H,0,32.1776886881,-33.9163991411,40.9446189843
 H,0,28.8647456615,-31.2622495596,40.2432276133
 H,0,30.6702684713,-35.8631961,40.6984903817
 H,0,27.3543306729,-33.2203446003,40.0017386375
 H,0,28.482833726,-36.5291193638,40.2727473397
 H,0,31.7594517317,-31.4757649672,44.1824772708
 H,0,30.937318308,-32.533001448,43.1560566111
 N,0,33.2301466867,-29.035638799,41.6543949011
 C,0,34.3660061455,-28.16290027,41.9605114191
 C,0,35.4308028914,-28.9205950182,42.7773467209
 O,0,36.0814773238,-28.302600018,43.6436438389
 C,0,34.9295983942,-27.5202873461,40.666955339
 C,0,35.499408226,-28.5500386779,39.6777580063
 C,0,35.9756183537,-26.4495787488,41.007199987
 H,0,32.995608788,-29.2127985986,40.6885057923
 H,0,34.0266419254,-27.3694339314,42.6330246987
 H,0,34.0736294297,-27.0187532907,40.1926642139
 H,0,34.7733275832,-29.3217508332,39.3921530996
 H,0,35.8134639978,-28.0491615159,38.7569968697
 H,0,36.3730623906,-29.0592634039,40.0989098564
 H,0,35.56810873,-25.6916151,41.6841860433
 H,0,36.3087414383,-25.9474558269,40.0936022304
 H,0,36.8523580743,-26.8914412521,41.4919234157
 N,0,35.619555113,-30.2182295392,42.4853972637
 C,0,35.9801661133,-31.2306665872,43.4916673673
 C,0,34.7609527793,-32.1847329272,43.6334471149
 O,0,34.5369708868,-32.6958654947,44.7243002181
 C,0,37.2568585904,-32.0049159605,43.133190274
 C,0,38.5432896402,-31.169222993,43.030694821
 C,0,39.090193729,-30.6249985,44.3597280456
 N,0,38.2436461989,-29.5403913011,44.8752298893
 C,0,37.8848412555,-29.3477093989,46.1404467625
 N,0,38.6006661943,-29.8563412175,47.1617672818
 N,0,36.7751492558,-28.6378913655,46.402012903
 O,0,34.0511311044,-32.3064943417,42.5495032875
 H,0,34.967694974,-30.6275046655,41.8186202048
 H,0,36.0806836832,-30.73196705,44.4541363503
 H,0,37.0891057389,-32.5059337323,42.172004088
 H,0,37.3815991704,-32.7974831113,43.8818313474
 H,0,38.3950291911,-30.3355796995,42.3306471706
 H,0,39.3331043677,-31.7929081492,42.5963706677
 H,0,40.1110622304,-30.2509030271,44.2176963063
 H,0,39.1249011535,-31.4326587653,45.1009339024
 H,0,37.646298842,-29.0429183441,44.1999238108
 H,0,38.199578434,-29.9385490062,48.0844421987
 H,0,39.4989966448,-30.2864989589,47.0037847699
 H,0,36.6417910721,-28.1996198728,47.3015620193
 H,0,36.2050944228,-28.3277670155,45.6151180559
 Recover connectivity data from disk.
                           ----------------------------
                           !    Current Parameters    !
                           ! (Angstroms and Degrees)  !
 --------------------------                            --------------------------
 ! Name  Definition              Value                                          !
 --------------------------------------------------------------------------------
 ! R1    R(1,2)                  1.4975                                         !
 ! R2    R(1,13)                 1.1459                                         !
 ! R3    R(1,22)                 1.0247                                         !
 ! R4    R(1,23)                 1.0215                                         !
 ! R5    R(2,3)                  1.5435                                         !
 ! R6    R(2,5)                  1.543                                          !
 ! R7    R(2,14)                 1.0962                                         !
 ! R8    R(3,4)                  1.2288                                         !
 ! R9    R(3,24)                 1.3566                                         !
 ! R10   R(5,6)                  1.5132                                         !
 ! R11   R(5,15)                 1.0974                                         !
 ! R12   R(5,16)                 1.0947                                         !
 ! R13   R(6,7)                  1.4016                                         !
 ! R14   R(6,8)                  1.4035                                         !
 ! R15   R(7,9)                  1.3948                                         !
 ! R16   R(7,17)                 1.0881                                         !
 ! R17   R(8,10)                 1.3896                                         !
 ! R18   R(8,18)                 1.0882                                         !
 ! R19   R(9,11)                 1.4004                                         !
 ! R20   R(9,19)                 1.0878                                         !
 ! R21   R(10,11)                1.4022                                         !
 ! R22   R(10,20)                1.0849                                         !
 ! R23   R(11,12)                1.3592                                         !
 ! R24   R(12,21)                0.9702                                         !
 ! R25   R(24,25)                1.4648                                         !
 ! R26   R(24,31)                1.0096                                         !
 ! R27   R(25,26)                1.5411                                         !
 ! R28   R(25,28)                1.5504                                         !
 ! R29   R(25,32)                1.0941                                         !
 ! R30   R(26,27)                1.2473                                         !
 ! R31   R(26,40)                1.3434                                         !
 ! R32   R(28,29)                1.5374                                         !
 ! R33   R(28,30)                1.535                                          !
 ! R34   R(28,33)                1.0996                                         !
 ! R35   R(29,34)                1.0974                                         !
 ! R36   R(29,35)                1.0942                                         !
 ! R37   R(29,36)                1.0954                                         !
 ! R38   R(30,37)                1.0949                                         !
 ! R39   R(30,38)                1.0944                                         !
 ! R40   R(30,39)                1.0949                                         !
 ! R41   R(40,41)                1.4723                                         !
 ! R42   R(40,52)                1.0183                                         !
 ! R43   R(41,42)                1.5546                                         !
 ! R44   R(41,44)                1.5355                                         !
 ! R45   R(41,53)                1.0886                                         !
 ! R46   R(42,43)                1.2253                                         !
 ! R47   R(42,51)                1.3014                                         !
 ! R48   R(44,45)                1.5375                                         !
 ! R49   R(44,54)                1.0968                                         !
 ! R50   R(44,55)                1.0974                                         !
 ! R51   R(45,46)                1.5368                                         !
 ! R52   R(45,56)                1.0986                                         !
 ! R53   R(45,57)                1.0961                                         !
 ! R54   R(46,47)                1.4693                                         !
 ! R55   R(46,58)                1.0965                                         !
 ! R56   R(46,59)                1.0968                                         !
 ! R57   R(47,48)                1.3292                                         !
 ! R58   R(47,60)                1.0297                                         !
 ! R59   R(48,49)                1.3469                                         !
 ! R60   R(48,50)                1.343                                          !
 ! R61   R(49,61)                1.0094                                         !
 ! R62   R(49,62)                1.0085                                         !
 ! R63   R(50,63)                1.0095                                         !
 ! R64   R(50,64)                1.02                                           !
 ! A1    A(2,1,13)             105.4024                                         !
 ! A2    A(2,1,22)             110.0369                                         !
 ! A3    A(2,1,23)             111.5916                                         !
 ! A4    A(13,1,22)            106.3329                                         !
 ! A5    A(13,1,23)            112.0994                                         !
 ! A6    A(22,1,23)            111.1052                                         !
 ! A7    A(1,2,3)              104.3314                                         !
 ! A8    A(1,2,5)              109.4563                                         !
 ! A9    A(1,2,14)             108.1502                                         !
 ! A10   A(3,2,5)              116.4812                                         !
 ! A11   A(3,2,14)             107.9685                                         !
 ! A12   A(5,2,14)             110.0562                                         !
 ! A13   A(2,3,4)              119.3745                                         !
 ! A14   A(2,3,24)             118.2139                                         !
 ! A15   A(4,3,24)             122.3795                                         !
 ! A16   A(2,5,6)              112.3696                                         !
 ! A17   A(2,5,15)             107.8908                                         !
 ! A18   A(2,5,16)             108.2991                                         !
 ! A19   A(6,5,15)             109.9755                                         !
 ! A20   A(6,5,16)             109.8524                                         !
 ! A21   A(15,5,16)            108.3448                                         !
 ! A22   A(5,6,7)              120.2814                                         !
 ! A23   A(5,6,8)              121.2317                                         !
 ! A24   A(7,6,8)              118.4313                                         !
 ! A25   A(6,7,9)              120.9612                                         !
 ! A26   A(6,7,17)             119.561                                          !
 ! A27   A(9,7,17)             119.4778                                         !
 ! A28   A(6,8,10)             121.1945                                         !
 ! A29   A(6,8,18)             119.7208                                         !
 ! A30   A(10,8,18)            119.0804                                         !
 ! A31   A(7,9,11)             119.8687                                         !
 ! A32   A(7,9,19)             120.0195                                         !
 ! A33   A(11,9,19)            120.1099                                         !
 ! A34   A(8,10,11)            119.791                                          !
 ! A35   A(8,10,20)            121.4519                                         !
 ! A36   A(11,10,20)           118.7551                                         !
 ! A37   A(9,11,10)            119.7525                                         !
 ! A38   A(9,11,12)            123.2747                                         !
 ! A39   A(10,11,12)           116.9728                                         !
 ! A40   A(11,12,21)           110.0341                                         !
 ! A41   A(3,24,25)            120.4112                                         !
 ! A42   A(3,24,31)            120.3434                                         !
 ! A43   A(25,24,31)           118.9877                                         !
 ! A44   A(24,25,26)           110.708                                          !
 ! A45   A(24,25,28)           110.7609                                         !
 ! A46   A(24,25,32)           108.6651                                         !
 ! A47   A(26,25,28)           113.2551                                         !
 ! A48   A(26,25,32)           104.1861                                         !
 ! A49   A(28,25,32)           108.9656                                         !
 ! A50   A(25,26,27)           119.0093                                         !
 ! A51   A(25,26,40)           117.1801                                         !
 ! A52   A(27,26,40)           123.7954                                         !
 ! A53   A(25,28,29)           113.1993                                         !
 ! A54   A(25,28,30)           110.6019                                         !
 ! A55   A(25,28,33)           105.4226                                         !
 ! A56   A(29,28,30)           110.9315                                         !
 ! A57   A(29,28,33)           108.4502                                         !
 ! A58   A(30,28,33)           107.9333                                         !
 ! A59   A(28,29,34)           113.1566                                         !
 ! A60   A(28,29,35)           109.9502                                         !
 ! A61   A(28,29,36)           111.0752                                         !
 ! A62   A(34,29,35)           107.0254                                         !
 ! A63   A(34,29,36)           107.5083                                         !
 ! A64   A(35,29,36)           107.9028                                         !
 ! A65   A(28,30,37)           111.4865                                         !
 ! A66   A(28,30,38)           110.0235                                         !
 ! A67   A(28,30,39)           111.2403                                         !
 ! A68   A(37,30,38)           108.1686                                         !
 ! A69   A(37,30,39)           107.6772                                         !
 ! A70   A(38,30,39)           108.1182                                         !
 ! A71   A(26,40,41)           123.3749                                         !
 ! A72   A(26,40,52)           116.1402                                         !
 ! A73   A(41,40,52)           109.143                                          !
 ! A74   A(40,41,42)           106.9933                                         !
 ! A75   A(40,41,44)           113.0051                                         !
 ! A76   A(40,41,53)           108.1713                                         !
 ! A77   A(42,41,44)           111.34                                           !
 ! A78   A(42,41,53)           105.8377                                         !
 ! A79   A(44,41,53)           111.1373                                         !
 ! A80   A(41,42,43)           118.7215                                         !
 ! A81   A(41,42,51)           114.1557                                         !
 ! A82   A(43,42,51)           127.0695                                         !
 ! A83   A(41,44,45)           115.9232                                         !
 ! A84   A(41,44,54)           107.9231                                         !
 ! A85   A(41,44,55)           107.4226                                         !
 ! A86   A(45,44,54)           108.5322                                         !
 ! A87   A(45,44,55)           110.0567                                         !
 ! A88   A(54,44,55)           106.5782                                         !
 ! A89   A(44,45,46)           115.6336                                         !
 ! A90   A(44,45,56)           109.9994                                         !
 ! A91   A(44,45,57)           108.6659                                         !
 ! A92   A(46,45,56)           109.2914                                         !
 ! A93   A(46,45,57)           106.7236                                         !
 ! A94   A(56,45,57)           106.0522                                         !
 ! A95   A(45,46,47)           111.0883                                         !
 ! A96   A(45,46,58)           109.8852                                         !
 ! A97   A(45,46,59)           109.5685                                         !
 ! A98   A(47,46,58)           109.2703                                         !
 ! A99   A(47,46,59)           108.949                                          !
 ! A100  A(58,46,59)           108.0181                                         !
 ! A101  A(46,47,48)           126.6217                                         !
 ! A102  A(46,47,60)           117.4369                                         !
 ! A103  A(48,47,60)           113.4302                                         !
 ! A104  A(47,48,49)           121.5727                                         !
 ! A105  A(47,48,50)           119.0167                                         !
 ! A106  A(49,48,50)           119.4082                                         !
 ! A107  A(48,49,61)           120.8423                                         !
 ! A108  A(48,49,62)           121.0444                                         !
 ! A109  A(61,49,62)           117.5422                                         !
 ! A110  A(48,50,63)           120.8084                                         !
 ! A111  A(48,50,64)           118.1799                                         !
 ! A112  A(63,50,64)           118.7921                                         !
 ! D1    D(13,1,2,3)           -66.2003                                         !
 ! D2    D(13,1,2,5)            59.1342                                         !
 ! D3    D(13,1,2,14)          179.0391                                         !
 ! D4    D(22,1,2,3)            48.0648                                         !
 ! D5    D(22,1,2,5)           173.3994                                         !
 ! D6    D(22,1,2,14)          -66.6957                                         !
 ! D7    D(23,1,2,3)           171.8816                                         !
 ! D8    D(23,1,2,5)           -62.7839                                         !
 ! D9    D(23,1,2,14)           57.121                                          !
 ! D10   D(1,2,3,4)            -37.526                                          !
 ! D11   D(1,2,3,24)           140.4624                                         !
 ! D12   D(5,2,3,4)           -158.2804                                         !
 ! D13   D(5,2,3,24)            19.7081                                         !
 ! D14   D(14,2,3,4)            77.3626                                         !
 ! D15   D(14,2,3,24)         -104.649                                          !
 ! D16   D(1,2,5,6)             51.0163                                         !
 ! D17   D(1,2,5,15)           172.4186                                         !
 ! D18   D(1,2,5,16)           -70.5103                                         !
 ! D19   D(3,2,5,6)            169.0037                                         !
 ! D20   D(3,2,5,15)           -69.594                                          !
 ! D21   D(3,2,5,16)            47.4771                                         !
 ! D22   D(14,2,5,6)           -67.713                                          !
 ! D23   D(14,2,5,15)           53.6893                                         !
 ! D24   D(14,2,5,16)          170.7604                                         !
 ! D25   D(2,3,24,25)         -173.152                                          !
 ! D26   D(2,3,24,31)            0.9587                                         !
 ! D27   D(4,3,24,25)            4.7723                                         !
 ! D28   D(4,3,24,31)          178.883                                          !
 ! D29   D(2,5,6,7)            -94.9693                                         !
 ! D30   D(2,5,6,8)             82.2784                                         !
 ! D31   D(15,5,6,7)           144.828                                          !
 ! D32   D(15,5,6,8)           -37.9243                                         !
 ! D33   D(16,5,6,7)            25.666                                          !
 ! D34   D(16,5,6,8)          -157.0862                                         !
 ! D35   D(5,6,7,9)            177.4724                                         !
 ! D36   D(5,6,7,17)            -2.4475                                         !
 ! D37   D(8,6,7,9)              0.1485                                         !
 ! D38   D(8,6,7,17)          -179.7715                                         !
 ! D39   D(5,6,8,10)          -177.5747                                         !
 ! D40   D(5,6,8,18)             3.1875                                         !
 ! D41   D(7,6,8,10)            -0.2773                                         !
 ! D42   D(7,6,8,18)          -179.5151                                         !
 ! D43   D(6,7,9,11)             0.1006                                         !
 ! D44   D(6,7,9,19)           179.5979                                         !
 ! D45   D(17,7,9,11)         -179.9793                                         !
 ! D46   D(17,7,9,19)           -0.4821                                         !
 ! D47   D(6,8,10,11)            0.1547                                         !
 ! D48   D(6,8,10,20)         -179.3292                                         !
 ! D49   D(18,8,10,11)         179.3973                                         !
 ! D50   D(18,8,10,20)          -0.0866                                         !
 ! D51   D(7,9,11,10)           -0.2264                                         !
 ! D52   D(7,9,11,12)          179.84                                           !
 ! D53   D(19,9,11,10)        -179.7232                                         !
 ! D54   D(19,9,11,12)           0.3432                                         !
 ! D55   D(8,10,11,9)            0.1004                                         !
 ! D56   D(8,10,11,12)        -179.9619                                         !
 ! D57   D(20,10,11,9)         179.5982                                         !
 ! D58   D(20,10,11,12)         -0.4642                                         !
 ! D59   D(9,11,12,21)          -1.6848                                         !
 ! D60   D(10,11,12,21)        178.38                                           !
 ! D61   D(3,24,25,26)          54.1233                                         !
 ! D62   D(3,24,25,28)        -179.3848                                         !
 ! D63   D(3,24,25,32)         -59.7204                                         !
 ! D64   D(31,24,25,26)       -120.0665                                         !
 ! D65   D(31,24,25,28)          6.4255                                         !
 ! D66   D(31,24,25,32)        126.0898                                         !
 ! D67   D(24,25,26,27)       -145.405                                          !
 ! D68   D(24,25,26,40)         35.9622                                         !
 ! D69   D(28,25,26,27)         89.5013                                         !
 ! D70   D(28,25,26,40)        -89.1315                                         !
 ! D71   D(32,25,26,27)        -28.7601                                         !
 ! D72   D(32,25,26,40)        152.6071                                         !
 ! D73   D(24,25,28,29)        -63.3295                                         !
 ! D74   D(24,25,28,30)        171.4765                                         !
 ! D75   D(24,25,28,33)         55.0572                                         !
 ! D76   D(26,25,28,29)         61.7357                                         !
 ! D77   D(26,25,28,30)        -63.4584                                         !
 ! D78   D(26,25,28,33)       -179.8777                                         !
 ! D79   D(32,25,28,29)        177.1866                                         !
 ! D80   D(32,25,28,30)         51.9925                                         !
 ! D81   D(32,25,28,33)        -64.4268                                         !
 ! D82   D(25,26,40,41)       -146.3336                                         !
 ! D83   D(25,26,40,52)         -6.8061                                         !
 ! D84   D(27,26,40,41)         35.1052                                         !
 ! D85   D(27,26,40,52)        174.6327                                         !
 ! D86   D(25,28,29,34)         56.2305                                         !
 ! D87   D(25,28,29,35)        175.8365                                         !
 ! D88   D(25,28,29,36)        -64.7995                                         !
 ! D89   D(30,28,29,34)       -178.7533                                         !
 ! D90   D(30,28,29,35)        -59.1473                                         !
 ! D91   D(30,28,29,36)         60.2168                                         !
 ! D92   D(33,28,29,34)        -60.3849                                         !
 ! D93   D(33,28,29,35)         59.2211                                         !
 ! D94   D(33,28,29,36)        178.5851                                         !
 ! D95   D(25,28,30,37)        -55.5186                                         !
 ! D96   D(25,28,30,38)       -175.5264                                         !
 ! D97   D(25,28,30,39)         64.6879                                         !
 ! D98   D(29,28,30,37)        178.0141                                         !
 ! D99   D(29,28,30,38)         58.0063                                         !
 ! D100  D(29,28,30,39)        -61.7794                                         !
 ! D101  D(33,28,30,37)         59.3332                                         !
 ! D102  D(33,28,30,38)        -60.6746                                         !
 ! D103  D(33,28,30,39)        179.5397                                         !
 ! D104  D(26,40,41,42)        112.2196                                         !
 ! D105  D(26,40,41,44)       -124.8824                                         !
 ! D106  D(26,40,41,53)         -1.3999                                         !
 ! D107  D(52,40,41,42)        -29.6975                                         !
 ! D108  D(52,40,41,44)         93.2005                                         !
 ! D109  D(52,40,41,53)       -143.3169                                         !
 ! D110  D(40,41,42,43)       -147.8545                                         !
 ! D111  D(40,41,42,51)         29.6789                                         !
 ! D112  D(44,41,42,43)         88.2188                                         !
 ! D113  D(44,41,42,51)        -94.2478                                         !
 ! D114  D(53,41,42,43)        -32.6621                                         !
 ! D115  D(53,41,42,51)        144.8712                                         !
 ! D116  D(40,41,44,45)         62.2661                                         !
 ! D117  D(40,41,44,54)        -59.6472                                         !
 ! D118  D(40,41,44,55)       -174.2165                                         !
 ! D119  D(42,41,44,45)       -177.2855                                         !
 ! D120  D(42,41,44,54)         60.8012                                         !
 ! D121  D(42,41,44,55)        -53.7681                                         !
 ! D122  D(53,41,44,45)        -59.5633                                         !
 ! D123  D(53,41,44,54)        178.5233                                         !
 ! D124  D(53,41,44,55)         63.954                                          !
 ! D125  D(41,44,45,46)         70.2732                                         !
 ! D126  D(41,44,45,56)        -54.101                                          !
 ! D127  D(41,44,45,57)       -169.7938                                         !
 ! D128  D(54,44,45,46)       -168.1376                                         !
 ! D129  D(54,44,45,56)         67.4882                                         !
 ! D130  D(54,44,45,57)        -48.2047                                         !
 ! D131  D(55,44,45,46)        -51.8586                                         !
 ! D132  D(55,44,45,56)       -176.2328                                         !
 ! D133  D(55,44,45,57)         68.0743                                         !
 ! D134  D(44,45,46,47)        -72.0037                                         !
 ! D135  D(44,45,46,58)        166.957                                          !
 ! D136  D(44,45,46,59)         48.4239                                         !
 ! D137  D(56,45,46,47)         52.7374                                         !
 ! D138  D(56,45,46,58)        -68.3019                                         !
 ! D139  D(56,45,46,59)        173.165                                          !
 ! D140  D(57,45,46,47)        167.0096                                         !
 ! D141  D(57,45,46,58)         45.9703                                         !
 ! D142  D(57,45,46,59)        -72.5628                                         !
 ! D143  D(45,46,47,48)        138.8496                                         !
 ! D144  D(45,46,47,60)        -21.9018                                         !
 ! D145  D(58,46,47,48)        -99.7502                                         !
 ! D146  D(58,46,47,60)         99.4984                                         !
 ! D147  D(59,46,47,48)         18.0561                                         !
 ! D148  D(59,46,47,60)       -142.6952                                         !
 ! D149  D(46,47,48,49)         22.6056                                         !
 ! D150  D(46,47,48,50)       -156.8232                                         !
 ! D151  D(60,47,48,49)       -175.9896                                         !
 ! D152  D(60,47,48,50)          4.5815                                         !
 ! D153  D(47,48,49,61)       -162.3643                                         !
 ! D154  D(47,48,49,62)          8.7566                                         !
 ! D155  D(50,48,49,61)         17.0623                                         !
 ! D156  D(50,48,49,62)       -171.8167                                         !
 ! D157  D(47,48,50,63)       -158.4141                                         !
 ! D158  D(47,48,50,64)          4.4573                                         !
 ! D159  D(49,48,50,63)         22.1445                                         !
 ! D160  D(49,48,50,64)       -174.9841                                         !
 --------------------------------------------------------------------------------
 Symmetry turned off by external request.
 Stoichiometry    C20H33N6O5(1+)
 Framework group  C1[X(C20H33N6O5)]
 Deg. of freedom   186
 Full point group                 C1      NOp   1
                          Input orientation:                          
 ---------------------------------------------------------------------
 Center     Atomic      Atomic             Coordinates (Angstroms)
 Number     Number       Type             X           Y           Z
 ---------------------------------------------------------------------
      1          7           0       31.686947  -31.842880   43.228592
      2          6           0       31.495920  -30.717811   42.258973
      3          6           0       32.578886  -29.689418   42.648826
      4          8           0       32.847646  -29.517654   43.835482
      5          6           0       31.554540  -31.265843   40.817793
      6          6           0       30.632479  -32.448134   40.613293
      7          6           0       31.121398  -33.755681   40.738621
      8          6           0       29.265271  -32.268115   40.352355
      9          6           0       30.273231  -34.854815   40.604772
     10          6           0       28.409796  -33.354409   40.214105
     11          6           0       28.912520  -34.657442   40.339208
     12          8           0       28.025782  -35.677031   40.192682
     13          1           0       32.711194  -32.290888   42.977002
     14          1           0       30.515791  -30.265469   42.449572
     15          1           0       31.277251  -30.451844   40.136045
     16          1           0       32.587307  -31.558350   40.603057
     17          1           0       32.177689  -33.916399   40.944619
     18          1           0       28.864746  -31.262250   40.243228
     19          1           0       30.670268  -35.863196   40.698490
     20          1           0       27.354331  -33.220345   40.001739
     21          1           0       28.482834  -36.529119   40.272747
     22          1           0       31.759452  -31.475765   44.182477
     23          1           0       30.937318  -32.533001   43.156057
     24          7           0       33.230147  -29.035639   41.654395
     25          6           0       34.366006  -28.162900   41.960511
     26          6           0       35.430803  -28.920595   42.777347
     27          8           0       36.081477  -28.302600   43.643644
     28          6           0       34.929598  -27.520287   40.666955
     29          6           0       35.499408  -28.550039   39.677758
     30          6           0       35.975618  -26.449579   41.007200
     31          1           0       32.995609  -29.212799   40.688506
     32          1           0       34.026642  -27.369434   42.633025
     33          1           0       34.073629  -27.018753   40.192664
     34          1           0       34.773328  -29.321751   39.392153
     35          1           0       35.813464  -28.049162   38.756997
     36          1           0       36.373062  -29.059263   40.098910
     37          1           0       35.568109  -25.691615   41.684186
     38          1           0       36.308741  -25.947456   40.093602
     39          1           0       36.852358  -26.891441   41.491923
     40          7           0       35.619555  -30.218230   42.485397
     41          6           0       35.980166  -31.230667   43.491667
     42          6           0       34.760953  -32.184733   43.633447
     43          8           0       34.536971  -32.695865   44.724300
     44          6           0       37.256859  -32.004916   43.133190
     45          6           0       38.543290  -31.169223   43.030695
     46          6           0       39.090194  -30.624998   44.359728
     47          7           0       38.243646  -29.540391   44.875230
     48          6           0       37.884841  -29.347709   46.140447
     49          7           0       38.600666  -29.856341   47.161767
     50          7           0       36.775149  -28.637891   46.402013
     51          8           0       34.051131  -32.306494   42.549503
     52          1           0       34.967695  -30.627505   41.818620
     53          1           0       36.080684  -30.731967   44.454136
     54          1           0       37.089106  -32.505934   42.172004
     55          1           0       37.381599  -32.797483   43.881831
     56          1           0       38.395029  -30.335580   42.330647
     57          1           0       39.333104  -31.792908   42.596371
     58          1           0       40.111062  -30.250903   44.217696
     59          1           0       39.124901  -31.432659   45.100934
     60          1           0       37.646299  -29.042918   44.199924
     61          1           0       38.199578  -29.938549   48.084442
     62          1           0       39.498997  -30.286499   47.003785
     63          1           0       36.641791  -28.199620   47.301562
     64          1           0       36.205094  -28.327767   45.615118
 ---------------------------------------------------------------------
 Rotational constants (GHZ):           0.2520319           0.0729289           0.0648906
 Standard basis: 6-31G(d) (6D, 7F)
   531 basis functions,  1000 primitive gaussians,   531 cartesian basis functions
   117 alpha electrons      117 beta electrons
       nuclear repulsion energy      3373.0555770743 Hartrees.
 NAtoms=   64 NActive=   64 NUniq=   64 SFac= 1.00D+00 NAtFMM=   60 NAOKFM=T Big=T
 Integral buffers will be    131072 words long.
 Raffenetti 2 integral format.
 Two-electron integral symmetry is turned off.
 Nuclear repulsion after empirical dispersion term =     3372.9684523767 Hartrees.
 One-electron integrals computed using PRISM.
 NBasis=   531 RedAO= T EigKep=  4.34D-04  NBF=   531
 NBsUse=   531 1.00D-06 EigRej= -1.00D+00 NBFU=   531
 Initial guess from the checkpoint file:  "conf-669.chk"
 B after Tr=     0.000000    0.000000    0.000000
         Rot=    1.000000    0.000000    0.000000    0.000000 Ang=   0.00 deg.
 Requested convergence on RMS density matrix=1.00D-08 within 128 cycles.
 Requested convergence on MAX density matrix=1.00D-06.
 Requested convergence on             energy=1.00D-06.
 No special actions if energy rises.
 SCF Done:  E(RB3LYP) =  -1486.59423520     A.U. after    1 cycles
            NFock=  1  Conv=0.80D-08     -V/T= 2.0094

 **********************************************************************

            Population analysis using the SCF Density.

 **********************************************************************

 Alpha  occ. eigenvalues --  -19.25587 -19.23715 -19.23329 -19.19769 -19.17787
 Alpha  occ. eigenvalues --  -14.50864 -14.50795 -14.49254 -14.49086 -14.48037
 Alpha  occ. eigenvalues --  -14.45878 -10.46265 -10.40720 -10.40158 -10.36292
 Alpha  occ. eigenvalues --  -10.36085 -10.34730 -10.34065 -10.33318 -10.31706
 Alpha  occ. eigenvalues --  -10.30450 -10.30296 -10.29738 -10.28492 -10.28312
 Alpha  occ. eigenvalues --  -10.27872 -10.27863 -10.27550 -10.27348 -10.26817
 Alpha  occ. eigenvalues --  -10.26560  -1.15928  -1.15065  -1.14332  -1.13809
 Alpha  occ. eigenvalues --   -1.12235  -1.06689  -1.04779  -1.04131  -1.03488
 Alpha  occ. eigenvalues --   -1.02960  -1.01896  -0.94237  -0.91375  -0.90228
 Alpha  occ. eigenvalues --   -0.88542  -0.85204  -0.83389  -0.83128  -0.80695
 Alpha  occ. eigenvalues --   -0.78629  -0.77986  -0.76210  -0.75764  -0.72498
 Alpha  occ. eigenvalues --   -0.71614  -0.70703  -0.70308  -0.68596  -0.68297
 Alpha  occ. eigenvalues --   -0.67855  -0.67691  -0.66776  -0.65865  -0.63922
 Alpha  occ. eigenvalues --   -0.63489  -0.63074  -0.62627  -0.62064  -0.59752
 Alpha  occ. eigenvalues --   -0.59489  -0.58226  -0.57743  -0.57359  -0.56592
 Alpha  occ. eigenvalues --   -0.56160  -0.55313  -0.54823  -0.54313  -0.53962
 Alpha  occ. eigenvalues --   -0.53594  -0.53024  -0.52660  -0.51398  -0.51323
 Alpha  occ. eigenvalues --   -0.50656  -0.50575  -0.50026  -0.49910  -0.49192
 Alpha  occ. eigenvalues --   -0.48636  -0.48430  -0.48300  -0.48276  -0.47155
 Alpha  occ. eigenvalues --   -0.46609  -0.45848  -0.45333  -0.44850  -0.44544
 Alpha  occ. eigenvalues --   -0.44080  -0.43948  -0.43479  -0.43085  -0.42003
 Alpha  occ. eigenvalues --   -0.41417  -0.41343  -0.39169  -0.38621  -0.37786
 Alpha  occ. eigenvalues --   -0.37288  -0.36224  -0.34887  -0.34451  -0.33799
 Alpha  occ. eigenvalues --   -0.31152  -0.30265
 Alpha virt. eigenvalues --   -0.10661  -0.10507  -0.09566  -0.08951  -0.07817
 Alpha virt. eigenvalues --   -0.06151  -0.03915  -0.03689  -0.02590  -0.01809
 Alpha virt. eigenvalues --   -0.01240  -0.00522  -0.00280   0.00548   0.00741
 Alpha virt. eigenvalues --    0.01264   0.01688   0.02268   0.02897   0.03209
 Alpha virt. eigenvalues --    0.03924   0.04380   0.05048   0.05226   0.05498
 Alpha virt. eigenvalues --    0.05828   0.06071   0.06599   0.06866   0.07272
 Alpha virt. eigenvalues --    0.07707   0.07945   0.08172   0.08702   0.09307
 Alpha virt. eigenvalues --    0.09467   0.09682   0.09889   0.10254   0.10495
 Alpha virt. eigenvalues --    0.11455   0.11770   0.12509   0.12670   0.13428
 Alpha virt. eigenvalues --    0.14120   0.14518   0.14584   0.15018   0.15681
 Alpha virt. eigenvalues --    0.16818   0.17051   0.17408   0.18315   0.19009
 Alpha virt. eigenvalues --    0.19424   0.20672   0.23312   0.24492   0.25084
 Alpha virt. eigenvalues --    0.25665   0.26109   0.26848   0.27204   0.27355
 Alpha virt. eigenvalues --    0.28702   0.30736   0.33455   0.34684   0.38249
 Alpha virt. eigenvalues --    0.38670   0.39381   0.40230   0.40411   0.41317
 Alpha virt. eigenvalues --    0.41447   0.42584   0.42746   0.43064   0.43461
 Alpha virt. eigenvalues --    0.43556   0.43776   0.44558   0.45099   0.45389
 Alpha virt. eigenvalues --    0.45613   0.46106   0.47279   0.48004   0.48612
 Alpha virt. eigenvalues --    0.49102   0.49559   0.49869   0.50370   0.50657
 Alpha virt. eigenvalues --    0.51190   0.51798   0.52546   0.53217   0.53450
 Alpha virt. eigenvalues --    0.53707   0.53804   0.54356   0.55062   0.55702
 Alpha virt. eigenvalues --    0.55834   0.56446   0.56673   0.57121   0.57941
 Alpha virt. eigenvalues --    0.58294   0.58874   0.59310   0.60424   0.61036
 Alpha virt. eigenvalues --    0.61686   0.62639   0.62890   0.63979   0.64437
 Alpha virt. eigenvalues --    0.65128   0.65359   0.67066   0.67324   0.67833
 Alpha virt. eigenvalues --    0.68260   0.69142   0.70057   0.71249   0.71816
 Alpha virt. eigenvalues --    0.72033   0.72673   0.73210   0.73453   0.73965
 Alpha virt. eigenvalues --    0.74240   0.74416   0.75070   0.75444   0.75742
 Alpha virt. eigenvalues --    0.75976   0.76041   0.76994   0.77181   0.77486
 Alpha virt. eigenvalues --    0.77764   0.78892   0.79131   0.80182   0.80863
 Alpha virt. eigenvalues --    0.80936   0.81764   0.81856   0.82149   0.82690
 Alpha virt. eigenvalues --    0.83356   0.84123   0.84416   0.84685   0.84821
 Alpha virt. eigenvalues --    0.85264   0.85985   0.86609   0.87292   0.87618
 Alpha virt. eigenvalues --    0.87860   0.88317   0.88762   0.89155   0.90065
 Alpha virt. eigenvalues --    0.90814   0.91476   0.91894   0.92721   0.93662
 Alpha virt. eigenvalues --    0.94173   0.95651   0.96718   0.97149   0.98580
 Alpha virt. eigenvalues --    0.99001   1.00385   1.01231   1.01773   1.02172
 Alpha virt. eigenvalues --    1.02437   1.04072   1.05561   1.06318   1.07307
 Alpha virt. eigenvalues --    1.07956   1.08778   1.10605   1.11320   1.11815
 Alpha virt. eigenvalues --    1.12609   1.13324   1.14479   1.14975   1.16440
 Alpha virt. eigenvalues --    1.16967   1.17452   1.18226   1.20352   1.21198
 Alpha virt. eigenvalues --    1.21918   1.22184   1.23051   1.24740   1.25030
 Alpha virt. eigenvalues --    1.26555   1.28638   1.28884   1.30486   1.31361
 Alpha virt. eigenvalues --    1.31957   1.34502   1.35215   1.35619   1.36091
 Alpha virt. eigenvalues --    1.37002   1.37892   1.38553   1.38888   1.40457
 Alpha virt. eigenvalues --    1.40837   1.42583   1.42628   1.43265   1.44695
 Alpha virt. eigenvalues --    1.45082   1.46848   1.47827   1.49018   1.50991
 Alpha virt. eigenvalues --    1.52613   1.53533   1.55848   1.57203   1.58474
 Alpha virt. eigenvalues --    1.58902   1.59747   1.60600   1.61091   1.63024
 Alpha virt. eigenvalues --    1.64462   1.64557   1.65067   1.65724   1.66697
 Alpha virt. eigenvalues --    1.67357   1.67898   1.68768   1.70205   1.70781
 Alpha virt. eigenvalues --    1.71418   1.72334   1.72707   1.72962   1.73455
 Alpha virt. eigenvalues --    1.74313   1.76128   1.76812   1.77246   1.77914
 Alpha virt. eigenvalues --    1.78255   1.78738   1.79159   1.79949   1.80620
 Alpha virt. eigenvalues --    1.81290   1.82382   1.83095   1.84263   1.84684
 Alpha virt. eigenvalues --    1.86051   1.86364   1.87002   1.87470   1.88108
 Alpha virt. eigenvalues --    1.88907   1.89621   1.89994   1.90103   1.90844
 Alpha virt. eigenvalues --    1.91412   1.92321   1.93021   1.94369   1.94744
 Alpha virt. eigenvalues --    1.95686   1.97009   1.97424   1.97832   1.98303
 Alpha virt. eigenvalues --    1.99142   2.00706   2.02518   2.03205   2.03300
 Alpha virt. eigenvalues --    2.04316   2.05128   2.05755   2.05922   2.07404
 Alpha virt. eigenvalues --    2.07643   2.08240   2.09009   2.11678   2.12149
 Alpha virt. eigenvalues --    2.13252   2.14816   2.16186   2.16851   2.17970
 Alpha virt. eigenvalues --    2.18456   2.19218   2.20681   2.22210   2.22705
 Alpha virt. eigenvalues --    2.22892   2.24679   2.25293   2.26639   2.27827
 Alpha virt. eigenvalues --    2.28428   2.28743   2.29796   2.30701   2.32455
 Alpha virt. eigenvalues --    2.32672   2.34103   2.34798   2.36198   2.37475
 Alpha virt. eigenvalues --    2.38006   2.39639   2.41087   2.41857   2.42994
 Alpha virt. eigenvalues --    2.43949   2.44860   2.46626   2.46843   2.48468
 Alpha virt. eigenvalues --    2.49565   2.50158   2.51802   2.52216   2.53611
 Alpha virt. eigenvalues --    2.53749   2.55617   2.56458   2.57084   2.57986
 Alpha virt. eigenvalues --    2.59813   2.60702   2.61302   2.62236   2.63805
 Alpha virt. eigenvalues --    2.66252   2.67435   2.69107   2.69684   2.70541
 Alpha virt. eigenvalues --    2.74177   2.76952   2.77945   2.80801   2.81717
 Alpha virt. eigenvalues --    2.85455   2.87187   2.88265   2.91171   2.92565
 Alpha virt. eigenvalues --    2.93121   2.94859   2.97798   3.03263   3.04042
 Alpha virt. eigenvalues --    3.08589   3.10846   3.33059   3.67389   3.75946
 Alpha virt. eigenvalues --    3.77991   3.86607   3.88748   3.91154   3.94478
 Alpha virt. eigenvalues --    3.99029   4.03227   4.03748   4.04567   4.05629
 Alpha virt. eigenvalues --    4.11709   4.14183   4.17494   4.18279   4.20240
 Alpha virt. eigenvalues --    4.21118   4.23680   4.25421   4.27291   4.29383
 Alpha virt. eigenvalues --    4.35496   4.37366   4.40073   4.42401   4.51142
 Alpha virt. eigenvalues --    4.57307   4.62856   4.63925   4.67073
          Condensed to atoms (all electrons):
 Mulliken charges:
               1
     1  N   -0.772650
     2  C   -0.088778
     3  C    0.653493
     4  O   -0.529090
     5  C   -0.398965
     6  C    0.122706
     7  C   -0.215869
     8  C   -0.188717
     9  C   -0.190681
    10  C   -0.154870
    11  C    0.358177
    12  O   -0.625845
    13  H    0.462580
    14  H    0.205577
    15  H    0.165386
    16  H    0.193580
    17  H    0.166509
    18  H    0.136301
    19  H    0.143636
    20  H    0.164194
    21  H    0.418577
    22  H    0.401716
    23  H    0.387742
    24  N   -0.656747
    25  C    0.001778
    26  C    0.626917
    27  O   -0.594130
    28  C   -0.129355
    29  C   -0.469315
    30  C   -0.447896
    31  H    0.354951
    32  H    0.195651
    33  H    0.155433
    34  H    0.135791
    35  H    0.177846
    36  H    0.162532
    37  H    0.161431
    38  H    0.165888
    39  H    0.157543
    40  N   -0.570077
    41  C   -0.072895
    42  C    0.608358
    43  O   -0.522261
    44  C   -0.268090
    45  C   -0.307291
    46  C   -0.149300
    47  N   -0.608689
    48  C    0.790100
    49  N   -0.760621
    50  N   -0.775903
    51  O   -0.674941
    52  H    0.359692
    53  H    0.158270
    54  H    0.166451
    55  H    0.169094
    56  H    0.164412
    57  H    0.175545
    58  H    0.184979
    59  H    0.167131
    60  H    0.404136
    61  H    0.379699
    62  H    0.382426
    63  H    0.366992
    64  H    0.419759
 Sum of Mulliken charges =   1.00000
 Mulliken charges with hydrogens summed into heavy atoms:
               1
     1  N    0.479388
     2  C    0.116799
     3  C    0.653493
     4  O   -0.529090
     5  C   -0.039999
     6  C    0.122706
     7  C   -0.049360
     8  C   -0.052416
     9  C   -0.047045
    10  C    0.009323
    11  C    0.358177
    12  O   -0.207268
    24  N   -0.301796
    25  C    0.197429
    26  C    0.626917
    27  O   -0.594130
    28  C    0.026079
    29  C    0.006854
    30  C    0.036966
    40  N   -0.210385
    41  C    0.085374
    42  C    0.608358
    43  O   -0.522261
    44  C    0.067455
    45  C    0.032667
    46  C    0.202810
    47  N   -0.204553
    48  C    0.790100
    49  N    0.001504
    50  N    0.010847
    51  O   -0.674941
 Electronic spatial extent (au):  <R**2>=        3297133.5025
 Charge=              1.0000 electrons
 Dipole moment (field-independent basis, Debye):
    X=            170.1239    Y=           -144.5606    Z=            209.8598  Tot=            306.4002
 Quadrupole moment (field-independent basis, Debye-Ang):
   XX=           5921.8819   YY=           4198.6679   ZZ=           9039.0505
   XY=          -5103.3965   XZ=           7474.7158   YZ=          -6305.6649
 Traceless Quadrupole moment (field-independent basis, Debye-Ang):
   XX=           -464.6515   YY=          -2187.8655   ZZ=           2652.5170
   XY=          -5103.3965   XZ=           7474.7158   YZ=          -6305.6649
 Octapole moment (field-independent basis, Debye-Ang**2):
  XXX=         203052.1874  YYY=        -116990.3126  ZZZ=         384295.5423  XYY=         147799.9588
  XXY=        -177042.2305  XXZ=         261899.3116  XZZ=         324098.0526  YZZ=        -270963.9778
  YYZ=         182929.3047  XYZ=        -223902.3117
 Hexadecapole moment (field-independent basis, Debye-Ang**3):
 XXXX=        6858903.6966 YYYY=        3083206.3639 ZZZZ=       16136057.4189 XXXY=       -6050813.4531
 XXXZ=        9048042.9374 YYYX=       -4108606.3479 YYYZ=       -5093551.6477 ZZZX=       13886651.6876
 ZZZY=      -11485075.7122 XXYY=        5106254.5021 XXZZ=       11436209.2308 YYZZ=        7840040.2177
 XXYZ=       -7820432.5138 YYXZ=        6478875.1684 ZZXY=       -9688346.6523
 N-N= 3.372968452377D+03 E-N=-1.018430991889D+04  KE= 1.472701822953D+03
 Unable to Open any file for archive entry.
 1\1\GINC-AMR-023\SP\RB3LYP\6-31G(d)\C20H33N6O5(1+)\KENGMITH\31-May-202
 2\0\\# B3LYP/6-31G* empiricaldispersion=gd3 guess=read geom=check nosy
 mm integral(ultrafinegrid)\\Candidate Structure: Conf:669 Charge calc 
 in gas phase\\1,1\N,0,31.6869470309,-31.8428802924,43.2285916968\C,0,3
 1.4959201255,-30.7178112063,42.2589734651\C,0,32.5788864103,-29.689417
 6028,42.6488263912\O,0,32.8476460305,-29.5176543217,43.8354815741\C,0,
 31.5545402369,-31.2658426787,40.8177928502\C,0,30.6324786746,-32.44813
 43247,40.6132931282\C,0,31.1213980718,-33.7556813504,40.7386213938\C,0
 ,29.2652709017,-32.2681154191,40.352355193\C,0,30.2732310895,-34.85481
 50676,40.6047718785\C,0,28.4097962807,-33.3544086212,40.2141051552\C,0
 ,28.9125201203,-34.6574421272,40.3392084123\O,0,28.025782431,-35.67703
 08386,40.1926824607\H,0,32.7111938643,-32.2908878654,42.9770023544\H,0
 ,30.515791458,-30.2654691599,42.4495724484\H,0,31.2772514378,-30.45184
 41586,40.1360449979\H,0,32.5873066324,-31.5583503306,40.6030568188\H,0
 ,32.1776886881,-33.9163991411,40.9446189843\H,0,28.8647456615,-31.2622
 495596,40.2432276133\H,0,30.6702684713,-35.8631961,40.6984903817\H,0,2
 7.3543306729,-33.2203446003,40.0017386375\H,0,28.482833726,-36.5291193
 638,40.2727473397\H,0,31.7594517317,-31.4757649672,44.1824772708\H,0,3
 0.937318308,-32.533001448,43.1560566111\N,0,33.2301466867,-29.03563879
 9,41.6543949011\C,0,34.3660061455,-28.16290027,41.9605114191\C,0,35.43
 08028914,-28.9205950182,42.7773467209\O,0,36.0814773238,-28.302600018,
 43.6436438389\C,0,34.9295983942,-27.5202873461,40.666955339\C,0,35.499
 408226,-28.5500386779,39.6777580063\C,0,35.9756183537,-26.4495787488,4
 1.007199987\H,0,32.995608788,-29.2127985986,40.6885057923\H,0,34.02664
 19254,-27.3694339314,42.6330246987\H,0,34.0736294297,-27.0187532907,40
 .1926642139\H,0,34.7733275832,-29.3217508332,39.3921530996\H,0,35.8134
 639978,-28.0491615159,38.7569968697\H,0,36.3730623906,-29.0592634039,4
 0.0989098564\H,0,35.56810873,-25.6916151,41.6841860433\H,0,36.30874143
 83,-25.9474558269,40.0936022304\H,0,36.8523580743,-26.8914412521,41.49
 19234157\N,0,35.619555113,-30.2182295392,42.4853972637\C,0,35.98016611
 33,-31.2306665872,43.4916673673\C,0,34.7609527793,-32.1847329272,43.63
 34471149\O,0,34.5369708868,-32.6958654947,44.7243002181\C,0,37.2568585
 904,-32.0049159605,43.133190274\C,0,38.5432896402,-31.169222993,43.030
 694821\C,0,39.090193729,-30.6249985,44.3597280456\N,0,38.2436461989,-2
 9.5403913011,44.8752298893\C,0,37.8848412555,-29.3477093989,46.1404467
 625\N,0,38.6006661943,-29.8563412175,47.1617672818\N,0,36.7751492558,-
 28.6378913655,46.402012903\O,0,34.0511311044,-32.3064943417,42.5495032
 875\H,0,34.967694974,-30.6275046655,41.8186202048\H,0,36.0806836832,-3
 0.73196705,44.4541363503\H,0,37.0891057389,-32.5059337323,42.172004088
 \H,0,37.3815991704,-32.7974831113,43.8818313474\H,0,38.3950291911,-30.
 3355796995,42.3306471706\H,0,39.3331043677,-31.7929081492,42.596370667
 7\H,0,40.1110622304,-30.2509030271,44.2176963063\H,0,39.1249011535,-31
 .4326587653,45.1009339024\H,0,37.646298842,-29.0429183441,44.199923810
 8\H,0,38.199578434,-29.9385490062,48.0844421987\H,0,39.4989966448,-30.
 2864989589,47.0037847699\H,0,36.6417910721,-28.1996198728,47.301562019
 3\H,0,36.2050944228,-28.3277670155,45.6151180559\\Version=ES64L-G16Rev
 C.01\HF=-1486.5942352\RMSD=8.041e-09\Dipole=2.5042482,1.3546095,2.0669
 62\Quadrupole=-345.4570386,-1626.6243749,1972.0814135,-3794.2502507,55
 57.26799,-4688.1073338\PG=C01 [X(C20H33N6O5)]\\@
 The archive entry for this job was punched.


 SIGN SEEN IN A RESTAURANT-
 WE RESERVE THE RIGHT TO SERVE REFUSE TO ANYONE.
 Job cpu time:       0 days  0 hours  1 minutes  6.4 seconds.
 Elapsed time:       0 days  0 hours  0 minutes 17.1 seconds.
 File lengths (MBytes):  RWF=    264 Int=      0 D2E=      0 Chk=     40 Scr=     16
 Normal termination of Gaussian 16 at Tue May 31 11:31:49 2022.
