 Entering Gaussian System, Link 0=/opt/software/Gaussian/g16-AVX2-C.01/g16/g16
 Input=charge-conf-950.com
 Output=charge-conf-950.log
 Initial command:
 /opt/software/Gaussian/g16-AVX2-C.01/g16/l1.exe "/mnt/gs18/scratch/users/kengmith/Gau-45260.inp" -scrdir="/mnt/gs18/scratch/users/kengmith/"
 Entering Link 1 = /opt/software/Gaussian/g16-AVX2-C.01/g16/l1.exe PID=     45271.
  
 Copyright (c) 1988-2019, Gaussian, Inc.  All Rights Reserved.
  
 This is part of the Gaussian(R) 16 program.  It is based on
 the Gaussian(R) 09 system (copyright 2009, Gaussian, Inc.),
 the Gaussian(R) 03 system (copyright 2003, Gaussian, Inc.),
 the Gaussian(R) 98 system (copyright 1998, Gaussian, Inc.),
 the Gaussian(R) 94 system (copyright 1995, Gaussian, Inc.),
 the Gaussian 92(TM) system (copyright 1992, Gaussian, Inc.),
 the Gaussian 90(TM) system (copyright 1990, Gaussian, Inc.),
 the Gaussian 88(TM) system (copyright 1988, Gaussian, Inc.),
 the Gaussian 86(TM) system (copyright 1986, Carnegie Mellon
 University), and the Gaussian 82(TM) system (copyright 1983,
 Carnegie Mellon University). Gaussian is a federally registered
 trademark of Gaussian, Inc.
  
 This software contains proprietary and confidential information,
 including trade secrets, belonging to Gaussian, Inc.
  
 This software is provided under written license and may be
 used, copied, transmitted, or stored only in accord with that
 written license.
  
 The following legend is applicable only to US Government
 contracts under FAR:
  
                    RESTRICTED RIGHTS LEGEND
  
 Use, reproduction and disclosure by the US Government is
 subject to restrictions as set forth in subparagraphs (a)
 and (c) of the Commercial Computer Software - Restricted
 Rights clause in FAR 52.227-19.
  
 Gaussian, Inc.
 340 Quinnipiac St., Bldg. 40, Wallingford CT 06492
  
  
 ---------------------------------------------------------------
 Warning -- This program may not be used in any manner that
 competes with the business of Gaussian, Inc. or will provide
 assistance to any competitor of Gaussian, Inc.  The licensee
 of this program is prohibited from giving any competitor of
 Gaussian, Inc. access to this program.  By using this program,
 the user acknowledges that Gaussian, Inc. is engaged in the
 business of creating and licensing software in the field of
 computational chemistry and represents and warrants to the
 licensee that it is not a competitor of Gaussian, Inc. and that
 it will not use this program in any manner prohibited above.
 ---------------------------------------------------------------
  

 Cite this work as:
 Gaussian 16, Revision C.01,
 M. J. Frisch, G. W. Trucks, H. B. Schlegel, G. E. Scuseria, 
 M. A. Robb, J. R. Cheeseman, G. Scalmani, V. Barone, 
 G. A. Petersson, H. Nakatsuji, X. Li, M. Caricato, A. V. Marenich, 
 J. Bloino, B. G. Janesko, R. Gomperts, B. Mennucci, H. P. Hratchian, 
 J. V. Ortiz, A. F. Izmaylov, J. L. Sonnenberg, D. Williams-Young, 
 F. Ding, F. Lipparini, F. Egidi, J. Goings, B. Peng, A. Petrone, 
 T. Henderson, D. Ranasinghe, V. G. Zakrzewski, J. Gao, N. Rega, 
 G. Zheng, W. Liang, M. Hada, M. Ehara, K. Toyota, R. Fukuda, 
 J. Hasegawa, M. Ishida, T. Nakajima, Y. Honda, O. Kitao, H. Nakai, 
 T. Vreven, K. Throssell, J. A. Montgomery, Jr., J. E. Peralta, 
 F. Ogliaro, M. J. Bearpark, J. J. Heyd, E. N. Brothers, K. N. Kudin, 
 V. N. Staroverov, T. A. Keith, R. Kobayashi, J. Normand, 
 K. Raghavachari, A. P. Rendell, J. C. Burant, S. S. Iyengar, 
 J. Tomasi, M. Cossi, J. M. Millam, M. Klene, C. Adamo, R. Cammi, 
 J. W. Ochterski, R. L. Martin, K. Morokuma, O. Farkas, 
 J. B. Foresman, and D. J. Fox, Gaussian, Inc., Wallingford CT, 2019.
 
 ******************************************
 Gaussian 16:  ES64L-G16RevC.01  3-Jul-2019
                31-May-2022 
 ******************************************
 %mem=8gb
 %nproc=4
 Will use up to    4 processors via shared memory.
 %chk=conf-950.chk
 ----------------------------------------------------------------------
 # B3LYP/6-31G* empiricaldispersion=gd3 guess=read geom=check nosymm in
 tegral(ultrafinegrid)
 ----------------------------------------------------------------------
 1/29=2,38=1,172=1/1;
 2/12=2,15=1,40=1/2;
 3/5=1,6=6,7=1,11=2,14=-4,25=1,30=1,74=-5,75=-5,116=-2,124=31/1,2,3;
 4/5=1/1;
 5/5=2,38=6/2;
 6/7=2,8=2,9=2,10=2,28=1/1;
 99/5=1,9=1/99;
 ------------------------------------------------------
 Candidate Structure: Conf:950 Charge calc in gas phase
 ------------------------------------------------------
 Structure from the checkpoint file:  "conf-950.chk"
 Charge =  1 Multiplicity = 1
 Redundant internal coordinates found in file.  (old form).
 N,0,34.5397355267,-30.5976690457,39.9406299203
 C,0,33.0949708179,-30.8425180823,40.2728643796
 C,0,33.1117293476,-31.8944188944,41.3979985119
 O,0,34.032425155,-32.7061281375,41.4550112026
 C,0,32.3635461395,-29.5169041527,40.5787868615
 C,0,32.7042709729,-28.4291692251,39.5838719075
 C,0,33.6834283828,-27.4768284089,39.9029692171
 C,0,32.1043444479,-28.378142766,38.3158119045
 C,0,34.0482850296,-26.4948327517,38.9821612327
 C,0,32.4595533688,-27.4027644052,37.3911453071
 C,0,33.435546523,-26.4525575165,37.7235957792
 O,0,33.7395186014,-25.5236419485,36.7775774244
 H,0,35.1593497612,-30.2569533166,40.8292465123
 H,0,32.6458348925,-31.3071759847,39.3863183328
 H,0,31.2863998327,-29.7279561443,40.5546846536
 H,0,32.6407646874,-29.1895593933,41.5831393735
 H,0,34.1562993025,-27.5127215105,40.882038339
 H,0,31.3358379531,-29.102425794,38.0521817331
 H,0,34.8033103455,-25.7568720578,39.2451218071
 H,0,31.9905218629,-27.3501162,36.4141895998
 H,0,34.3964420711,-24.9005156552,37.1260703194
 H,0,34.9742734687,-31.4808667746,39.6616959785
 H,0,34.6081079919,-29.9091027014,39.186059037
 N,0,32.1038360817,-31.8743471936,42.3080454349
 C,0,32.1692189244,-32.7524861636,43.4805484299
 C,0,33.4944363252,-32.5104061877,44.2344625919
 O,0,34.1574312819,-33.4796612605,44.6470631955
 C,0,30.9032628429,-32.616169003,44.3615767925
 C,0,30.7039729838,-31.2109214022,44.9530724889
 C,0,30.9181245536,-33.6769098083,45.4716696156
 H,0,31.3974504321,-31.1532736355,42.2686750819
 H,0,32.2464190441,-33.7856329157,43.1308926093
 H,0,30.0582611155,-32.832278055,43.6926509566
 H,0,29.7456694507,-31.1626081101,45.4789549056
 H,0,31.4914268661,-30.9700431826,45.6755577286
 H,0,30.6907263248,-30.4172787961,44.194762828
 H,0,31.7540861747,-33.5161543717,46.1616620626
 H,0,31.0141556969,-34.6873428862,45.0609075298
 H,0,29.990311859,-33.6307566875,46.0500819208
 N,0,33.8688418662,-31.2273047694,44.400245102
 C,0,35.2641720326,-30.7492288944,44.269875343
 C,0,35.1998842344,-29.8776449846,42.9799021816
 O,0,35.9628952438,-30.2301094237,42.0266278358
 C,0,35.7289688485,-29.9559246755,45.4948407223
 C,0,35.7176779211,-30.715135401,46.8313875958
 C,0,36.7725869985,-31.8228389072,46.978237424
 N,0,36.4461415611,-32.9789664031,46.1320806972
 C,0,37.3009547043,-33.7070855433,45.4217908358
 N,0,38.6137609294,-33.7375546789,45.7225221867
 N,0,36.8474901129,-34.404712422,44.3671222723
 O,0,34.3152158197,-28.9969365008,42.9611192544
 H,0,33.2355540132,-30.5169885146,44.0413784884
 H,0,35.898240429,-31.609965152,44.065847117
 H,0,35.0799516857,-29.0766974274,45.5783635676
 H,0,36.7397169153,-29.5776447132,45.2901774439
 H,0,34.7204363624,-31.1386854451,47.0120337113
 H,0,35.8954734186,-30.0001807934,47.642906961
 H,0,36.8314494681,-32.1447893188,48.0249104254
 H,0,37.7569662436,-31.4371198968,46.6864421103
 H,0,35.4651780833,-33.0983432273,45.8411132813
 H,0,39.2880446918,-34.1209016801,45.0769740904
 H,0,38.9554971252,-33.3818514896,46.6020995439
 H,0,37.360348205,-35.1996862701,44.0148710209
 H,0,35.8663068765,-34.3026360613,44.1063967807
 Recover connectivity data from disk.
                           ----------------------------
                           !    Current Parameters    !
                           ! (Angstroms and Degrees)  !
 --------------------------                            --------------------------
 ! Name  Definition              Value                                          !
 --------------------------------------------------------------------------------
 ! R1    R(1,2)                  1.5026                                         !
 ! R2    R(1,13)                 1.1356                                         !
 ! R3    R(1,22)                 1.0231                                         !
 ! R4    R(1,23)                 1.0238                                         !
 ! R5    R(2,3)                  1.5404                                         !
 ! R6    R(2,5)                  1.5446                                         !
 ! R7    R(2,14)                 1.0971                                         !
 ! R8    R(3,4)                  1.2287                                         !
 ! R9    R(3,24)                 1.3581                                         !
 ! R10   R(5,6)                  1.513                                          !
 ! R11   R(5,15)                 1.0979                                         !
 ! R12   R(5,16)                 1.0921                                         !
 ! R13   R(6,7)                  1.4027                                         !
 ! R14   R(6,8)                  1.4037                                         !
 ! R15   R(7,9)                  1.3947                                         !
 ! R16   R(7,17)                 1.0879                                         !
 ! R17   R(8,10)                 1.3902                                         !
 ! R18   R(8,18)                 1.0884                                         !
 ! R19   R(9,11)                 1.4004                                         !
 ! R20   R(9,19)                 1.088                                          !
 ! R21   R(10,11)                1.4021                                         !
 ! R22   R(10,20)                1.085                                          !
 ! R23   R(11,12)                1.3602                                         !
 ! R24   R(12,21)                0.9702                                         !
 ! R25   R(24,25)                1.4663                                         !
 ! R26   R(24,31)                1.0102                                         !
 ! R27   R(25,26)                1.5438                                         !
 ! R28   R(25,28)                1.5484                                         !
 ! R29   R(25,32)                1.0934                                         !
 ! R30   R(26,27)                1.2447                                         !
 ! R31   R(26,40)                1.3469                                         !
 ! R32   R(28,29)                1.5376                                         !
 ! R33   R(28,30)                1.5355                                         !
 ! R34   R(28,33)                1.0992                                         !
 ! R35   R(29,34)                1.0942                                         !
 ! R36   R(29,35)                1.0955                                         !
 ! R37   R(29,36)                1.0978                                         !
 ! R38   R(30,37)                1.0958                                         !
 ! R39   R(30,38)                1.095                                          !
 ! R40   R(30,39)                1.0943                                         !
 ! R41   R(40,41)                1.4807                                         !
 ! R42   R(40,52)                1.017                                          !
 ! R43   R(41,42)                1.5581                                         !
 ! R44   R(41,44)                1.5316                                         !
 ! R45   R(41,53)                1.0884                                         !
 ! R46   R(42,43)                1.2709                                         !
 ! R47   R(42,51)                1.2485                                         !
 ! R48   R(44,45)                1.5372                                         !
 ! R49   R(44,54)                1.096                                          !
 ! R50   R(44,55)                1.0985                                         !
 ! R51   R(45,46)                1.5367                                         !
 ! R52   R(45,56)                1.0984                                         !
 ! R53   R(45,57)                1.0961                                         !
 ! R54   R(46,47)                1.4694                                         !
 ! R55   R(46,58)                1.0967                                         !
 ! R56   R(46,59)                1.0968                                         !
 ! R57   R(47,48)                1.3287                                         !
 ! R58   R(47,60)                1.0301                                         !
 ! R59   R(48,49)                1.3472                                         !
 ! R60   R(48,50)                1.3434                                         !
 ! R61   R(49,61)                1.0091                                         !
 ! R62   R(49,62)                1.0084                                         !
 ! R63   R(50,63)                1.0095                                         !
 ! R64   R(50,64)                1.0204                                         !
 ! A1    A(2,1,13)             113.6095                                         !
 ! A2    A(2,1,22)             109.1482                                         !
 ! A3    A(2,1,23)             109.6806                                         !
 ! A4    A(13,1,22)            103.9222                                         !
 ! A5    A(13,1,23)            109.7852                                         !
 ! A6    A(22,1,23)            110.5666                                         !
 ! A7    A(1,2,3)              105.2083                                         !
 ! A8    A(1,2,5)              111.0549                                         !
 ! A9    A(1,2,14)             106.498                                          !
 ! A10   A(3,2,5)              116.5229                                         !
 ! A11   A(3,2,14)             107.7872                                         !
 ! A12   A(5,2,14)             109.2492                                         !
 ! A13   A(2,3,4)              119.5488                                         !
 ! A14   A(2,3,24)             118.1181                                         !
 ! A15   A(4,3,24)             122.3272                                         !
 ! A16   A(2,5,6)              112.3413                                         !
 ! A17   A(2,5,15)             107.173                                          !
 ! A18   A(2,5,16)             108.6132                                         !
 ! A19   A(6,5,15)             110.1643                                         !
 ! A20   A(6,5,16)             109.3954                                         !
 ! A21   A(15,5,16)            109.0775                                         !
 ! A22   A(5,6,7)              119.7175                                         !
 ! A23   A(5,6,8)              121.5951                                         !
 ! A24   A(7,6,8)              118.6303                                         !
 ! A25   A(6,7,9)              120.6931                                         !
 ! A26   A(6,7,17)             119.0626                                         !
 ! A27   A(9,7,17)             120.2443                                         !
 ! A28   A(6,8,10)             121.1421                                         !
 ! A29   A(6,8,18)             119.7599                                         !
 ! A30   A(10,8,18)            119.0908                                         !
 ! A31   A(7,9,11)             120.0075                                         !
 ! A32   A(7,9,19)             119.9675                                         !
 ! A33   A(11,9,19)            120.0232                                         !
 ! A34   A(8,10,11)            119.7116                                         !
 ! A35   A(8,10,20)            121.5007                                         !
 ! A36   A(11,10,20)           118.7846                                         !
 ! A37   A(9,11,10)            119.8138                                         !
 ! A38   A(9,11,12)            123.2207                                         !
 ! A39   A(10,11,12)           116.9652                                         !
 ! A40   A(11,12,21)           109.8834                                         !
 ! A41   A(3,24,25)            119.5951                                         !
 ! A42   A(3,24,31)            120.2239                                         !
 ! A43   A(25,24,31)           119.3282                                         !
 ! A44   A(24,25,26)           109.5645                                         !
 ! A45   A(24,25,28)           111.457                                          !
 ! A46   A(24,25,32)           108.2578                                         !
 ! A47   A(26,25,28)           114.216                                          !
 ! A48   A(26,25,32)           104.1064                                         !
 ! A49   A(28,25,32)           108.8362                                         !
 ! A50   A(25,26,27)           119.8036                                         !
 ! A51   A(25,26,40)           116.624                                          !
 ! A52   A(27,26,40)           123.5716                                         !
 ! A53   A(25,28,29)           113.9108                                         !
 ! A54   A(25,28,30)           110.0376                                         !
 ! A55   A(25,28,33)           105.3642                                         !
 ! A56   A(29,28,30)           110.7622                                         !
 ! A57   A(29,28,33)           108.3095                                         !
 ! A58   A(30,28,33)           108.1551                                         !
 ! A59   A(28,29,34)           109.8008                                         !
 ! A60   A(28,29,35)           111.1916                                         !
 ! A61   A(28,29,36)           113.3631                                         !
 ! A62   A(34,29,35)           107.6301                                         !
 ! A63   A(34,29,36)           106.8286                                         !
 ! A64   A(35,29,36)           107.7752                                         !
 ! A65   A(28,30,37)           111.1781                                         !
 ! A66   A(28,30,38)           111.5388                                         !
 ! A67   A(28,30,39)           110.1688                                         !
 ! A68   A(37,30,38)           107.7394                                         !
 ! A69   A(37,30,39)           107.9267                                         !
 ! A70   A(38,30,39)           108.1535                                         !
 ! A71   A(26,40,41)           123.9664                                         !
 ! A72   A(26,40,52)           116.6683                                         !
 ! A73   A(41,40,52)           109.2813                                         !
 ! A74   A(40,41,42)           102.393                                          !
 ! A75   A(40,41,44)           112.5059                                         !
 ! A76   A(40,41,53)           108.0688                                         !
 ! A77   A(42,41,44)           112.6389                                         !
 ! A78   A(42,41,53)           108.1327                                         !
 ! A79   A(44,41,53)           112.5043                                         !
 ! A80   A(41,42,43)           116.173                                          !
 ! A81   A(41,42,51)           115.8677                                         !
 ! A82   A(43,42,51)           127.5746                                         !
 ! A83   A(41,44,45)           115.935                                          !
 ! A84   A(41,44,54)           107.2623                                         !
 ! A85   A(41,44,55)           107.9742                                         !
 ! A86   A(45,44,54)           109.002                                          !
 ! A87   A(45,44,55)           109.8068                                         !
 ! A88   A(54,44,55)           106.4287                                         !
 ! A89   A(44,45,46)           115.7263                                         !
 ! A90   A(44,45,56)           109.8838                                         !
 ! A91   A(44,45,57)           108.6874                                         !
 ! A92   A(46,45,56)           109.2432                                         !
 ! A93   A(46,45,57)           106.7437                                         !
 ! A94   A(56,45,57)           106.0832                                         !
 ! A95   A(45,46,47)           111.0765                                         !
 ! A96   A(45,46,58)           109.8571                                         !
 ! A97   A(45,46,59)           109.7063                                         !
 ! A98   A(47,46,58)           109.3018                                         !
 ! A99   A(47,46,59)           108.838                                          !
 ! A100  A(58,46,59)           107.9987                                         !
 ! A101  A(46,47,48)           126.5895                                         !
 ! A102  A(46,47,60)           117.7348                                         !
 ! A103  A(48,47,60)           113.4621                                         !
 ! A104  A(47,48,49)           121.333                                          !
 ! A105  A(47,48,50)           119.151                                          !
 ! A106  A(49,48,50)           119.5027                                         !
 ! A107  A(48,49,61)           121.1267                                         !
 ! A108  A(48,49,62)           121.1287                                         !
 ! A109  A(61,49,62)           117.744                                          !
 ! A110  A(48,50,63)           120.7579                                         !
 ! A111  A(48,50,64)           118.246                                          !
 ! A112  A(63,50,64)           118.5646                                         !
 ! D1    D(13,1,2,3)           -57.3008                                         !
 ! D2    D(13,1,2,5)            69.6063                                         !
 ! D3    D(13,1,2,14)         -171.5482                                         !
 ! D4    D(22,1,2,3)            58.1495                                         !
 ! D5    D(22,1,2,5)          -174.9434                                         !
 ! D6    D(22,1,2,14)          -56.0979                                         !
 ! D7    D(23,1,2,3)           179.4236                                         !
 ! D8    D(23,1,2,5)           -53.6693                                         !
 ! D9    D(23,1,2,14)           65.1762                                         !
 ! D10   D(1,2,3,4)            -29.3183                                         !
 ! D11   D(1,2,3,24)           149.8185                                         !
 ! D12   D(5,2,3,4)           -152.8066                                         !
 ! D13   D(5,2,3,24)            26.3302                                         !
 ! D14   D(14,2,3,4)            84.0274                                         !
 ! D15   D(14,2,3,24)          -96.8358                                         !
 ! D16   D(1,2,5,6)             44.5009                                         !
 ! D17   D(1,2,5,15)           165.6377                                         !
 ! D18   D(1,2,5,16)           -76.6481                                         !
 ! D19   D(3,2,5,6)            164.9177                                         !
 ! D20   D(3,2,5,15)           -73.9455                                         !
 ! D21   D(3,2,5,16)            43.7687                                         !
 ! D22   D(14,2,5,6)           -72.6766                                         !
 ! D23   D(14,2,5,15)           48.4603                                         !
 ! D24   D(14,2,5,16)          166.1744                                         !
 ! D25   D(2,3,24,25)         -172.7338                                         !
 ! D26   D(2,3,24,31)           -3.3752                                         !
 ! D27   D(4,3,24,25)            6.3776                                         !
 ! D28   D(4,3,24,31)          175.7361                                         !
 ! D29   D(2,5,6,7)            -97.7804                                         !
 ! D30   D(2,5,6,8)             79.4319                                         !
 ! D31   D(15,5,6,7)           142.8145                                         !
 ! D32   D(15,5,6,8)           -39.9731                                         !
 ! D33   D(16,5,6,7)            22.9189                                         !
 ! D34   D(16,5,6,8)          -159.8688                                         !
 ! D35   D(5,6,7,9)            177.6442                                         !
 ! D36   D(5,6,7,17)            -2.421                                          !
 ! D37   D(8,6,7,9)              0.3494                                         !
 ! D38   D(8,6,7,17)          -179.7158                                         !
 ! D39   D(5,6,8,10)          -177.6625                                         !
 ! D40   D(5,6,8,18)             3.3249                                         !
 ! D41   D(7,6,8,10)            -0.4208                                         !
 ! D42   D(7,6,8,18)          -179.4334                                         !
 ! D43   D(6,7,9,11)            -0.0132                                         !
 ! D44   D(6,7,9,19)           179.492                                          !
 ! D45   D(17,7,9,11)         -179.9472                                         !
 ! D46   D(17,7,9,19)           -0.4421                                         !
 ! D47   D(6,8,10,11)            0.1529                                         !
 ! D48   D(6,8,10,20)         -179.2017                                         !
 ! D49   D(18,8,10,11)         179.1719                                         !
 ! D50   D(18,8,10,20)          -0.1826                                         !
 ! D51   D(7,9,11,10)           -0.261                                          !
 ! D52   D(7,9,11,12)          179.9108                                         !
 ! D53   D(19,9,11,10)        -179.7659                                         !
 ! D54   D(19,9,11,12)           0.4059                                         !
 ! D55   D(8,10,11,9)            0.1918                                         !
 ! D56   D(8,10,11,12)        -179.9694                                         !
 ! D57   D(20,10,11,9)         179.5639                                         !
 ! D58   D(20,10,11,12)         -0.5974                                         !
 ! D59   D(9,11,12,21)          -2.3923                                         !
 ! D60   D(10,11,12,21)        177.775                                          !
 ! D61   D(3,24,25,26)          54.7486                                         !
 ! D62   D(3,24,25,28)        -177.849                                          !
 ! D63   D(3,24,25,32)         -58.1817                                         !
 ! D64   D(31,24,25,26)       -114.7058                                         !
 ! D65   D(31,24,25,28)         12.6966                                         !
 ! D66   D(31,24,25,32)        132.3639                                         !
 ! D67   D(24,25,26,27)       -136.0561                                         !
 ! D68   D(24,25,26,40)         43.6241                                         !
 ! D69   D(28,25,26,27)         98.105                                          !
 ! D70   D(28,25,26,40)        -82.2147                                         !
 ! D71   D(32,25,26,27)        -20.4529                                         !
 ! D72   D(32,25,26,40)        159.2274                                         !
 ! D73   D(24,25,28,29)        -62.4325                                         !
 ! D74   D(24,25,28,30)        172.5061                                         !
 ! D75   D(24,25,28,33)         56.1356                                         !
 ! D76   D(26,25,28,29)         62.4079                                         !
 ! D77   D(26,25,28,30)        -62.6535                                         !
 ! D78   D(26,25,28,33)       -179.024                                          !
 ! D79   D(32,25,28,29)        178.2433                                         !
 ! D80   D(32,25,28,30)         53.1818                                         !
 ! D81   D(32,25,28,33)        -63.1886                                         !
 ! D82   D(25,26,40,41)       -139.7876                                         !
 ! D83   D(25,26,40,52)          1.8302                                         !
 ! D84   D(27,26,40,41)         39.8794                                         !
 ! D85   D(27,26,40,52)       -178.5028                                         !
 ! D86   D(25,28,29,34)        174.478                                          !
 ! D87   D(25,28,29,35)        -66.5201                                         !
 ! D88   D(25,28,29,36)         55.0907                                         !
 ! D89   D(30,28,29,34)        -60.8474                                         !
 ! D90   D(30,28,29,35)         58.1545                                         !
 ! D91   D(30,28,29,36)        179.7653                                         !
 ! D92   D(33,28,29,34)         57.6063                                         !
 ! D93   D(33,28,29,35)        176.6083                                         !
 ! D94   D(33,28,29,36)        -61.781                                          !
 ! D95   D(25,28,30,37)         64.5592                                         !
 ! D96   D(25,28,30,38)        -55.7194                                         !
 ! D97   D(25,28,30,39)       -175.8392                                         !
 ! D98   D(29,28,30,37)        -62.2862                                         !
 ! D99   D(29,28,30,38)        177.4352                                         !
 ! D100  D(29,28,30,39)         57.3154                                         !
 ! D101  D(33,28,30,37)        179.1664                                         !
 ! D102  D(33,28,30,38)         58.8878                                         !
 ! D103  D(33,28,30,39)        -61.232                                          !
 ! D104  D(26,40,41,42)        111.708                                          !
 ! D105  D(26,40,41,44)       -127.118                                          !
 ! D106  D(26,40,41,53)         -2.2999                                         !
 ! D107  D(52,40,41,42)        -32.2893                                         !
 ! D108  D(52,40,41,44)         88.8847                                         !
 ! D109  D(52,40,41,53)       -146.2972                                         !
 ! D110  D(40,41,42,43)       -120.7057                                         !
 ! D111  D(40,41,42,51)         52.7218                                         !
 ! D112  D(44,41,42,43)        118.2118                                         !
 ! D113  D(44,41,42,51)        -68.3606                                         !
 ! D114  D(53,41,42,43)         -6.7448                                         !
 ! D115  D(53,41,42,51)        166.6827                                         !
 ! D116  D(40,41,44,45)         60.4013                                         !
 ! D117  D(40,41,44,54)        -61.6221                                         !
 ! D118  D(40,41,44,55)       -175.9634                                         !
 ! D119  D(42,41,44,45)        175.5206                                         !
 ! D120  D(42,41,44,54)         53.4971                                         !
 ! D121  D(42,41,44,55)        -60.8441                                         !
 ! D122  D(53,41,44,45)        -61.9466                                         !
 ! D123  D(53,41,44,54)        176.0299                                         !
 ! D124  D(53,41,44,55)         61.6887                                         !
 ! D125  D(41,44,45,46)         69.8978                                         !
 ! D126  D(41,44,45,56)        -54.3866                                         !
 ! D127  D(41,44,45,57)       -170.0652                                         !
 ! D128  D(54,44,45,46)       -169.0063                                         !
 ! D129  D(54,44,45,56)         66.7093                                         !
 ! D130  D(54,44,45,57)        -48.9693                                         !
 ! D131  D(55,44,45,46)        -52.7775                                         !
 ! D132  D(55,44,45,56)       -177.0619                                         !
 ! D133  D(55,44,45,57)         67.2595                                         !
 ! D134  D(44,45,46,47)        -71.5124                                         !
 ! D135  D(44,45,46,58)        167.4353                                         !
 ! D136  D(44,45,46,59)         48.8595                                         !
 ! D137  D(56,45,46,47)         53.1039                                         !
 ! D138  D(56,45,46,58)        -67.9485                                         !
 ! D139  D(56,45,46,59)        173.4757                                         !
 ! D140  D(57,45,46,47)        167.3991                                         !
 ! D141  D(57,45,46,58)         46.3467                                         !
 ! D142  D(57,45,46,59)        -72.2291                                         !
 ! D143  D(45,46,47,48)        139.6802                                         !
 ! D144  D(45,46,47,60)        -22.228                                          !
 ! D145  D(58,46,47,48)        -98.9414                                         !
 ! D146  D(58,46,47,60)         99.1504                                         !
 ! D147  D(59,46,47,48)         18.7956                                         !
 ! D148  D(59,46,47,60)       -143.1126                                         !
 ! D149  D(46,47,48,49)         21.7021                                         !
 ! D150  D(46,47,48,50)       -156.9657                                         !
 ! D151  D(60,47,48,49)       -175.7336                                         !
 ! D152  D(60,47,48,50)          5.5986                                         !
 ! D153  D(47,48,49,61)       -166.5817                                         !
 ! D154  D(47,48,49,62)         13.6971                                         !
 ! D155  D(50,48,49,61)         12.0815                                         !
 ! D156  D(50,48,49,62)       -167.6397                                         !
 ! D157  D(47,48,50,63)       -157.9948                                         !
 ! D158  D(47,48,50,64)          4.0595                                         !
 ! D159  D(49,48,50,63)         23.3127                                         !
 ! D160  D(49,48,50,64)       -174.6331                                         !
 --------------------------------------------------------------------------------
 Symmetry turned off by external request.
 Stoichiometry    C20H33N6O5(1+)
 Framework group  C1[X(C20H33N6O5)]
 Deg. of freedom   186
 Full point group                 C1      NOp   1
                          Input orientation:                          
 ---------------------------------------------------------------------
 Center     Atomic      Atomic             Coordinates (Angstroms)
 Number     Number       Type             X           Y           Z
 ---------------------------------------------------------------------
      1          7           0       34.539736  -30.597669   39.940630
      2          6           0       33.094971  -30.842518   40.272864
      3          6           0       33.111729  -31.894419   41.397999
      4          8           0       34.032425  -32.706128   41.455011
      5          6           0       32.363546  -29.516904   40.578787
      6          6           0       32.704271  -28.429169   39.583872
      7          6           0       33.683428  -27.476828   39.902969
      8          6           0       32.104344  -28.378143   38.315812
      9          6           0       34.048285  -26.494833   38.982161
     10          6           0       32.459553  -27.402764   37.391145
     11          6           0       33.435547  -26.452558   37.723596
     12          8           0       33.739519  -25.523642   36.777577
     13          1           0       35.159350  -30.256953   40.829247
     14          1           0       32.645835  -31.307176   39.386318
     15          1           0       31.286400  -29.727956   40.554685
     16          1           0       32.640765  -29.189559   41.583139
     17          1           0       34.156299  -27.512722   40.882038
     18          1           0       31.335838  -29.102426   38.052182
     19          1           0       34.803310  -25.756872   39.245122
     20          1           0       31.990522  -27.350116   36.414190
     21          1           0       34.396442  -24.900516   37.126070
     22          1           0       34.974273  -31.480867   39.661696
     23          1           0       34.608108  -29.909103   39.186059
     24          7           0       32.103836  -31.874347   42.308045
     25          6           0       32.169219  -32.752486   43.480548
     26          6           0       33.494436  -32.510406   44.234463
     27          8           0       34.157431  -33.479661   44.647063
     28          6           0       30.903263  -32.616169   44.361577
     29          6           0       30.703973  -31.210921   44.953072
     30          6           0       30.918125  -33.676910   45.471670
     31          1           0       31.397450  -31.153274   42.268675
     32          1           0       32.246419  -33.785633   43.130893
     33          1           0       30.058261  -32.832278   43.692651
     34          1           0       29.745669  -31.162608   45.478955
     35          1           0       31.491427  -30.970043   45.675558
     36          1           0       30.690726  -30.417279   44.194763
     37          1           0       31.754086  -33.516154   46.161662
     38          1           0       31.014156  -34.687343   45.060908
     39          1           0       29.990312  -33.630757   46.050082
     40          7           0       33.868842  -31.227305   44.400245
     41          6           0       35.264172  -30.749229   44.269875
     42          6           0       35.199884  -29.877645   42.979902
     43          8           0       35.962895  -30.230109   42.026628
     44          6           0       35.728969  -29.955925   45.494841
     45          6           0       35.717678  -30.715135   46.831388
     46          6           0       36.772587  -31.822839   46.978237
     47          7           0       36.446142  -32.978966   46.132081
     48          6           0       37.300955  -33.707086   45.421791
     49          7           0       38.613761  -33.737555   45.722522
     50          7           0       36.847490  -34.404712   44.367122
     51          8           0       34.315216  -28.996937   42.961119
     52          1           0       33.235554  -30.516989   44.041378
     53          1           0       35.898240  -31.609965   44.065847
     54          1           0       35.079952  -29.076697   45.578364
     55          1           0       36.739717  -29.577645   45.290177
     56          1           0       34.720436  -31.138685   47.012034
     57          1           0       35.895473  -30.000181   47.642907
     58          1           0       36.831449  -32.144789   48.024910
     59          1           0       37.756966  -31.437120   46.686442
     60          1           0       35.465178  -33.098343   45.841113
     61          1           0       39.288045  -34.120902   45.076974
     62          1           0       38.955497  -33.381851   46.602100
     63          1           0       37.360348  -35.199686   44.014871
     64          1           0       35.866307  -34.302636   44.106397
 ---------------------------------------------------------------------
 Rotational constants (GHZ):           0.2357122           0.0783282           0.0692197
 Standard basis: 6-31G(d) (6D, 7F)
   531 basis functions,  1000 primitive gaussians,   531 cartesian basis functions
   117 alpha electrons      117 beta electrons
       nuclear repulsion energy      3403.6203291379 Hartrees.
 NAtoms=   64 NActive=   64 NUniq=   64 SFac= 1.00D+00 NAtFMM=   60 NAOKFM=T Big=T
 Integral buffers will be    131072 words long.
 Raffenetti 2 integral format.
 Two-electron integral symmetry is turned off.
 Nuclear repulsion after empirical dispersion term =     3403.5318656029 Hartrees.
 One-electron integrals computed using PRISM.
 NBasis=   531 RedAO= T EigKep=  4.30D-04  NBF=   531
 NBsUse=   531 1.00D-06 EigRej= -1.00D+00 NBFU=   531
 Initial guess from the checkpoint file:  "conf-950.chk"
 B after Tr=     0.000000    0.000000    0.000000
         Rot=    1.000000    0.000000    0.000000    0.000000 Ang=   0.00 deg.
 Requested convergence on RMS density matrix=1.00D-08 within 128 cycles.
 Requested convergence on MAX density matrix=1.00D-06.
 Requested convergence on             energy=1.00D-06.
 No special actions if energy rises.
 SCF Done:  E(RB3LYP) =  -1486.59129929     A.U. after    2 cycles
            NFock=  2  Conv=0.81D-08     -V/T= 2.0094

 **********************************************************************

            Population analysis using the SCF Density.

 **********************************************************************

 Alpha  occ. eigenvalues --  -19.25176 -19.23907 -19.23277 -19.19221 -19.18547
 Alpha  occ. eigenvalues --  -14.51531 -14.50931 -14.49328 -14.49087 -14.47870
 Alpha  occ. eigenvalues --  -14.46148 -10.46339 -10.40581 -10.40304 -10.36627
 Alpha  occ. eigenvalues --  -10.36087 -10.34709 -10.33997 -10.32825 -10.31873
 Alpha  occ. eigenvalues --  -10.30261 -10.29642 -10.29343 -10.28290 -10.27647
 Alpha  occ. eigenvalues --  -10.27574 -10.27409 -10.26904 -10.26735 -10.26650
 Alpha  occ. eigenvalues --  -10.26364  -1.15925  -1.15131  -1.14447  -1.13372
 Alpha  occ. eigenvalues --   -1.12513  -1.06977  -1.04630  -1.04169  -1.03575
 Alpha  occ. eigenvalues --   -1.03040  -1.02130  -0.93648  -0.91344  -0.90169
 Alpha  occ. eigenvalues --   -0.88259  -0.85155  -0.83030  -0.82654  -0.80605
 Alpha  occ. eigenvalues --   -0.78664  -0.77961  -0.76266  -0.75365  -0.72493
 Alpha  occ. eigenvalues --   -0.71563  -0.70398  -0.70029  -0.68766  -0.68249
 Alpha  occ. eigenvalues --   -0.67918  -0.67135  -0.66852  -0.65083  -0.64193
 Alpha  occ. eigenvalues --   -0.63607  -0.63158  -0.62179  -0.61885  -0.59829
 Alpha  occ. eigenvalues --   -0.59330  -0.58394  -0.57732  -0.57262  -0.56371
 Alpha  occ. eigenvalues --   -0.56064  -0.55031  -0.54899  -0.54370  -0.53944
 Alpha  occ. eigenvalues --   -0.53445  -0.52939  -0.52332  -0.51731  -0.50949
 Alpha  occ. eigenvalues --   -0.50693  -0.50344  -0.49918  -0.49629  -0.49108
 Alpha  occ. eigenvalues --   -0.48741  -0.48429  -0.47975  -0.47806  -0.47219
 Alpha  occ. eigenvalues --   -0.46640  -0.45603  -0.44964  -0.44774  -0.44064
 Alpha  occ. eigenvalues --   -0.43974  -0.43853  -0.43602  -0.43257  -0.41456
 Alpha  occ. eigenvalues --   -0.41423  -0.40895  -0.39293  -0.38749  -0.37753
 Alpha  occ. eigenvalues --   -0.37096  -0.36212  -0.34712  -0.33259  -0.33037
 Alpha  occ. eigenvalues --   -0.32444  -0.29789
 Alpha virt. eigenvalues --   -0.11208  -0.10587  -0.09586  -0.08420  -0.07291
 Alpha virt. eigenvalues --   -0.06303  -0.04520  -0.03619  -0.02758  -0.02345
 Alpha virt. eigenvalues --   -0.00882  -0.00632   0.00034   0.00556   0.00934
 Alpha virt. eigenvalues --    0.01580   0.02344   0.02583   0.02943   0.02995
 Alpha virt. eigenvalues --    0.03955   0.04410   0.05077   0.05168   0.05718
 Alpha virt. eigenvalues --    0.05918   0.06236   0.06949   0.07449   0.07590
 Alpha virt. eigenvalues --    0.07898   0.08226   0.08528   0.08639   0.09123
 Alpha virt. eigenvalues --    0.09626   0.09945   0.10204   0.10667   0.10942
 Alpha virt. eigenvalues --    0.11319   0.12338   0.12570   0.12973   0.13328
 Alpha virt. eigenvalues --    0.13738   0.14485   0.14848   0.15460   0.16042
 Alpha virt. eigenvalues --    0.17008   0.17077   0.17757   0.18459   0.18786
 Alpha virt. eigenvalues --    0.20059   0.20647   0.23358   0.24751   0.25295
 Alpha virt. eigenvalues --    0.26148   0.26668   0.27118   0.27249   0.28049
 Alpha virt. eigenvalues --    0.29290   0.30406   0.33380   0.35269   0.38028
 Alpha virt. eigenvalues --    0.38546   0.39741   0.40210   0.40757   0.40983
 Alpha virt. eigenvalues --    0.41409   0.42779   0.43102   0.43213   0.43863
 Alpha virt. eigenvalues --    0.44160   0.44495   0.44884   0.45178   0.45545
 Alpha virt. eigenvalues --    0.45860   0.46148   0.47802   0.48531   0.49010
 Alpha virt. eigenvalues --    0.49248   0.49803   0.49985   0.50667   0.51022
 Alpha virt. eigenvalues --    0.51375   0.51901   0.52854   0.53022   0.53601
 Alpha virt. eigenvalues --    0.53746   0.54478   0.54849   0.54961   0.55864
 Alpha virt. eigenvalues --    0.55916   0.56699   0.57181   0.57778   0.57950
 Alpha virt. eigenvalues --    0.58145   0.58872   0.59608   0.60087   0.60761
 Alpha virt. eigenvalues --    0.62082   0.62434   0.63394   0.64426   0.64886
 Alpha virt. eigenvalues --    0.65009   0.65720   0.67069   0.67879   0.68281
 Alpha virt. eigenvalues --    0.69082   0.69676   0.69960   0.70889   0.71768
 Alpha virt. eigenvalues --    0.72386   0.72516   0.73491   0.73889   0.74460
 Alpha virt. eigenvalues --    0.74755   0.75279   0.75329   0.75719   0.75742
 Alpha virt. eigenvalues --    0.76008   0.76938   0.77086   0.77470   0.77651
 Alpha virt. eigenvalues --    0.78796   0.79278   0.80044   0.80591   0.80843
 Alpha virt. eigenvalues --    0.81470   0.81947   0.82216   0.82760   0.83229
 Alpha virt. eigenvalues --    0.83545   0.84007   0.84773   0.84811   0.85238
 Alpha virt. eigenvalues --    0.85846   0.86544   0.86741   0.87043   0.88060
 Alpha virt. eigenvalues --    0.88444   0.89002   0.89634   0.90525   0.90590
 Alpha virt. eigenvalues --    0.90870   0.91413   0.91826   0.92815   0.93726
 Alpha virt. eigenvalues --    0.95002   0.95348   0.96093   0.97073   0.97702
 Alpha virt. eigenvalues --    0.98937   0.99512   1.00814   1.01346   1.02635
 Alpha virt. eigenvalues --    1.03685   1.04989   1.06201   1.06986   1.07786
 Alpha virt. eigenvalues --    1.08569   1.08851   1.10435   1.11167   1.12582
 Alpha virt. eigenvalues --    1.13065   1.15559   1.16236   1.16785   1.17066
 Alpha virt. eigenvalues --    1.17276   1.17736   1.19680   1.20248   1.20634
 Alpha virt. eigenvalues --    1.21844   1.22551   1.23202   1.24100   1.26887
 Alpha virt. eigenvalues --    1.27197   1.27898   1.28940   1.29911   1.32704
 Alpha virt. eigenvalues --    1.33276   1.34740   1.35119   1.36282   1.36471
 Alpha virt. eigenvalues --    1.36943   1.38387   1.38686   1.39558   1.40273
 Alpha virt. eigenvalues --    1.41310   1.42833   1.43158   1.44043   1.44675
 Alpha virt. eigenvalues --    1.45037   1.46661   1.49542   1.51020   1.51300
 Alpha virt. eigenvalues --    1.53081   1.53958   1.54123   1.56057   1.57248
 Alpha virt. eigenvalues --    1.58536   1.59369   1.60443   1.61204   1.62182
 Alpha virt. eigenvalues --    1.63248   1.64604   1.65834   1.66091   1.66575
 Alpha virt. eigenvalues --    1.66765   1.67665   1.68445   1.69301   1.70446
 Alpha virt. eigenvalues --    1.71581   1.71916   1.73186   1.73552   1.74582
 Alpha virt. eigenvalues --    1.75134   1.75726   1.76322   1.77177   1.77831
 Alpha virt. eigenvalues --    1.78367   1.79585   1.79833   1.80493   1.80777
 Alpha virt. eigenvalues --    1.82394   1.82823   1.83519   1.84240   1.85394
 Alpha virt. eigenvalues --    1.86521   1.87174   1.87368   1.88088   1.88754
 Alpha virt. eigenvalues --    1.89071   1.89770   1.89925   1.91075   1.91925
 Alpha virt. eigenvalues --    1.92272   1.92725   1.93737   1.94652   1.95477
 Alpha virt. eigenvalues --    1.95952   1.96821   1.97227   1.98333   1.98783
 Alpha virt. eigenvalues --    1.99496   2.00374   2.01931   2.02833   2.03918
 Alpha virt. eigenvalues --    2.04441   2.05805   2.06149   2.06565   2.07824
 Alpha virt. eigenvalues --    2.08209   2.09507   2.09958   2.10699   2.12575
 Alpha virt. eigenvalues --    2.14681   2.15919   2.16603   2.17186   2.18262
 Alpha virt. eigenvalues --    2.18640   2.20100   2.21705   2.22304   2.22913
 Alpha virt. eigenvalues --    2.23477   2.25004   2.26033   2.26190   2.27596
 Alpha virt. eigenvalues --    2.28440   2.29185   2.30287   2.32436   2.32670
 Alpha virt. eigenvalues --    2.33020   2.34002   2.34776   2.35969   2.37498
 Alpha virt. eigenvalues --    2.39236   2.39708   2.41779   2.41823   2.42541
 Alpha virt. eigenvalues --    2.43225   2.43979   2.46627   2.47490   2.48948
 Alpha virt. eigenvalues --    2.50216   2.50448   2.51763   2.52166   2.54359
 Alpha virt. eigenvalues --    2.54771   2.55691   2.56600   2.57301   2.58398
 Alpha virt. eigenvalues --    2.59170   2.60584   2.61991   2.63164   2.63482
 Alpha virt. eigenvalues --    2.65992   2.66682   2.67871   2.70991   2.72627
 Alpha virt. eigenvalues --    2.74420   2.77239   2.78518   2.81012   2.81464
 Alpha virt. eigenvalues --    2.84842   2.88739   2.90767   2.91065   2.92890
 Alpha virt. eigenvalues --    2.93681   2.94954   2.98205   3.03460   3.04741
 Alpha virt. eigenvalues --    3.07896   3.08794   3.33598   3.67220   3.75793
 Alpha virt. eigenvalues --    3.76679   3.86903   3.88652   3.93752   3.96180
 Alpha virt. eigenvalues --    3.99668   4.03734   4.04703   4.05217   4.05807
 Alpha virt. eigenvalues --    4.10368   4.14907   4.17223   4.17655   4.19363
 Alpha virt. eigenvalues --    4.24181   4.25264   4.26613   4.28972   4.32436
 Alpha virt. eigenvalues --    4.36954   4.40239   4.40872   4.44668   4.53033
 Alpha virt. eigenvalues --    4.55194   4.61863   4.63662   4.67699
          Condensed to atoms (all electrons):
 Mulliken charges:
               1
     1  N   -0.766791
     2  C   -0.100201
     3  C    0.656975
     4  O   -0.530001
     5  C   -0.400507
     6  C    0.098341
     7  C   -0.213906
     8  C   -0.191002
     9  C   -0.193711
    10  C   -0.157000
    11  C    0.357409
    12  O   -0.627763
    13  H    0.456944
    14  H    0.203367
    15  H    0.158257
    16  H    0.222724
    17  H    0.187051
    18  H    0.132954
    19  H    0.140902
    20  H    0.161103
    21  H    0.417424
    22  H    0.392181
    23  H    0.389363
    24  N   -0.650382
    25  C   -0.011405
    26  C    0.626449
    27  O   -0.586639
    28  C   -0.124067
    29  C   -0.478399
    30  C   -0.450707
    31  H    0.355230
    32  H    0.196780
    33  H    0.158533
    34  H    0.180303
    35  H    0.163685
    36  H    0.141579
    37  H    0.156534
    38  H    0.163055
    39  H    0.168365
    40  N   -0.582257
    41  C   -0.041252
    42  C    0.581423
    43  O   -0.613511
    44  C   -0.269112
    45  C   -0.308493
    46  C   -0.149218
    47  N   -0.609734
    48  C    0.788766
    49  N   -0.761504
    50  N   -0.776307
    51  O   -0.554241
    52  H    0.355244
    53  H    0.155983
    54  H    0.177836
    55  H    0.157422
    56  H    0.165586
    57  H    0.175678
    58  H    0.184004
    59  H    0.166577
    60  H    0.405220
    61  H    0.378291
    62  H    0.382858
    63  H    0.365409
    64  H    0.422305
 Sum of Mulliken charges =   1.00000
 Mulliken charges with hydrogens summed into heavy atoms:
               1
     1  N    0.471697
     2  C    0.103166
     3  C    0.656975
     4  O   -0.530001
     5  C   -0.019526
     6  C    0.098341
     7  C   -0.026855
     8  C   -0.058047
     9  C   -0.052809
    10  C    0.004103
    11  C    0.357409
    12  O   -0.210340
    24  N   -0.295151
    25  C    0.185376
    26  C    0.626449
    27  O   -0.586639
    28  C    0.034466
    29  C    0.007167
    30  C    0.037247
    40  N   -0.227013
    41  C    0.114731
    42  C    0.581423
    43  O   -0.613511
    44  C    0.066145
    45  C    0.032771
    46  C    0.201363
    47  N   -0.204513
    48  C    0.788766
    49  N   -0.000356
    50  N    0.011407
    51  O   -0.554241
 Electronic spatial extent (au):  <R**2>=        3298162.8196
 Charge=              1.0000 electrons
 Dipole moment (field-independent basis, Debye):
    X=            170.0814    Y=           -154.8028    Z=            209.3477  Tot=            310.9952
 Quadrupole moment (field-independent basis, Debye-Ang):
   XX=           5899.9805   YY=           4837.5942   ZZ=           9001.2419
   XY=          -5495.5564   XZ=           7437.8038   YZ=          -6769.7134
 Traceless Quadrupole moment (field-independent basis, Debye-Ang):
   XX=           -679.6251   YY=          -1742.0113   ZZ=           2421.6364
   XY=          -5495.5564   XZ=           7437.8038   YZ=          -6769.7134
 Octapole moment (field-independent basis, Debye-Ang**2):
  XXX=         200921.4370  YYY=        -146801.9314  ZZZ=         382013.8309  XYY=         172520.2318
  XXY=        -191456.6620  XXZ=         259113.6565  XZZ=         321146.8100  YZZ=        -292231.6253
  YYZ=         212356.7892  XYZ=        -241140.9084
 Hexadecapole moment (field-independent basis, Debye-Ang**3):
 XXXX=        6720674.7471 YYYY=        4315845.5135 ZZZZ=       15994716.7239 XXXY=       -6560123.6869
 XXXZ=        8870739.8692 YYYX=       -5270829.7697 YYYZ=       -6471282.2426 ZZZX=       13699619.0086
 ZZZY=      -12458130.4134 XXYY=        6042534.4725 XXZZ=       11239794.3906 YYZZ=        9200984.8666
 XXYZ=       -8436262.5200 YYXZ=        7598778.2716 ZZXY=      -10453056.8185
 N-N= 3.403531865603D+03 E-N=-1.024569268012D+04  KE= 1.472704949644D+03
 Unable to Open any file for archive entry.
 1\1\GINC-AMR-026\SP\RB3LYP\6-31G(d)\C20H33N6O5(1+)\KENGMITH\31-May-202
 2\0\\# B3LYP/6-31G* empiricaldispersion=gd3 guess=read geom=check nosy
 mm integral(ultrafinegrid)\\Candidate Structure: Conf:950 Charge calc 
 in gas phase\\1,1\N,0,34.5397355267,-30.5976690457,39.9406299203\C,0,3
 3.0949708179,-30.8425180823,40.2728643796\C,0,33.1117293476,-31.894418
 8944,41.3979985119\O,0,34.032425155,-32.7061281375,41.4550112026\C,0,3
 2.3635461395,-29.5169041527,40.5787868615\C,0,32.7042709729,-28.429169
 2251,39.5838719075\C,0,33.6834283828,-27.4768284089,39.9029692171\C,0,
 32.1043444479,-28.378142766,38.3158119045\C,0,34.0482850296,-26.494832
 7517,38.9821612327\C,0,32.4595533688,-27.4027644052,37.3911453071\C,0,
 33.435546523,-26.4525575165,37.7235957792\O,0,33.7395186014,-25.523641
 9485,36.7775774244\H,0,35.1593497612,-30.2569533166,40.8292465123\H,0,
 32.6458348925,-31.3071759847,39.3863183328\H,0,31.2863998327,-29.72795
 61443,40.5546846536\H,0,32.6407646874,-29.1895593933,41.5831393735\H,0
 ,34.1562993025,-27.5127215105,40.882038339\H,0,31.3358379531,-29.10242
 5794,38.0521817331\H,0,34.8033103455,-25.7568720578,39.2451218071\H,0,
 31.9905218629,-27.3501162,36.4141895998\H,0,34.3964420711,-24.90051565
 52,37.1260703194\H,0,34.9742734687,-31.4808667746,39.6616959785\H,0,34
 .6081079919,-29.9091027014,39.186059037\N,0,32.1038360817,-31.87434719
 36,42.3080454349\C,0,32.1692189244,-32.7524861636,43.4805484299\C,0,33
 .4944363252,-32.5104061877,44.2344625919\O,0,34.1574312819,-33.4796612
 605,44.6470631955\C,0,30.9032628429,-32.616169003,44.3615767925\C,0,30
 .7039729838,-31.2109214022,44.9530724889\C,0,30.9181245536,-33.6769098
 083,45.4716696156\H,0,31.3974504321,-31.1532736355,42.2686750819\H,0,3
 2.2464190441,-33.7856329157,43.1308926093\H,0,30.0582611155,-32.832278
 055,43.6926509566\H,0,29.7456694507,-31.1626081101,45.4789549056\H,0,3
 1.4914268661,-30.9700431826,45.6755577286\H,0,30.6907263248,-30.417278
 7961,44.194762828\H,0,31.7540861747,-33.5161543717,46.1616620626\H,0,3
 1.0141556969,-34.6873428862,45.0609075298\H,0,29.990311859,-33.6307566
 875,46.0500819208\N,0,33.8688418662,-31.2273047694,44.400245102\C,0,35
 .2641720326,-30.7492288944,44.269875343\C,0,35.1998842344,-29.87764498
 46,42.9799021816\O,0,35.9628952438,-30.2301094237,42.0266278358\C,0,35
 .7289688485,-29.9559246755,45.4948407223\C,0,35.7176779211,-30.7151354
 01,46.8313875958\C,0,36.7725869985,-31.8228389072,46.978237424\N,0,36.
 4461415611,-32.9789664031,46.1320806972\C,0,37.3009547043,-33.70708554
 33,45.4217908358\N,0,38.6137609294,-33.7375546789,45.7225221867\N,0,36
 .8474901129,-34.404712422,44.3671222723\O,0,34.3152158197,-28.99693650
 08,42.9611192544\H,0,33.2355540132,-30.5169885146,44.0413784884\H,0,35
 .898240429,-31.609965152,44.065847117\H,0,35.0799516857,-29.0766974274
 ,45.5783635676\H,0,36.7397169153,-29.5776447132,45.2901774439\H,0,34.7
 204363624,-31.1386854451,47.0120337113\H,0,35.8954734186,-30.000180793
 4,47.642906961\H,0,36.8314494681,-32.1447893188,48.0249104254\H,0,37.7
 569662436,-31.4371198968,46.6864421103\H,0,35.4651780833,-33.098343227
 3,45.8411132813\H,0,39.2880446918,-34.1209016801,45.0769740904\H,0,38.
 9554971252,-33.3818514896,46.6020995439\H,0,37.360348205,-35.199686270
 1,44.0148710209\H,0,35.8663068765,-34.3026360613,44.1063967807\\Versio
 n=ES64L-G16RevC.01\HF=-1486.5912993\RMSD=8.102e-09\Dipole=2.494395,-2.
 7295839,1.7615738\Quadrupole=-505.2845714,-1295.142734,1800.4273054,-4
 085.8115215,5529.8248629,-5033.1159668\PG=C01 [X(C20H33N6O5)]\\@
 The archive entry for this job was punched.


 THERE'S SMALL CHOICE IN A BOWL OF ROTTEN APPLES.
                     SHAKESPEARE
 Job cpu time:       0 days  0 hours  1 minutes 51.7 seconds.
 Elapsed time:       0 days  0 hours  0 minutes 28.5 seconds.
 File lengths (MBytes):  RWF=    264 Int=      0 D2E=      0 Chk=     40 Scr=     16
 Normal termination of Gaussian 16 at Tue May 31 11:32:00 2022.
